                               Psi4 1.3.2 release

  ==> Input File <==

--------------------------------------------------------------------------
import numpy as np
set {scf_type pk
basis cc-pvdz
d_convergence 10
gdma_switch   0
gdma_limit    0
gdma_origin   [ 0.0,  0.0,  0.0 ]
}
molecule test {
    units Angstrom
    0 1
    --
    0 1
    C               -0.739926565052590     1.134320311732380     0.216403911456337
    C               -1.895926565052590     0.373320311732380    -0.413596088543663
    C               -0.600926565052590     2.373320311732380    -0.666596088543663
    H                0.162073434947410     0.529320311732380     0.150403911456337
    H               -0.947926565052589     1.397320311732380     1.254403911456336
    H               -1.858926565052589    -0.687679688267620    -0.166596088543663
    H               -2.840926565052590     0.807320311732380    -0.083596088543663
    H               -1.286926565052590     3.147320311732380    -0.318596088543664
    H               -1.772286565052590     0.541330311732380    -1.493636088543663
    H               -0.933966565052590     2.022190311732380    -1.654419088543664
    H                0.430883434947410     2.754030311732380    -0.687506088543663
    C                1.022073434947411    -2.245679688267620     0.090403911456337
    C                2.174073434947411    -1.558679688267620     0.800403911456336
    H                1.318073434947410    -3.241679688267620    -0.230596088543663
    H                0.176073434947411    -2.335679688267620     0.772403911456336
    H                0.709073434947410    -1.666679688267620    -0.777596088543663
    H                1.816073434947410    -0.613679688267620     1.204403911456337
    H                2.983803434947411    -1.379458688267620     0.077761911456337
    H                2.528713434947411    -2.186056688267620     1.631446911456337

}
e, wfn = energy('scf', return_wfn=True)
gdma(wfn)
dmavals = variable('DMA DISTRIBUTED MULTIPOLES')
charges = np.array(dmavals)
print(charges)
np.save('SSI-004PRO-007LEU-1-dimer.npy', np.array(charges))--------------------------------------------------------------------------

*** tstart() called on ds3
*** at Mon Apr 27 13:26:30 2020

   => Loading Basis Set <=

    Name: CC-PVDZ
    Role: ORBITAL
    Keyword: BASIS
    atoms 1-3, 12-13  entry C          line   138 file /theoryfs2/ds/metcalf/miniconda2/envs/tf2gpu/share/psi4/basis/cc-pvdz.gbs
    atoms 4-11, 14-19 entry H          line    22 file /theoryfs2/ds/metcalf/miniconda2/envs/tf2gpu/share/psi4/basis/cc-pvdz.gbs

         ---------------------------------------------------------
                                   SCF
               by Justin Turney, Rob Parrish, Andy Simmonett
                          and Daniel G. A. Smith
                              RHF Reference
                        1 Threads,    500 MiB Core
         ---------------------------------------------------------

  ==> Geometry <==

    Molecular point group: c1
    Full point group: C1

    Geometry (in Angstrom), charge = 0, multiplicity = 1:

       Center              X                  Y                   Z               Mass
    ------------   -----------------  -----------------  -----------------  -----------------
         C           -0.739926565053     1.134320311732     0.216403911456    12.000000000000
         C           -1.895926565053     0.373320311732    -0.413596088544    12.000000000000
         C           -0.600926565053     2.373320311732    -0.666596088544    12.000000000000
         H            0.162073434947     0.529320311732     0.150403911456     1.007825032230
         H           -0.947926565053     1.397320311732     1.254403911456     1.007825032230
         H           -1.858926565053    -0.687679688268    -0.166596088544     1.007825032230
         H           -2.840926565053     0.807320311732    -0.083596088544     1.007825032230
         H           -1.286926565053     3.147320311732    -0.318596088544     1.007825032230
         H           -1.772286565053     0.541330311732    -1.493636088544     1.007825032230
         H           -0.933966565053     2.022190311732    -1.654419088544     1.007825032230
         H            0.430883434947     2.754030311732    -0.687506088544     1.007825032230
         C            1.022073434947    -2.245679688268     0.090403911456    12.000000000000
         C            2.174073434947    -1.558679688268     0.800403911456    12.000000000000
         H            1.318073434947    -3.241679688268    -0.230596088544     1.007825032230
         H            0.176073434947    -2.335679688268     0.772403911456     1.007825032230
         H            0.709073434947    -1.666679688268    -0.777596088544     1.007825032230
         H            1.816073434947    -0.613679688268     1.204403911456     1.007825032230
         H            2.983803434947    -1.379458688268     0.077761911456     1.007825032230
         H            2.528713434947    -2.186056688268     1.631446911456     1.007825032230

  Running in c1 symmetry.

  Rotational constants: A =      0.21692  B =      0.04760  C =      0.04193 [cm^-1]
  Rotational constants: A =   6502.99987  B =   1426.96370  C =   1257.07437 [MHz]
  Nuclear repulsion =  182.935437491960613

  Charge       = 0
  Multiplicity = 1
  Electrons    = 44
  Nalpha       = 22
  Nbeta        = 22

  ==> Algorithm <==

  SCF Algorithm Type is PK.
  DIIS enabled.
  MOM disabled.
  Fractional occupation disabled.
  Guess Type is SAD.
  Energy threshold   = 1.00e-06
  Density threshold  = 1.00e-10
  Integral threshold = 0.00e+00

  ==> Primary Basis <==

  Basis Set: CC-PVDZ
    Blend: CC-PVDZ
    Number of shells: 72
    Number of basis function: 140
    Number of Cartesian functions: 145
    Spherical Harmonics?: true
    Max angular momentum: 2

  ==> Pre-Iterations <==

   -------------------------------------------------------
    Irrep   Nso     Nmo     Nalpha   Nbeta   Ndocc  Nsocc
   -------------------------------------------------------
     A        140     140       0       0       0       0
   -------------------------------------------------------
    Total     140     140      22      22      22       0
   -------------------------------------------------------

  ==> Integral Setup <==

  Using integral reordering PK algorithm.
  Sizing the integral batches needed.
  Building batch lookup table.
   Calculation information:
      Number of atoms:                  19
      Number of AO shells:              72
      Number of primitives:            180
      Number of atomic orbitals:       145
      Number of basis functions:       140

      Integral cutoff                 1.00e-12
      Number of threads:                 1

	Batch   1 pq = [       0,    9405] index = [             0,44231715] size =     44231715
	Batch   2 pq = [    9405,    9870] index = [      44231715,48713385] size =      4481670
  Task number: 5
  Buffer size: 11059200
  Buffer per thread: 2
  We computed 3047094 shell quartets total.
  Whereas there are 3454506 unique shell quartets.

  ==> DiskJK: Disk-Based J/K Matrices <==

    J tasked:                  Yes
    K tasked:                  Yes
    wK tasked:                  No
    Memory [MiB]:              375
    Schwarz Cutoff:          1E-12

    OpenMP threads:              1

  Minimum eigenvalue in the overlap matrix is 4.9488433953E-03.
  Using Symmetric Orthogonalization.

  SCF Guess: Superposition of Atomic Densities via on-the-fly atomic UHF.

  ==> Iterations <==

                        Total Energy        Delta E     RMS |[F,P]|

   @RHF iter SAD:  -196.51268800899368   -1.96513e+02   0.00000e+00
   @RHF iter   1:  -197.29276346759883   -7.80075e-01   3.84942e-03 DIIS
   @RHF iter   2:  -197.45452162970088   -1.61758e-01   1.67318e-03 DIIS
   @RHF iter   3:  -197.48394866966208   -2.94270e-02   3.29133e-04 DIIS
   @RHF iter   4:  -197.48617014049822   -2.22147e-03   4.87863e-05 DIIS
   @RHF iter   5:  -197.48620957044054   -3.94299e-05   1.52955e-05 DIIS
   @RHF iter   6:  -197.48621314823237   -3.57779e-06   2.53187e-06 DIIS
   @RHF iter   7:  -197.48621326730571   -1.19073e-07   4.59952e-07 DIIS
   @RHF iter   8:  -197.48621327154029   -4.23458e-09   1.06204e-07 DIIS
   @RHF iter   9:  -197.48621327175675   -2.16460e-10   3.34340e-08 DIIS
   @RHF iter  10:  -197.48621327178131   -2.45564e-11   7.79715e-09 DIIS
   @RHF iter  11:  -197.48621327178256   -1.25056e-12   1.57716e-09 DIIS
   @RHF iter  12:  -197.48621327178213    4.26326e-13   3.27697e-10 DIIS
   @RHF iter  13:  -197.48621327178267   -5.40012e-13   5.82841e-11 DIIS
  Energy and wave function converged.

  ==> Post-Iterations <==

    Orbital Energies [Eh]
    ---------------------

    Doubly Occupied:

       1A    -11.218876     2A    -11.216195     3A    -11.215907
       4A    -11.214427     5A    -11.213084     6A     -1.064314
       7A     -1.022729     8A     -0.912814     9A     -0.835932
      10A     -0.799549    11A     -0.636801    12A     -0.615171
      13A     -0.601322    14A     -0.596754    15A     -0.540893
      16A     -0.511576    17A     -0.501536    18A     -0.487926
      19A     -0.486125    20A     -0.482032    21A     -0.468090
      22A     -0.459006

    Virtual:

      23A      0.172607    24A      0.198196    25A      0.217655
      26A      0.223850    27A      0.233394    28A      0.252269
      29A      0.252764    30A      0.267655    31A      0.272510
      32A      0.281214    33A      0.307642    34A      0.316434
      35A      0.335942    36A      0.356211    37A      0.383108
      38A      0.397444    39A      0.434306    40A      0.568566
      41A      0.589198    42A      0.595487    43A      0.611232
      44A      0.615105    45A      0.623732    46A      0.656343
      47A      0.665819    48A      0.705207    49A      0.774225
      50A      0.786672    51A      0.822490    52A      0.844459
      53A      0.847972    54A      0.859684    55A      0.874548
      56A      0.885210    57A      0.894745    58A      0.900985
      59A      0.904022    60A      0.904985    61A      0.916749
      62A      0.927721    63A      0.941373    64A      0.949610
      65A      0.966871    66A      0.975659    67A      0.995017
      68A      1.053768    69A      1.106461    70A      1.118031
      71A      1.125389    72A      1.149703    73A      1.226948
      74A      1.249276    75A      1.401812    76A      1.458971
      77A      1.477423    78A      1.485448    79A      1.492977
      80A      1.563934    81A      1.609160    82A      1.622913
      83A      1.633043    84A      1.686868    85A      1.697639
      86A      1.735813    87A      1.741376    88A      1.803581
      89A      1.857179    90A      1.866456    91A      1.871574
      92A      1.882381    93A      1.901220    94A      1.920936
      95A      1.928559    96A      1.940030    97A      1.951868
      98A      1.953701    99A      1.957187   100A      1.963386
     101A      1.965018   102A      1.988240   103A      1.991008
     104A      2.010261   105A      2.034149   106A      2.043531
     107A      2.098409   108A      2.122050   109A      2.134944
     110A      2.137934   111A      2.198289   112A      2.241977
     113A      2.289052   114A      2.306421   115A      2.324306
     116A      2.354194   117A      2.431989   118A      2.452012
     119A      2.459942   120A      2.466052   121A      2.505988
     122A      2.549865   123A      2.571302   124A      2.589549
     125A      2.630825   126A      2.702083   127A      2.758248
     128A      2.768561   129A      2.777138   130A      2.796381
     131A      2.799669   132A      2.835330   133A      2.850491
     134A      2.855085   135A      2.863203   136A      2.926091
     137A      2.952895   138A      2.964691   139A      2.973167
     140A      3.075990

    Final Occupation by Irrep:
              A
    DOCC [    22 ]

  @RHF Final Energy:  -197.48621327178267

   => Energetics <=

    Nuclear Repulsion Energy =            182.9354374919606130
    One-Electron Energy =                -626.6411870467316021
    Two-Electron Energy =                 246.2195362829883152
    Total Energy =                       -197.4862132717826739

Computation Completed

Properties will be evaluated at   0.000000,   0.000000,   0.000000 [a0]

Properties computed using the SCF density matrix

  Nuclear Dipole Moment: [e a0]
     X:     0.4536      Y:    -0.8550      Z:    -0.3016

  Electronic Dipole Moment: [e a0]
     X:    -0.4441      Y:     0.8318      Z:     0.3391

  Dipole Moment: [e a0]
     X:     0.0094      Y:    -0.0233      Z:     0.0375     Total:     0.0451

  Dipole Moment: [D]
     X:     0.0239      Y:    -0.0592      Z:     0.0953     Total:     0.1147

*** tstop() called on ds3 at Mon Apr 27 13:26:56 2020
Module time:
	user time   =      18.97 seconds =       0.32 minutes
	system time =       8.23 seconds =       0.14 minutes
	total time  =         26 seconds =       0.43 minutes
Total time:
	user time   =      18.97 seconds =       0.32 minutes
	system time =       8.23 seconds =       0.14 minutes
	total time  =         26 seconds =       0.43 minutes
                                     G D M A

                                 by Anthony Stone

                           version 2.2.06, 22 June 2011

               Distributed Multipoles from Gaussian wavefunctions

Starting at 13:26:56 on 27 Apr 2020

Using SCF density matrix from file ./SSI/SSI-004PRO-007LEU-1-dimer.test.6629.fchk

                         Distributed Multipole Analysis

Standard DMA

Positions and radii in angstrom
Multipole moments in atomic units, ea_0^k for rank k

C          x = -0.739927  y =  1.134320  z =  0.216404 angstrom
           Maximum rank =  0   Radius =  0.650 angstrom
                   Q00  =  -0.098066

C          x = -1.895927  y =  0.373320  z = -0.413596 angstrom
           Maximum rank =  0   Radius =  0.650 angstrom
                   Q00  =  -0.218967

C          x = -0.600927  y =  2.373320  z = -0.666596 angstrom
           Maximum rank =  0   Radius =  0.650 angstrom
                   Q00  =  -0.225758

H          x =  0.162073  y =  0.529320  z =  0.150404 angstrom
           Maximum rank =  0   Radius =  0.325 angstrom
                   Q00  =   0.052366

H          x = -0.947927  y =  1.397320  z =  1.254404 angstrom
           Maximum rank =  0   Radius =  0.325 angstrom
                   Q00  =   0.055312

H          x = -1.858927  y = -0.687680  z = -0.166596 angstrom
           Maximum rank =  0   Radius =  0.325 angstrom
                   Q00  =   0.083449

H          x = -2.840927  y =  0.807320  z = -0.083596 angstrom
           Maximum rank =  0   Radius =  0.325 angstrom
                   Q00  =   0.077649

H          x = -1.286927  y =  3.147320  z = -0.318596 angstrom
           Maximum rank =  0   Radius =  0.325 angstrom
                   Q00  =   0.079286

H          x = -1.772287  y =  0.541330  z = -1.493636 angstrom
           Maximum rank =  0   Radius =  0.325 angstrom
                   Q00  =   0.052218

H          x = -0.933967  y =  2.022190  z = -1.654419 angstrom
           Maximum rank =  0   Radius =  0.325 angstrom
                   Q00  =   0.061218

H          x =  0.430883  y =  2.754030  z = -0.687506 angstrom
           Maximum rank =  0   Radius =  0.325 angstrom
                   Q00  =   0.081549

C          x =  1.022073  y = -2.245680  z =  0.090404 angstrom
           Maximum rank =  0   Radius =  0.650 angstrom
                   Q00  =  -0.240995

C          x =  2.174073  y = -1.558680  z =  0.800404 angstrom
           Maximum rank =  0   Radius =  0.650 angstrom
                   Q00  =  -0.228210

H          x =  1.318073  y = -3.241680  z = -0.230596 angstrom
           Maximum rank =  0   Radius =  0.325 angstrom
                   Q00  =   0.079926

H          x =  0.176073  y = -2.335680  z =  0.772404 angstrom
           Maximum rank =  0   Radius =  0.325 angstrom
                   Q00  =   0.076567

H          x =  0.709073  y = -1.666680  z = -0.777596 angstrom
           Maximum rank =  0   Radius =  0.325 angstrom
                   Q00  =   0.077058

H          x =  1.816073  y = -0.613680  z =  1.204404 angstrom
           Maximum rank =  0   Radius =  0.325 angstrom
                   Q00  =   0.079164

H          x =  2.983803  y = -1.379459  z =  0.077762 angstrom
           Maximum rank =  0   Radius =  0.325 angstrom
                   Q00  =   0.077047

H          x =  2.528713  y = -2.186057  z =  1.631447 angstrom
           Maximum rank =  0   Radius =  0.325 angstrom
                   Q00  =   0.079185

Total multipoles referred to origin at
           x =   0.000000,  y =    0.000000,  z =    0.000000 angstrom
                   Q00  =  -0.000000

Finished at 13:26:56 on 27 Apr 2020

  DMA results are available in the Python driver through the
	  variable('DMA DISTRIBUTED MULTIPOLES')
  and
	  variable('DMA TOTAL MULTIPOLES')
  commands.

    Psi4 stopped on: Monday, 27 April 2020 01:26PM
    Psi4 wall time for execution: 0:00:26.33

*** Psi4 exiting successfully. Buy a developer a beer!
