                               Psi4 1.3.2 release

  ==> Input File <==

--------------------------------------------------------------------------
import numpy as np
set {scf_type pk
basis cc-pvdz
d_convergence 10
gdma_switch   0
gdma_limit    0
gdma_origin   [ 0.0,  0.0,  0.0 ]
}
molecule test {
    units Angstrom
    0 1
    --
    0 1
    C               -0.611022097932708    -2.652709330518058     3.009796101957182
    C               -0.216022097932708    -3.106709330518057     4.403796101957182
    H                0.283977902067292    -2.412709330518057     2.435796101957182
    H               -1.160022097932707    -3.443709330518057     2.504796101957182
    H               -1.240022097932707    -1.772709330518057     3.094796101957182
    H                0.430977902067292    -3.981709330518057     4.326796101957182
    H                0.342587902067292    -2.297789330518057     4.897356101957181
    H               -1.131782097932707    -3.375839330518057     4.950556101957181
    C               -1.654022097932707     0.302290669481943     0.922796101957182
    C               -1.935022097932708     1.689290669481943     1.545796101957182
    C               -0.624022097932708     0.363290669481943    -0.205203898042818
    C               -1.018022097932708     0.702290669481943    -1.503203898042818
    C                0.749977902067292     0.171290669481943     0.050796101957182
    C               -0.058022097932708     0.869290669481943    -2.529203898042818
    C                1.714977902067292     0.341290669481943    -0.949203898042818
    C                1.325977902067292     0.710290669481943    -2.243203898042818
    O                2.317977902067292     0.982290669481943    -3.169203898042818
    H               -1.315022097932707    -0.400709330518057     1.672796101957182
    H               -2.612022097932707    -0.038709330518057     0.528796101957182
    H               -2.376022097932708     2.330290669481943     0.776796101957182
    H               -2.073022097932708     0.833290669481943    -1.711203898042818
    H                1.059977902067293    -0.111709330518057     1.046796101957182
    H               -0.378022097932708     1.071290669481943    -3.545203898042818
    H                2.762977902067293     0.193290669481943    -0.730203898042818
    H                1.972977902067293     1.296290669481943    -4.022203898042818
    H               -0.996512097932708     2.134160669481943     1.908146101957182
    H               -2.673012097932707     1.651590669481943     2.360626101957182

}
e, wfn = energy('scf', return_wfn=True)
gdma(wfn)
dmavals = variable('DMA DISTRIBUTED MULTIPOLES')
charges = np.array(dmavals)
print(charges)
np.save('SSI-174VAL-270TYR-1-dimer.npy', np.array(charges))--------------------------------------------------------------------------

*** tstart() called on ds3
*** at Tue Apr 28 16:35:27 2020

   => Loading Basis Set <=

    Name: CC-PVDZ
    Role: ORBITAL
    Keyword: BASIS
    atoms 1-2, 9-16  entry C          line   138 file /theoryfs2/ds/metcalf/miniconda2/envs/tf2gpu/share/psi4/basis/cc-pvdz.gbs
    atoms 3-8, 18-27 entry H          line    22 file /theoryfs2/ds/metcalf/miniconda2/envs/tf2gpu/share/psi4/basis/cc-pvdz.gbs
    atoms 17         entry O          line   198 file /theoryfs2/ds/metcalf/miniconda2/envs/tf2gpu/share/psi4/basis/cc-pvdz.gbs

         ---------------------------------------------------------
                                   SCF
               by Justin Turney, Rob Parrish, Andy Simmonett
                          and Daniel G. A. Smith
                              RHF Reference
                        1 Threads,    500 MiB Core
         ---------------------------------------------------------

  ==> Geometry <==

    Molecular point group: c1
    Full point group: C1

    Geometry (in Angstrom), charge = 0, multiplicity = 1:

       Center              X                  Y                   Z               Mass
    ------------   -----------------  -----------------  -----------------  -----------------
         C           -0.611022097933    -2.652709330518     3.009796101957    12.000000000000
         C           -0.216022097933    -3.106709330518     4.403796101957    12.000000000000
         H            0.283977902067    -2.412709330518     2.435796101957     1.007825032230
         H           -1.160022097933    -3.443709330518     2.504796101957     1.007825032230
         H           -1.240022097933    -1.772709330518     3.094796101957     1.007825032230
         H            0.430977902067    -3.981709330518     4.326796101957     1.007825032230
         H            0.342587902067    -2.297789330518     4.897356101957     1.007825032230
         H           -1.131782097933    -3.375839330518     4.950556101957     1.007825032230
         C           -1.654022097933     0.302290669482     0.922796101957    12.000000000000
         C           -1.935022097933     1.689290669482     1.545796101957    12.000000000000
         C           -0.624022097933     0.363290669482    -0.205203898043    12.000000000000
         C           -1.018022097933     0.702290669482    -1.503203898043    12.000000000000
         C            0.749977902067     0.171290669482     0.050796101957    12.000000000000
         C           -0.058022097933     0.869290669482    -2.529203898043    12.000000000000
         C            1.714977902067     0.341290669482    -0.949203898043    12.000000000000
         C            1.325977902067     0.710290669482    -2.243203898043    12.000000000000
         O            2.317977902067     0.982290669482    -3.169203898043    15.994914619570
         H           -1.315022097933    -0.400709330518     1.672796101957     1.007825032230
         H           -2.612022097933    -0.038709330518     0.528796101957     1.007825032230
         H           -2.376022097933     2.330290669482     0.776796101957     1.007825032230
         H           -2.073022097933     0.833290669482    -1.711203898043     1.007825032230
         H            1.059977902067    -0.111709330518     1.046796101957     1.007825032230
         H           -0.378022097933     1.071290669482    -3.545203898043     1.007825032230
         H            2.762977902067     0.193290669482    -0.730203898043     1.007825032230
         H            1.972977902067     1.296290669482    -4.022203898043     1.007825032230
         H           -0.996512097933     2.134160669482     1.908146101957     1.007825032230
         H           -2.673012097933     1.651590669482     2.360626101957     1.007825032230

  Running in c1 symmetry.

  Rotational constants: A =      0.04887  B =      0.01401  C =      0.01174 [cm^-1]
  Rotational constants: A =   1464.97788  B =    420.01273  C =    352.01684 [MHz]
  Nuclear repulsion =  566.417128944354772

  Charge       = 0
  Multiplicity = 1
  Electrons    = 84
  Nalpha       = 42
  Nbeta        = 42

  ==> Algorithm <==

  SCF Algorithm Type is PK.
  DIIS enabled.
  MOM disabled.
  Fractional occupation disabled.
  Guess Type is SAD.
  Energy threshold   = 1.00e-06
  Density threshold  = 1.00e-10
  Integral threshold = 0.00e+00

  ==> Primary Basis <==

  Basis Set: CC-PVDZ
    Blend: CC-PVDZ
    Number of shells: 114
    Number of basis function: 234
    Number of Cartesian functions: 245
    Spherical Harmonics?: true
    Max angular momentum: 2

  ==> Pre-Iterations <==

   -------------------------------------------------------
    Irrep   Nso     Nmo     Nalpha   Nbeta   Ndocc  Nsocc
   -------------------------------------------------------
     A        234     234       0       0       0       0
   -------------------------------------------------------
    Total     234     234      42      42      42       0
   -------------------------------------------------------

  ==> Integral Setup <==

  Using integral reordering PK algorithm.
  Sizing the integral batches needed.
  Building batch lookup table.
   Calculation information:
      Number of atoms:                  27
      Number of AO shells:             114
      Number of primitives:            322
      Number of atomic orbitals:       245
      Number of basis functions:       234

      Integral cutoff                 1.00e-12
      Number of threads:                 1

	Batch   1 pq = [       0,    9405] index = [             0,44231715] size =     44231715
	Batch   2 pq = [    9405,   13301] index = [      44231715,88464951] size =     44233236
	Batch   3 pq = [   13301,   16290] index = [      88464951,132690195] size =     44225244
	Batch   4 pq = [   16290,   18810] index = [     132690195,176917455] size =     44227260
	Batch   5 pq = [   18810,   21030] index = [     176917455,221140965] size =     44223510
	Batch   6 pq = [   21030,   23037] index = [     221140965,265363203] size =     44222238
	Batch   7 pq = [   23037,   24883] index = [     265363203,309594286] size =     44231083
	Batch   8 pq = [   24883,   26601] index = [     309594286,353819901] size =     44225615
	Batch   9 pq = [   26601,   27495] index = [     353819901,378001260] size =     24181359
  Task number: 35
  Buffer size: 11059200
  Buffer per thread: 2
  We computed 18062713 shell quartets total.
  Whereas there are 21487290 unique shell quartets.

  ==> DiskJK: Disk-Based J/K Matrices <==

    J tasked:                  Yes
    K tasked:                  Yes
    wK tasked:                  No
    Memory [MiB]:              375
    Schwarz Cutoff:          1E-12

    OpenMP threads:              1

  Minimum eigenvalue in the overlap matrix is 3.5133402210E-04.
  Using Symmetric Orthogonalization.

  SCF Guess: Superposition of Atomic Densities via on-the-fly atomic UHF.

  ==> Iterations <==

                        Total Energy        Delta E     RMS |[F,P]|

   @RHF iter SAD:  -461.44527671191202   -4.61445e+02   0.00000e+00
   @RHF iter   1:  -462.60728824494339   -1.16201e+00   2.78321e-03 DIIS
   @RHF iter   2:  -462.84272211612586   -2.35434e-01   1.19513e-03 DIIS
   @RHF iter   3:  -462.88206125809086   -3.93391e-02   2.80614e-04 DIIS
   @RHF iter   4:  -462.88542350700743   -3.36225e-03   1.21702e-04 DIIS
   @RHF iter   5:  -462.88589850347739   -4.74996e-04   1.96073e-05 DIIS
   @RHF iter   6:  -462.88591904774694   -2.05443e-05   5.91041e-06 DIIS
   @RHF iter   7:  -462.88592078836103   -1.74061e-06   2.14009e-06 DIIS
   @RHF iter   8:  -462.88592104344752   -2.55086e-07   7.43159e-07 DIIS
   @RHF iter   9:  -462.88592108176351   -3.83160e-08   2.31841e-07 DIIS
   @RHF iter  10:  -462.88592108652483   -4.76132e-09   8.58785e-08 DIIS
   @RHF iter  11:  -462.88592108752704   -1.00221e-09   4.22676e-08 DIIS
   @RHF iter  12:  -462.88592108777084   -2.43801e-10   2.00694e-08 DIIS
   @RHF iter  13:  -462.88592108785645   -8.56062e-11   8.15771e-09 DIIS
   @RHF iter  14:  -462.88592108786770   -1.12550e-11   2.14651e-09 DIIS
   @RHF iter  15:  -462.88592108786952   -1.81899e-12   6.49256e-10 DIIS
   @RHF iter  16:  -462.88592108786719    2.33058e-12   2.39161e-10 DIIS
   @RHF iter  17:  -462.88592108786742   -2.27374e-13   7.78369e-11 DIIS
  Energy and wave function converged.

  ==> Post-Iterations <==

    Orbital Energies [Eh]
    ---------------------

    Doubly Occupied:

       1A    -20.584853     2A    -11.306158     3A    -11.242720
       4A    -11.240910     5A    -11.240832     6A    -11.234959
       7A    -11.233180     8A    -11.228801     9A    -11.222689
      10A    -11.219753    11A    -11.216466    12A     -1.388032
      13A     -1.142979    14A     -1.051188    15A     -1.024206
      16A     -1.011145    17A     -0.972235    18A     -0.857969
      19A     -0.839619    20A     -0.834888    21A     -0.789016
      22A     -0.725520    23A     -0.663424    24A     -0.643574
      25A     -0.613349    26A     -0.604981    27A     -0.604029
      28A     -0.591354    29A     -0.581383    30A     -0.577485
      31A     -0.568174    32A     -0.545124    33A     -0.512901
      34A     -0.501532    35A     -0.495640    36A     -0.489930
      37A     -0.487285    38A     -0.475762    39A     -0.470329
      40A     -0.458450    41A     -0.334684    42A     -0.300530

    Virtual:

      43A      0.127255    44A      0.148499    45A      0.174178
      46A      0.180145    47A      0.194214    48A      0.206443
      49A      0.218460    50A      0.233300    51A      0.244043
      52A      0.252626    53A      0.253507    54A      0.264628
      55A      0.278539    56A      0.281356    57A      0.289665
      58A      0.297495    59A      0.325582    60A      0.338290
      61A      0.346877    62A      0.378756    63A      0.407126
      64A      0.419169    65A      0.426371    66A      0.467090
      67A      0.485244    68A      0.489816    69A      0.518868
      70A      0.583461    71A      0.598916    72A      0.601924
      73A      0.608855    74A      0.621159    75A      0.637736
      76A      0.645582    77A      0.658365    78A      0.665420
      79A      0.683046    80A      0.695952    81A      0.711276
      82A      0.717202    83A      0.736404    84A      0.739969
      85A      0.748272    86A      0.755459    87A      0.765847
      88A      0.795925    89A      0.808963    90A      0.819792
      91A      0.834248    92A      0.845987    93A      0.867543
      94A      0.869161    95A      0.881011    96A      0.884664
      97A      0.891231    98A      0.892687    99A      0.894096
     100A      0.901820   101A      0.906139   102A      0.908437
     103A      0.922949   104A      0.932104   105A      0.939435
     106A      0.942257   107A      0.959983   108A      0.968395
     109A      0.977597   110A      0.996924   111A      1.009713
     112A      1.018953   113A      1.055944   114A      1.087682
     115A      1.118542   116A      1.123328   117A      1.131294
     118A      1.142465   119A      1.156549   120A      1.196554
     121A      1.205996   122A      1.231408   123A      1.234735
     124A      1.249901   125A      1.258155   126A      1.278650
     127A      1.289662   128A      1.294310   129A      1.308017
     130A      1.337607   131A      1.355691   132A      1.391575
     133A      1.406818   134A      1.432452   135A      1.480464
     136A      1.492195   137A      1.497092   138A      1.512967
     139A      1.551660   140A      1.568531   141A      1.602422
     142A      1.618992   143A      1.633915   144A      1.669750
     145A      1.675456   146A      1.686698   147A      1.697556
     148A      1.725655   149A      1.731006   150A      1.771345
     151A      1.793608   152A      1.835041   153A      1.840224
     154A      1.844801   155A      1.858901   156A      1.868548
     157A      1.873474   158A      1.877673   159A      1.886289
     160A      1.886916   161A      1.907090   162A      1.916090
     163A      1.927514   164A      1.935223   165A      1.944904
     166A      1.950106   167A      1.953316   168A      1.955242
     169A      1.960877   170A      1.974215   171A      1.979592
     172A      1.992296   173A      2.005361   174A      2.020364
     175A      2.022905   176A      2.033610   177A      2.045546
     178A      2.049384   179A      2.072292   180A      2.091463
     181A      2.113572   182A      2.115472   183A      2.131496
     184A      2.137774   185A      2.158666   186A      2.181553
     187A      2.220106   188A      2.242197   189A      2.265195
     190A      2.290858   191A      2.294159   192A      2.303226
     193A      2.317998   194A      2.340538   195A      2.362847
     196A      2.424460   197A      2.455129   198A      2.457434
     199A      2.461724   200A      2.475243   201A      2.477320
     202A      2.490270   203A      2.511672   204A      2.546545
     205A      2.560216   206A      2.573899   207A      2.588440
     208A      2.601247   209A      2.623735   210A      2.738283
     211A      2.762319   212A      2.764276   213A      2.775014
     214A      2.797989   215A      2.806760   216A      2.836764
     217A      2.843228   218A      2.852289   219A      2.868127
     220A      2.913686   221A      2.934794   222A      2.958638
     223A      2.976011   224A      3.004002   225A      3.007775
     226A      3.053630   227A      3.160607   228A      3.226426
     229A      3.260876   230A      3.335005   231A      3.529073
     232A      3.637648   233A      3.911780   234A      4.170358

    Final Occupation by Irrep:
              A
    DOCC [    42 ]

  @RHF Final Energy:  -462.88592108786742

   => Energetics <=

    Nuclear Repulsion Energy =            566.4171289443547721
    One-Electron Energy =               -1750.3500250898850936
    Two-Electron Energy =                 721.0469750576628485
    Total Energy =                       -462.8859210878674730

Computation Completed

Properties will be evaluated at   0.000000,   0.000000,   0.000000 [a0]

Properties computed using the SCF density matrix

  Nuclear Dipole Moment: [e a0]
     X:    -8.5217      Y:    -7.8001      Z:    19.1984

  Electronic Dipole Moment: [e a0]
     X:     8.0174      Y:     7.8962      Z:   -19.4134

  Dipole Moment: [e a0]
     X:    -0.5043      Y:     0.0961      Z:    -0.2150     Total:     0.5565

  Dipole Moment: [D]
     X:    -1.2817      Y:     0.2444      Z:    -0.5464     Total:     1.4146

*** tstop() called on ds3 at Tue Apr 28 16:38:30 2020
Module time:
	user time   =     128.78 seconds =       2.15 minutes
	system time =      53.01 seconds =       0.88 minutes
	total time  =        183 seconds =       3.05 minutes
Total time:
	user time   =     128.78 seconds =       2.15 minutes
	system time =      53.01 seconds =       0.88 minutes
	total time  =        183 seconds =       3.05 minutes
                                     G D M A

                                 by Anthony Stone

                           version 2.2.06, 22 June 2011

               Distributed Multipoles from Gaussian wavefunctions

Starting at 16:38:30 on 28 Apr 2020

Using SCF density matrix from file ./SSI/SSI-174VAL-270TYR-1-dimer.test.14935.fchk

                         Distributed Multipole Analysis

Standard DMA

Positions and radii in angstrom
Multipole moments in atomic units, ea_0^k for rank k

C          x = -0.611022  y = -2.652709  z =  3.009796 angstrom
           Maximum rank =  0   Radius =  0.650 angstrom
                   Q00  =  -0.229505

C          x = -0.216022  y = -3.106709  z =  4.403796 angstrom
           Maximum rank =  0   Radius =  0.650 angstrom
                   Q00  =  -0.234455

H          x =  0.283978  y = -2.412709  z =  2.435796 angstrom
           Maximum rank =  0   Radius =  0.325 angstrom
                   Q00  =   0.076334

H          x = -1.160022  y = -3.443709  z =  2.504796 angstrom
           Maximum rank =  0   Radius =  0.325 angstrom
                   Q00  =   0.083168

H          x = -1.240022  y = -1.772709  z =  3.094796 angstrom
           Maximum rank =  0   Radius =  0.325 angstrom
                   Q00  =   0.073149

H          x =  0.430978  y = -3.981709  z =  4.326796 angstrom
           Maximum rank =  0   Radius =  0.325 angstrom
                   Q00  =   0.078958

H          x =  0.342588  y = -2.297789  z =  4.897356 angstrom
           Maximum rank =  0   Radius =  0.325 angstrom
                   Q00  =   0.076439

H          x = -1.131782  y = -3.375839  z =  4.950556 angstrom
           Maximum rank =  0   Radius =  0.325 angstrom
                   Q00  =   0.078508

C          x = -1.654022  y =  0.302291  z =  0.922796 angstrom
           Maximum rank =  0   Radius =  0.650 angstrom
                   Q00  =  -0.032919

C          x = -1.935022  y =  1.689291  z =  1.545796 angstrom
           Maximum rank =  0   Radius =  0.650 angstrom
                   Q00  =  -0.250925

C          x = -0.624022  y =  0.363291  z = -0.205204 angstrom
           Maximum rank =  0   Radius =  0.650 angstrom
                   Q00  =  -0.128462

C          x = -1.018022  y =  0.702291  z = -1.503204 angstrom
           Maximum rank =  0   Radius =  0.650 angstrom
                   Q00  =  -0.063459

C          x =  0.749978  y =  0.171291  z =  0.050796 angstrom
           Maximum rank =  0   Radius =  0.650 angstrom
                   Q00  =   0.031929

C          x = -0.058022  y =  0.869291  z = -2.529204 angstrom
           Maximum rank =  0   Radius =  0.650 angstrom
                   Q00  =  -0.181602

C          x =  1.714978  y =  0.341291  z = -0.949204 angstrom
           Maximum rank =  0   Radius =  0.650 angstrom
                   Q00  =  -0.109106

C          x =  1.325978  y =  0.710291  z = -2.243204 angstrom
           Maximum rank =  0   Radius =  0.650 angstrom
                   Q00  =   0.311716

O          x =  2.317978  y =  0.982291  z = -3.169204 angstrom
           Maximum rank =  0   Radius =  0.650 angstrom
                   Q00  =  -0.677521

H          x = -1.315022  y = -0.400709  z =  1.672796 angstrom
           Maximum rank =  0   Radius =  0.325 angstrom
                   Q00  =   0.081806

H          x = -2.612022  y = -0.038709  z =  0.528796 angstrom
           Maximum rank =  0   Radius =  0.325 angstrom
                   Q00  =   0.061505

H          x = -2.376022  y =  2.330291  z =  0.776796 angstrom
           Maximum rank =  0   Radius =  0.325 angstrom
                   Q00  =   0.082281

H          x = -2.073022  y =  0.833291  z = -1.711204 angstrom
           Maximum rank =  0   Radius =  0.325 angstrom
                   Q00  =   0.071134

H          x =  1.059978  y = -0.111709  z =  1.046796 angstrom
           Maximum rank =  0   Radius =  0.325 angstrom
                   Q00  =   0.064651

H          x = -0.378022  y =  1.071291  z = -3.545204 angstrom
           Maximum rank =  0   Radius =  0.325 angstrom
                   Q00  =   0.078050

H          x =  2.762978  y =  0.193291  z = -0.730204 angstrom
           Maximum rank =  0   Radius =  0.325 angstrom
                   Q00  =   0.082211

H          x =  1.972978  y =  1.296291  z = -4.022204 angstrom
           Maximum rank =  0   Radius =  0.325 angstrom
                   Q00  =   0.411265

H          x = -0.996512  y =  2.134161  z =  1.908146 angstrom
           Maximum rank =  0   Radius =  0.325 angstrom
                   Q00  =   0.083320

H          x = -2.673012  y =  1.651591  z =  2.360626 angstrom
           Maximum rank =  0   Radius =  0.325 angstrom
                   Q00  =   0.081529

Total multipoles referred to origin at
           x =   0.000000,  y =    0.000000,  z =    0.000000 angstrom
                   Q00  =  -0.000000

Finished at 16:38:30 on 28 Apr 2020

  DMA results are available in the Python driver through the
	  variable('DMA DISTRIBUTED MULTIPOLES')
  and
	  variable('DMA TOTAL MULTIPOLES')
  commands.

    Psi4 stopped on: Tuesday, 28 April 2020 04:38PM
    Psi4 wall time for execution: 0:03:03.32

*** Psi4 exiting successfully. Buy a developer a beer!
