                               Psi4 1.3.2 release

  ==> Input File <==

--------------------------------------------------------------------------
import numpy as np
set {scf_type pk
basis cc-pvdz
d_convergence 10
gdma_switch   0
gdma_limit    0
gdma_origin   [ 0.0,  0.0,  0.0 ]
}
molecule test {
    units Angstrom
    0 1
    --
    0 1
    C                1.816043318033973     0.798546329156849    -1.271733361179212
    O                0.839043318033973     0.910546329156849    -0.241733361179212
    H                0.402043318033973     1.769546329156849    -0.362733361179212
    H                2.175043318033973     1.796546329156849    -1.522733361179212
    H                2.669873318033973     0.205886329156849    -0.911547361179212
    H                1.361363318033973     0.347446329156849    -2.166036361179212
    C               -1.598956681966026    -0.961453670843151     1.417266638820788
    O               -1.068956681966027    -0.843453670843151     0.105266638820788
    H               -0.287956681966027    -0.246453670843151     0.130266638820788
    H               -2.531956681966027    -1.521453670843151     1.363266638820789
    H               -1.817956681966027     0.026546329156849     1.824266638820788
    H               -0.906374681966027    -1.503163670843151     2.078236638820789

}
e, wfn = energy('scf', return_wfn=True)
gdma(wfn)
dmavals = variable('DMA DISTRIBUTED MULTIPOLES')
charges = np.array(dmavals)
print(charges)
np.save('SSI-123THR-136SER-1-dimer.npy', np.array(charges))--------------------------------------------------------------------------

*** tstart() called on ds3
*** at Mon Apr 27 23:26:44 2020

   => Loading Basis Set <=

    Name: CC-PVDZ
    Role: ORBITAL
    Keyword: BASIS
    atoms 1, 7      entry C          line   138 file /theoryfs2/ds/metcalf/miniconda2/envs/tf2gpu/share/psi4/basis/cc-pvdz.gbs
    atoms 2, 8      entry O          line   198 file /theoryfs2/ds/metcalf/miniconda2/envs/tf2gpu/share/psi4/basis/cc-pvdz.gbs
    atoms 3-6, 9-12 entry H          line    22 file /theoryfs2/ds/metcalf/miniconda2/envs/tf2gpu/share/psi4/basis/cc-pvdz.gbs

         ---------------------------------------------------------
                                   SCF
               by Justin Turney, Rob Parrish, Andy Simmonett
                          and Daniel G. A. Smith
                              RHF Reference
                        1 Threads,    500 MiB Core
         ---------------------------------------------------------

  ==> Geometry <==

    Molecular point group: c1
    Full point group: C1

    Geometry (in Angstrom), charge = 0, multiplicity = 1:

       Center              X                  Y                   Z               Mass
    ------------   -----------------  -----------------  -----------------  -----------------
         C            1.816043318034     0.798546329157    -1.271733361179    12.000000000000
         O            0.839043318034     0.910546329157    -0.241733361179    15.994914619570
         H            0.402043318034     1.769546329157    -0.362733361179     1.007825032230
         H            2.175043318034     1.796546329157    -1.522733361179     1.007825032230
         H            2.669873318034     0.205886329157    -0.911547361179     1.007825032230
         H            1.361363318034     0.347446329157    -2.166036361179     1.007825032230
         C           -1.598956681966    -0.961453670843     1.417266638821    12.000000000000
         O           -1.068956681966    -0.843453670843     0.105266638821    15.994914619570
         H           -0.287956681966    -0.246453670843     0.130266638821     1.007825032230
         H           -2.531956681966    -1.521453670843     1.363266638821     1.007825032230
         H           -1.817956681966     0.026546329157     1.824266638821     1.007825032230
         H           -0.906374681966    -1.503163670843     2.078236638821     1.007825032230

  Running in c1 symmetry.

  Rotational constants: A =      0.80945  B =      0.07459  C =      0.07146 [cm^-1]
  Rotational constants: A =  24266.71415  B =   2236.11838  C =   2142.37439 [MHz]
  Nuclear repulsion =  129.901003479359389

  Charge       = 0
  Multiplicity = 1
  Electrons    = 36
  Nalpha       = 18
  Nbeta        = 18

  ==> Algorithm <==

  SCF Algorithm Type is PK.
  DIIS enabled.
  MOM disabled.
  Fractional occupation disabled.
  Guess Type is SAD.
  Energy threshold   = 1.00e-06
  Density threshold  = 1.00e-10
  Integral threshold = 0.00e+00

  ==> Primary Basis <==

  Basis Set: CC-PVDZ
    Blend: CC-PVDZ
    Number of shells: 48
    Number of basis function: 96
    Number of Cartesian functions: 100
    Spherical Harmonics?: true
    Max angular momentum: 2

  ==> Pre-Iterations <==

   -------------------------------------------------------
    Irrep   Nso     Nmo     Nalpha   Nbeta   Ndocc  Nsocc
   -------------------------------------------------------
     A         96      96       0       0       0       0
   -------------------------------------------------------
    Total      96      96      18      18      18       0
   -------------------------------------------------------

  ==> Integral Setup <==

  Using in-core PK algorithm.
   Calculation information:
      Number of atoms:                  12
      Number of AO shells:              48
      Number of primitives:            128
      Number of atomic orbitals:       100
      Number of basis functions:        96

      Integral cutoff                 1.00e-12
      Number of threads:                 1

  Performing in-core PK
  Using 21682992 doubles for integral storage.
  We computed 591821 shell quartets total.
  Whereas there are 692076 unique shell quartets.

  ==> DiskJK: Disk-Based J/K Matrices <==

    J tasked:                  Yes
    K tasked:                  Yes
    wK tasked:                  No
    Memory [MiB]:              375
    Schwarz Cutoff:          1E-12

    OpenMP threads:              1

  Minimum eigenvalue in the overlap matrix is 1.5563698831E-02.
  Using Symmetric Orthogonalization.

  SCF Guess: Superposition of Atomic Densities via on-the-fly atomic UHF.

  ==> Iterations <==

                        Total Energy        Delta E     RMS |[F,P]|

   @RHF iter SAD:  -228.89624067577998   -2.28896e+02   0.00000e+00
   @RHF iter   1:  -229.97884106309786   -1.08260e+00   5.02938e-03 DIIS
   @RHF iter   2:  -230.07660558089245   -9.77645e-02   2.50887e-03 DIIS
   @RHF iter   3:  -230.09793944519882   -2.13339e-02   4.65336e-04 DIIS
   @RHF iter   4:  -230.09938133755603   -1.44189e-03   1.11670e-04 DIIS
   @RHF iter   5:  -230.09946299103936   -8.16535e-05   2.92391e-05 DIIS
   @RHF iter   6:  -230.09946925941429   -6.26837e-06   6.91499e-06 DIIS
   @RHF iter   7:  -230.09946981612364   -5.56709e-07   1.60816e-06 DIIS
   @RHF iter   8:  -230.09946984542560   -2.93020e-08   6.23523e-07 DIIS
   @RHF iter   9:  -230.09946984775269   -2.32708e-09   1.42552e-07 DIIS
   @RHF iter  10:  -230.09946984793351   -1.80819e-10   2.82459e-08 DIIS
   @RHF iter  11:  -230.09946984794294   -9.43601e-12   8.33775e-09 DIIS
   @RHF iter  12:  -230.09946984794300   -5.68434e-14   2.38746e-09 DIIS
   @RHF iter  13:  -230.09946984794379   -7.95808e-13   5.71248e-10 DIIS
   @RHF iter  14:  -230.09946984794340    3.97904e-13   1.83374e-10 DIIS
   @RHF iter  15:  -230.09946984794303    3.69482e-13   7.55889e-11 DIIS
  Energy and wave function converged.

  ==> Post-Iterations <==

    Orbital Energies [Eh]
    ---------------------

    Doubly Occupied:

       1A    -20.583203     2A    -20.500768     3A    -11.295388
       4A    -11.249644     5A     -1.383646     6A     -1.302928
       7A     -0.940444     8A     -0.891997     9A     -0.713895
      10A     -0.665466    11A     -0.633730    12A     -0.602637
      13A     -0.586540    14A     -0.555261    15A     -0.522178
      16A     -0.475857    17A     -0.447064    18A     -0.404862

    Virtual:

      19A      0.164036    20A      0.201188    21A      0.220997
      22A      0.253477    23A      0.258787    24A      0.284208
      25A      0.286093    26A      0.326186    27A      0.355665
      28A      0.456210    29A      0.610183    30A      0.626492
      31A      0.660934    32A      0.668133    33A      0.700859
      34A      0.768909    35A      0.798693    36A      0.837196
      37A      0.845009    38A      0.869921    39A      0.884385
      40A      0.886780    41A      0.914331    42A      0.935901
      43A      1.100532    44A      1.119059    45A      1.150739
      46A      1.165147    47A      1.177592    48A      1.216602
      49A      1.257228    50A      1.285102    51A      1.385239
      52A      1.433148    53A      1.463726    54A      1.603114
      55A      1.623355    56A      1.651595    57A      1.680289
      58A      1.694319    59A      1.728141    60A      1.755771
      61A      1.852979    62A      1.878264    63A      1.890537
      64A      1.909948    65A      1.928739    66A      1.937059
      67A      1.969241    68A      1.984066    69A      2.029471
      70A      2.083907    71A      2.099870    72A      2.194599
      73A      2.270456    74A      2.327865    75A      2.353305
      76A      2.379109    77A      2.401614    78A      2.452195
      79A      2.467255    80A      2.703276    81A      2.730235
      82A      2.743151    83A      2.769022    84A      2.774004
      85A      2.789434    86A      2.849528    87A      3.314335
      88A      3.336657    89A      3.387728    90A      3.420558
      91A      3.451624    92A      3.500191    93A      3.553100
      94A      3.644315    95A      4.055439    96A      4.186218

    Final Occupation by Irrep:
              A
    DOCC [    18 ]

  @RHF Final Energy:  -230.09946984794303

   => Energetics <=

    Nuclear Repulsion Energy =            129.9010034793593888
    One-Electron Energy =                -572.4899310139046520
    Two-Electron Energy =                 212.4894576866022646
    Total Energy =                       -230.0994698479430269

Computation Completed

Properties will be evaluated at   0.000000,   0.000000,   0.000000 [a0]

Properties computed using the SCF density matrix

  Nuclear Dipole Moment: [e a0]
     X:     0.9964      Y:     0.8205      Z:     0.4053

  Electronic Dipole Moment: [e a0]
     X:    -0.2509      Y:     0.2456      Z:    -0.5694

  Dipole Moment: [e a0]
     X:     0.7456      Y:     1.0661      Z:    -0.1641     Total:     1.3113

  Dipole Moment: [D]
     X:     1.8950      Y:     2.7098      Z:    -0.4171     Total:     3.3329

*** tstop() called on ds3 at Mon Apr 27 23:26:50 2020
Module time:
	user time   =       5.25 seconds =       0.09 minutes
	system time =       0.11 seconds =       0.00 minutes
	total time  =          6 seconds =       0.10 minutes
Total time:
	user time   =       5.25 seconds =       0.09 minutes
	system time =       0.11 seconds =       0.00 minutes
	total time  =          6 seconds =       0.10 minutes
                                     G D M A

                                 by Anthony Stone

                           version 2.2.06, 22 June 2011

               Distributed Multipoles from Gaussian wavefunctions

Starting at 23:26:50 on 27 Apr 2020

Using SCF density matrix from file ./SSI/SSI-123THR-136SER-1-dimer.test.2839.fchk

                         Distributed Multipole Analysis

Standard DMA

Positions and radii in angstrom
Multipole moments in atomic units, ea_0^k for rank k

C          x =  1.816043  y =  0.798546  z = -1.271733 angstrom
           Maximum rank =  0   Radius =  0.650 angstrom
                   Q00  =  -0.061801

O          x =  0.839043  y =  0.910546  z = -0.241733 angstrom
           Maximum rank =  0   Radius =  0.650 angstrom
                   Q00  =  -0.627956

H          x =  0.402043  y =  1.769546  z = -0.362733 angstrom
           Maximum rank =  0   Radius =  0.325 angstrom
                   Q00  =   0.410134

H          x =  2.175043  y =  1.796546  z = -1.522733 angstrom
           Maximum rank =  0   Radius =  0.325 angstrom
                   Q00  =   0.085777

H          x =  2.669873  y =  0.205886  z = -0.911547 angstrom
           Maximum rank =  0   Radius =  0.325 angstrom
                   Q00  =   0.119532

H          x =  1.361363  y =  0.347446  z = -2.166036 angstrom
           Maximum rank =  0   Radius =  0.325 angstrom
                   Q00  =   0.093915

C          x = -1.598957  y = -0.961454  z =  1.417267 angstrom
           Maximum rank =  0   Radius =  0.650 angstrom
                   Q00  =  -0.027695

O          x = -1.068957  y = -0.843454  z =  0.105267 angstrom
           Maximum rank =  0   Radius =  0.650 angstrom
                   Q00  =  -0.688395

H          x = -0.287957  y = -0.246454  z =  0.130267 angstrom
           Maximum rank =  0   Radius =  0.325 angstrom
                   Q00  =   0.493780

H          x = -2.531957  y = -1.521454  z =  1.363267 angstrom
           Maximum rank =  0   Radius =  0.325 angstrom
                   Q00  =   0.097641

H          x = -1.817957  y =  0.026546  z =  1.824267 angstrom
           Maximum rank =  0   Radius =  0.325 angstrom
                   Q00  =   0.050827

H          x = -0.906375  y = -1.503164  z =  2.078237 angstrom
           Maximum rank =  0   Radius =  0.325 angstrom
                   Q00  =   0.054241

Total multipoles referred to origin at
           x =   0.000000,  y =    0.000000,  z =    0.000000 angstrom
                   Q00  =  -0.000000

Finished at 23:26:50 on 27 Apr 2020

  DMA results are available in the Python driver through the
	  variable('DMA DISTRIBUTED MULTIPOLES')
  and
	  variable('DMA TOTAL MULTIPOLES')
  commands.

    Psi4 stopped on: Monday, 27 April 2020 11:26PM
    Psi4 wall time for execution: 0:00:05.65

*** Psi4 exiting successfully. Buy a developer a beer!
