                               Psi4 1.3.2 release

  ==> Input File <==

--------------------------------------------------------------------------
import numpy as np
set {scf_type pk
basis cc-pvdz
d_convergence 10
gdma_switch   0
gdma_limit    0
gdma_origin   [ 0.0,  0.0,  0.0 ]
}
molecule test {
    units Angstrom
    0 1
    --
    0 1
    C                1.871216335651095     0.491604462204967    -1.149026772002792
    C                1.351216335651095    -0.760395537795033    -1.861026772002792
    H                2.959216335651095     0.531604462204967    -1.193026772002792
    H                1.467216335651095     1.375604462204967    -1.642026772002792
    H                1.550216335651095     0.490604462204967    -0.107026772002792
    H                0.263216335651095    -0.717395537795033    -1.817026772002792
    H                1.664356335651095    -1.670644537795033    -1.328686772002792
    H                1.633556335651095    -0.770479537795033    -2.924126772002792
    C               -1.384783664348905    -0.133395537795033     0.824973227997208
    C               -1.833783664348905     0.395604462204967     2.182973227997208
    H               -2.096783664348905    -0.869395537795033     0.449973227997208
    H               -1.316783664348905     0.690604462204967     0.114973227997208
    H               -0.404783664348905    -0.601395537795033     0.917973227997208
    H               -1.132783664348905     1.176604462204967     2.485973227997207
    H               -1.799083664348905    -0.409233537795033     2.931993227997208
    H               -2.833583664348906     0.851894462204967     2.136123227997208

}
e, wfn = energy('scf', return_wfn=True)
gdma(wfn)
dmavals = variable('DMA DISTRIBUTED MULTIPOLES')
charges = np.array(dmavals)
print(charges)
np.save('SSI-164VAL-171ALA-1-dimer.npy', np.array(charges))--------------------------------------------------------------------------

*** tstart() called on ds3
*** at Mon Apr 27 08:00:25 2020

   => Loading Basis Set <=

    Name: CC-PVDZ
    Role: ORBITAL
    Keyword: BASIS
    atoms 1-2, 9-10  entry C          line   138 file /theoryfs2/ds/metcalf/miniconda2/envs/tf2gpu/share/psi4/basis/cc-pvdz.gbs
    atoms 3-8, 11-16 entry H          line    22 file /theoryfs2/ds/metcalf/miniconda2/envs/tf2gpu/share/psi4/basis/cc-pvdz.gbs

         ---------------------------------------------------------
                                   SCF
               by Justin Turney, Rob Parrish, Andy Simmonett
                          and Daniel G. A. Smith
                              RHF Reference
                        1 Threads,    500 MiB Core
         ---------------------------------------------------------

  ==> Geometry <==

    Molecular point group: c1
    Full point group: C1

    Geometry (in Angstrom), charge = 0, multiplicity = 1:

       Center              X                  Y                   Z               Mass
    ------------   -----------------  -----------------  -----------------  -----------------
         C            1.871216335651     0.491604462205    -1.149026772003    12.000000000000
         C            1.351216335651    -0.760395537795    -1.861026772003    12.000000000000
         H            2.959216335651     0.531604462205    -1.193026772003     1.007825032230
         H            1.467216335651     1.375604462205    -1.642026772003     1.007825032230
         H            1.550216335651     0.490604462205    -0.107026772003     1.007825032230
         H            0.263216335651    -0.717395537795    -1.817026772003     1.007825032230
         H            1.664356335651    -1.670644537795    -1.328686772003     1.007825032230
         H            1.633556335651    -0.770479537795    -2.924126772003     1.007825032230
         C           -1.384783664349    -0.133395537795     0.824973227997    12.000000000000
         C           -1.833783664349     0.395604462205     2.182973227997    12.000000000000
         H           -2.096783664349    -0.869395537795     0.449973227997     1.007825032230
         H           -1.316783664349     0.690604462205     0.114973227997     1.007825032230
         H           -0.404783664349    -0.601395537795     0.917973227997     1.007825032230
         H           -1.132783664349     1.176604462205     2.485973227997     1.007825032230
         H           -1.799083664349    -0.409233537795     2.931993227997     1.007825032230
         H           -2.833583664349     0.851894462205     2.136123227997     1.007825032230

  Running in c1 symmetry.

  Rotational constants: A =      0.46498  B =      0.05278  C =      0.04934 [cm^-1]
  Rotational constants: A =  13939.65226  B =   1582.28809  C =   1479.25958 [MHz]
  Nuclear repulsion =  123.433518060730776

  Charge       = 0
  Multiplicity = 1
  Electrons    = 36
  Nalpha       = 18
  Nbeta        = 18

  ==> Algorithm <==

  SCF Algorithm Type is PK.
  DIIS enabled.
  MOM disabled.
  Fractional occupation disabled.
  Guess Type is SAD.
  Energy threshold   = 1.00e-06
  Density threshold  = 1.00e-10
  Integral threshold = 0.00e+00

  ==> Primary Basis <==

  Basis Set: CC-PVDZ
    Blend: CC-PVDZ
    Number of shells: 60
    Number of basis function: 116
    Number of Cartesian functions: 120
    Spherical Harmonics?: true
    Max angular momentum: 2

  ==> Pre-Iterations <==

   -------------------------------------------------------
    Irrep   Nso     Nmo     Nalpha   Nbeta   Ndocc  Nsocc
   -------------------------------------------------------
     A        116     116       0       0       0       0
   -------------------------------------------------------
    Total     116     116      18      18      18       0
   -------------------------------------------------------

  ==> Integral Setup <==

  Using integral reordering PK algorithm.
  Sizing the integral batches needed.
  Building batch lookup table.
   Calculation information:
      Number of atoms:                  16
      Number of AO shells:              60
      Number of primitives:            148
      Number of atomic orbitals:       120
      Number of basis functions:       116

      Integral cutoff                 1.00e-12
      Number of threads:                 1

	Batch   1 pq = [       0,    6786] index = [             0,23028291] size =     23028291
  Task number: 3
  Buffer size: 11059200
  Buffer per thread: 2
  We computed 1470025 shell quartets total.
  Whereas there are 1675365 unique shell quartets.

  ==> DiskJK: Disk-Based J/K Matrices <==

    J tasked:                  Yes
    K tasked:                  Yes
    wK tasked:                  No
    Memory [MiB]:              375
    Schwarz Cutoff:          1E-12

    OpenMP threads:              1

  Minimum eigenvalue in the overlap matrix is 6.9310106335E-03.
  Using Symmetric Orthogonalization.

  SCF Guess: Superposition of Atomic Densities via on-the-fly atomic UHF.

  ==> Iterations <==

                        Total Energy        Delta E     RMS |[F,P]|

   @RHF iter SAD:  -157.35097684077513   -1.57351e+02   0.00000e+00
   @RHF iter   1:  -158.30737761345992   -9.56401e-01   4.21019e-03 DIIS
   @RHF iter   2:  -158.44081832449129   -1.33441e-01   1.79384e-03 DIIS
   @RHF iter   3:  -158.46418252870015   -2.33642e-02   3.49453e-04 DIIS
   @RHF iter   4:  -158.46601533852447   -1.83281e-03   3.85096e-05 DIIS
   @RHF iter   5:  -158.46603875423611   -2.34157e-05   6.21386e-06 DIIS
   @RHF iter   6:  -158.46603934913807   -5.94902e-07   8.50461e-07 DIIS
   @RHF iter   7:  -158.46603935741862   -8.28055e-09   2.72902e-07 DIIS
   @RHF iter   8:  -158.46603935806968   -6.51056e-10   4.68964e-08 DIIS
   @RHF iter   9:  -158.46603935810572   -3.60387e-11   9.58400e-09 DIIS
   @RHF iter  10:  -158.46603935810782   -2.10321e-12   2.73143e-09 DIIS
   @RHF iter  11:  -158.46603935810742    3.97904e-13   7.38071e-10 DIIS
   @RHF iter  12:  -158.46603935810728    1.42109e-13   1.54764e-10 DIIS
   @RHF iter  13:  -158.46603935810703    2.55795e-13   2.77627e-11 DIIS
  Energy and wave function converged.

  ==> Post-Iterations <==

    Orbital Energies [Eh]
    ---------------------

    Doubly Occupied:

       1A    -11.219832     2A    -11.218409     3A    -11.217573
       4A    -11.216486     5A     -1.020550     6A     -1.016473
       7A     -0.837043     8A     -0.835923     9A     -0.603930
      10A     -0.600603    11A     -0.596711    12A     -0.591711
      13A     -0.502735    14A     -0.498048    15A     -0.490108
      16A     -0.487715    17A     -0.482934    18A     -0.480420

    Virtual:

      19A      0.171590    20A      0.196751    21A      0.227405
      22A      0.229323    23A      0.244848    24A      0.260295
      25A      0.264002    26A      0.272026    27A      0.276666
      28A      0.291560    29A      0.308361    30A      0.342945
      31A      0.387780    32A      0.416832    33A      0.573073
      34A      0.598056    35A      0.601617    36A      0.604713
      37A      0.607360    38A      0.636934    39A      0.661559
      40A      0.685571    41A      0.720366    42A      0.773794
      43A      0.843526    44A      0.863875    45A      0.878065
      46A      0.890913    47A      0.892365    48A      0.896721
      49A      0.901921    50A      0.906620    51A      0.915222
      52A      0.923631    53A      0.948714    54A      0.965318
      55A      0.971269    56A      1.002139    57A      1.124205
      58A      1.126065    59A      1.129407    60A      1.147113
      61A      1.236732    62A      1.247977    63A      1.460829
      64A      1.471366    65A      1.479036    66A      1.486287
      67A      1.572864    68A      1.589959    69A      1.679197
      70A      1.680784    71A      1.692416    72A      1.697590
      73A      1.848229    74A      1.858614    75A      1.875462
      76A      1.884030    77A      1.896265    78A      1.908579
      79A      1.934202    80A      1.939957    81A      1.943021
      82A      1.950712    83A      1.955084    84A      1.958611
      85A      1.969693    86A      1.971020    87A      1.983175
      88A      2.037421    89A      2.086391    90A      2.095482
      91A      2.119685    92A      2.135733    93A      2.293332
      94A      2.301133    95A      2.310455    96A      2.327375
      97A      2.441132    98A      2.455228    99A      2.466304
     100A      2.472632   101A      2.556880   102A      2.558651
     103A      2.575225   104A      2.582585   105A      2.757114
     106A      2.764567   107A      2.787991   108A      2.797288
     109A      2.841679   110A      2.843100   111A      2.864971
     112A      2.869063   113A      2.936467   114A      2.952111
     115A      2.959294   116A      2.969065

    Final Occupation by Irrep:
              A
    DOCC [    18 ]

  @RHF Final Energy:  -158.46603935810703

   => Energetics <=

    Nuclear Repulsion Energy =            123.4335180607307763
    One-Electron Energy =                -455.9647090172267099
    Two-Electron Energy =                 174.0651515983889226
    Total Energy =                       -158.4660393581070252

Computation Completed

Properties will be evaluated at   0.000000,   0.000000,   0.000000 [a0]

Properties computed using the SCF density matrix

  Nuclear Dipole Moment: [e a0]
     X:    -0.0431      Y:     0.0735      Z:     0.0235

  Electronic Dipole Moment: [e a0]
     X:     0.0260      Y:    -0.0621      Z:    -0.0198

  Dipole Moment: [e a0]
     X:    -0.0171      Y:     0.0114      Z:     0.0037     Total:     0.0209

  Dipole Moment: [D]
     X:    -0.0436      Y:     0.0289      Z:     0.0093     Total:     0.0531

*** tstop() called on ds3 at Mon Apr 27 08:00:42 2020
Module time:
	user time   =       8.21 seconds =       0.14 minutes
	system time =       2.54 seconds =       0.04 minutes
	total time  =         17 seconds =       0.28 minutes
Total time:
	user time   =       8.21 seconds =       0.14 minutes
	system time =       2.54 seconds =       0.04 minutes
	total time  =         17 seconds =       0.28 minutes
                                     G D M A

                                 by Anthony Stone

                           version 2.2.06, 22 June 2011

               Distributed Multipoles from Gaussian wavefunctions

Starting at 8:0:42 on 27 Apr 2020

Using SCF density matrix from file ./SSI/SSI-164VAL-171ALA-1-dimer.test.450.fchk

                         Distributed Multipole Analysis

Standard DMA

Positions and radii in angstrom
Multipole moments in atomic units, ea_0^k for rank k

C          x =  1.871216  y =  0.491604  z = -1.149027 angstrom
           Maximum rank =  0   Radius =  0.650 angstrom
                   Q00  =  -0.236175

C          x =  1.351216  y = -0.760396  z = -1.861027 angstrom
           Maximum rank =  0   Radius =  0.650 angstrom
                   Q00  =  -0.239467

H          x =  2.959216  y =  0.531604  z = -1.193027 angstrom
           Maximum rank =  0   Radius =  0.325 angstrom
                   Q00  =   0.078105

H          x =  1.467216  y =  1.375604  z = -1.642027 angstrom
           Maximum rank =  0   Radius =  0.325 angstrom
                   Q00  =   0.078055

H          x =  1.550216  y =  0.490604  z = -0.107027 angstrom
           Maximum rank =  0   Radius =  0.325 angstrom
                   Q00  =   0.080843

H          x =  0.263216  y = -0.717396  z = -1.817027 angstrom
           Maximum rank =  0   Radius =  0.325 angstrom
                   Q00  =   0.077393

H          x =  1.664356  y = -1.670645  z = -1.328687 angstrom
           Maximum rank =  0   Radius =  0.325 angstrom
                   Q00  =   0.079401

H          x =  1.633556  y = -0.770480  z = -2.924127 angstrom
           Maximum rank =  0   Radius =  0.325 angstrom
                   Q00  =   0.081798

C          x = -1.384784  y = -0.133396  z =  0.824973 angstrom
           Maximum rank =  0   Radius =  0.650 angstrom
                   Q00  =  -0.233222

C          x = -1.833784  y =  0.395604  z =  2.182973 angstrom
           Maximum rank =  0   Radius =  0.650 angstrom
                   Q00  =  -0.239377

H          x = -2.096784  y = -0.869396  z =  0.449973 angstrom
           Maximum rank =  0   Radius =  0.325 angstrom
                   Q00  =   0.078805

H          x = -1.316784  y =  0.690604  z =  0.114973 angstrom
           Maximum rank =  0   Radius =  0.325 angstrom
                   Q00  =   0.077950

H          x = -0.404784  y = -0.601396  z =  0.917973 angstrom
           Maximum rank =  0   Radius =  0.325 angstrom
                   Q00  =   0.079365

H          x = -1.132784  y =  1.176604  z =  2.485973 angstrom
           Maximum rank =  0   Radius =  0.325 angstrom
                   Q00  =   0.075883

H          x = -1.799084  y = -0.409234  z =  2.931993 angstrom
           Maximum rank =  0   Radius =  0.325 angstrom
                   Q00  =   0.079437

H          x = -2.833584  y =  0.851894  z =  2.136123 angstrom
           Maximum rank =  0   Radius =  0.325 angstrom
                   Q00  =   0.081205

Total multipoles referred to origin at
           x =   0.000000,  y =    0.000000,  z =    0.000000 angstrom
                   Q00  =  -0.000000

Finished at 8:0:42 on 27 Apr 2020

  DMA results are available in the Python driver through the
	  variable('DMA DISTRIBUTED MULTIPOLES')
  and
	  variable('DMA TOTAL MULTIPOLES')
  commands.

    Psi4 stopped on: Monday, 27 April 2020 08:00AM
    Psi4 wall time for execution: 0:00:17.14

*** Psi4 exiting successfully. Buy a developer a beer!
