                               Psi4 1.3.2 release

  ==> Input File <==

--------------------------------------------------------------------------
import numpy as np
set {scf_type pk
basis cc-pvdz
d_convergence 10
gdma_switch   0
gdma_limit    0
gdma_origin   [ 0.0,  0.0,  0.0 ]
}
molecule test {
    units Angstrom
    0 1
    --
    0 1
    C                0.397968587613445     2.560109488446721    -0.652380688128675
    C               -0.384031412386555     3.319109488446721    -1.716380688128675
    H               -0.291031412386555     2.068109488446721     0.033619311871325
    H                1.029968587613445     1.803109488446721    -1.114380688128675
    H                1.026968587613446     3.255109488446720    -0.095380688128675
    H                0.330968587613445     3.872109488446721    -2.323380688128675
    H               -1.085021412386554     4.021549488446721    -1.241839688128675
    H               -0.930891412386555     2.622519488446720    -2.368845688128675
    C                0.196968587613445    -0.512890511553280     3.236619311871325
    C               -1.243031412386554    -0.671890511553280    -0.281380688128675
    C               -0.107031412386555    -0.956890511553280    -1.030380688128675
    C               -1.143031412386555    -0.527890511553280     1.099619311871325
    C                0.082968587613445    -0.677890511553280     1.742619311871325
    C                1.123968587613446    -1.098890511553280    -0.401380688128675
    C                1.214968587613446    -0.955890511553280     0.978619311871325
    O               -0.195031412386555    -1.093890511553280    -2.380380688128675
    H               -2.189031412386555    -0.550890511553280    -0.785380688128675
    H               -2.025031412386555    -0.290890511553280     1.678619311871325
    H                2.011968587613445    -1.307890511553280    -0.973380688128675
    H                0.662968587613445    -1.271890511553279    -2.764380688128675
    H                0.928968587613445    -1.230890511553279     3.603619311871325
    H               -0.754031412386555    -0.743890511553280     3.719619311871325
    H                2.174968587613445    -1.059890511553280     1.467619311871325
    H                0.539958587613445     0.495179488446720     3.512594311871325

}
e, wfn = energy('scf', return_wfn=True)
gdma(wfn)
dmavals = variable('DMA DISTRIBUTED MULTIPOLES')
charges = np.array(dmavals)
print(charges)
np.save('SSI-120LEU-171TYR-2-dimer.npy', np.array(charges))--------------------------------------------------------------------------

*** tstart() called on ds3
*** at Tue Apr 28 20:40:05 2020

   => Loading Basis Set <=

    Name: CC-PVDZ
    Role: ORBITAL
    Keyword: BASIS
    atoms 1-2, 9-15  entry C          line   138 file /theoryfs2/ds/metcalf/miniconda2/envs/tf2gpu/share/psi4/basis/cc-pvdz.gbs
    atoms 3-8, 17-24 entry H          line    22 file /theoryfs2/ds/metcalf/miniconda2/envs/tf2gpu/share/psi4/basis/cc-pvdz.gbs
    atoms 16         entry O          line   198 file /theoryfs2/ds/metcalf/miniconda2/envs/tf2gpu/share/psi4/basis/cc-pvdz.gbs

         ---------------------------------------------------------
                                   SCF
               by Justin Turney, Rob Parrish, Andy Simmonett
                          and Daniel G. A. Smith
                              RHF Reference
                        1 Threads,    500 MiB Core
         ---------------------------------------------------------

  ==> Geometry <==

    Molecular point group: c1
    Full point group: C1

    Geometry (in Angstrom), charge = 0, multiplicity = 1:

       Center              X                  Y                   Z               Mass
    ------------   -----------------  -----------------  -----------------  -----------------
         C            0.397968587613     2.560109488447    -0.652380688129    12.000000000000
         C           -0.384031412387     3.319109488447    -1.716380688129    12.000000000000
         H           -0.291031412387     2.068109488447     0.033619311871     1.007825032230
         H            1.029968587613     1.803109488447    -1.114380688129     1.007825032230
         H            1.026968587613     3.255109488447    -0.095380688129     1.007825032230
         H            0.330968587613     3.872109488447    -2.323380688129     1.007825032230
         H           -1.085021412387     4.021549488447    -1.241839688129     1.007825032230
         H           -0.930891412387     2.622519488447    -2.368845688129     1.007825032230
         C            0.196968587613    -0.512890511553     3.236619311871    12.000000000000
         C           -1.243031412387    -0.671890511553    -0.281380688129    12.000000000000
         C           -0.107031412387    -0.956890511553    -1.030380688129    12.000000000000
         C           -1.143031412387    -0.527890511553     1.099619311871    12.000000000000
         C            0.082968587613    -0.677890511553     1.742619311871    12.000000000000
         C            1.123968587613    -1.098890511553    -0.401380688129    12.000000000000
         C            1.214968587613    -0.955890511553     0.978619311871    12.000000000000
         O           -0.195031412387    -1.093890511553    -2.380380688129    15.994914619570
         H           -2.189031412387    -0.550890511553    -0.785380688129     1.007825032230
         H           -2.025031412387    -0.290890511553     1.678619311871     1.007825032230
         H            2.011968587613    -1.307890511553    -0.973380688129     1.007825032230
         H            0.662968587613    -1.271890511553    -2.764380688129     1.007825032230
         H            0.928968587613    -1.230890511553     3.603619311871     1.007825032230
         H           -0.754031412387    -0.743890511553     3.719619311871     1.007825032230
         H            2.174968587613    -1.059890511553     1.467619311871     1.007825032230
         H            0.539958587613     0.495179488447     3.512594311871     1.007825032230

  Running in c1 symmetry.

  Rotational constants: A =      0.04665  B =      0.02908  C =      0.02241 [cm^-1]
  Rotational constants: A =   1398.55367  B =    871.85869  C =    671.80168 [MHz]
  Nuclear repulsion =  510.114665625968541

  Charge       = 0
  Multiplicity = 1
  Electrons    = 76
  Nalpha       = 38
  Nbeta        = 38

  ==> Algorithm <==

  SCF Algorithm Type is PK.
  DIIS enabled.
  MOM disabled.
  Fractional occupation disabled.
  Guess Type is SAD.
  Energy threshold   = 1.00e-06
  Density threshold  = 1.00e-10
  Integral threshold = 0.00e+00

  ==> Primary Basis <==

  Basis Set: CC-PVDZ
    Blend: CC-PVDZ
    Number of shells: 102
    Number of basis function: 210
    Number of Cartesian functions: 220
    Spherical Harmonics?: true
    Max angular momentum: 2

  ==> Pre-Iterations <==

   -------------------------------------------------------
    Irrep   Nso     Nmo     Nalpha   Nbeta   Ndocc  Nsocc
   -------------------------------------------------------
     A        210     210       0       0       0       0
   -------------------------------------------------------
    Total     210     210      38      38      38       0
   -------------------------------------------------------

  ==> Integral Setup <==

  Using integral reordering PK algorithm.
  Sizing the integral batches needed.
  Building batch lookup table.
   Calculation information:
      Number of atoms:                  24
      Number of AO shells:             102
      Number of primitives:            290
      Number of atomic orbitals:       220
      Number of basis functions:       210

      Integral cutoff                 1.00e-12
      Number of threads:                 1

	Batch   1 pq = [       0,    9405] index = [             0,44231715] size =     44231715
	Batch   2 pq = [    9405,   13301] index = [      44231715,88464951] size =     44233236
	Batch   3 pq = [   13301,   16290] index = [      88464951,132690195] size =     44225244
	Batch   4 pq = [   16290,   18810] index = [     132690195,176917455] size =     44227260
	Batch   5 pq = [   18810,   21030] index = [     176917455,221140965] size =     44223510
	Batch   6 pq = [   21030,   22155] index = [     221140965,245433090] size =     24292125
  Task number: 23
  Buffer size: 11059200
  Buffer per thread: 2
  We computed 13143295 shell quartets total.
  Whereas there are 13799631 unique shell quartets.

  ==> DiskJK: Disk-Based J/K Matrices <==

    J tasked:                  Yes
    K tasked:                  Yes
    wK tasked:                  No
    Memory [MiB]:              375
    Schwarz Cutoff:          1E-12

    OpenMP threads:              1

  Minimum eigenvalue in the overlap matrix is 3.1957140701E-04.
  Using Symmetric Orthogonalization.

  SCF Guess: Superposition of Atomic Densities via on-the-fly atomic UHF.

  ==> Iterations <==

                        Total Energy        Delta E     RMS |[F,P]|

   @RHF iter SAD:  -422.73982001327045   -4.22740e+02   0.00000e+00
   @RHF iter   1:  -423.59991853451146   -8.60099e-01   2.99276e-03 DIIS
   @RHF iter   2:  -423.81753686654451   -2.17618e-01   1.26108e-03 DIIS
   @RHF iter   3:  -423.85263707239687   -3.51002e-02   2.81194e-04 DIIS
   @RHF iter   4:  -423.85546587876644   -2.82881e-03   1.14867e-04 DIIS
   @RHF iter   5:  -423.85580380873063   -3.37930e-04   2.08291e-05 DIIS
   @RHF iter   6:  -423.85582123628092   -1.74276e-05   6.41715e-06 DIIS
   @RHF iter   7:  -423.85582283503027   -1.59875e-06   2.02245e-06 DIIS
   @RHF iter   8:  -423.85582304542106   -2.10391e-07   7.66842e-07 DIIS
   @RHF iter   9:  -423.85582307849864   -3.30776e-08   2.96704e-07 DIIS
   @RHF iter  10:  -423.85582308454445   -6.04581e-09   1.23470e-07 DIIS
   @RHF iter  11:  -423.85582308627147   -1.72702e-09   5.72014e-08 DIIS
   @RHF iter  12:  -423.85582308665442   -3.82954e-10   2.84973e-08 DIIS
   @RHF iter  13:  -423.85582308673315   -7.87281e-11   8.05908e-09 DIIS
   @RHF iter  14:  -423.85582308674026   -7.10543e-12   2.20076e-09 DIIS
   @RHF iter  15:  -423.85582308674407   -3.80851e-12   6.66502e-10 DIIS
   @RHF iter  16:  -423.85582308673952    4.54747e-12   2.06194e-10 DIIS
   @RHF iter  17:  -423.85582308674395   -4.43379e-12   7.83222e-11 DIIS
  Energy and wave function converged.

  ==> Post-Iterations <==

    Orbital Energies [Eh]
    ---------------------

    Doubly Occupied:

       1A    -20.583722     2A    -11.298546     3A    -11.238999
       4A    -11.238058     5A    -11.232971     6A    -11.232794
       7A    -11.229686     8A    -11.228132     9A    -11.209285
      10A    -11.202578    11A     -1.403776    12A     -1.152269
      13A     -1.038216    14A     -1.019205    15A     -1.008849
      16A     -0.926680    17A     -0.845977    18A     -0.824787
      19A     -0.803105    20A     -0.733685    21A     -0.669741
      22A     -0.642470    23A     -0.607318    24A     -0.595341
      25A     -0.589221    26A     -0.588006    27A     -0.581616
      28A     -0.571242    29A     -0.569150    30A     -0.527274
      31A     -0.498084    32A     -0.490998    33A     -0.485473
      34A     -0.479243    35A     -0.475751    36A     -0.459932
      37A     -0.339378    38A     -0.301671

    Virtual:

      39A      0.128280    40A      0.155518    41A      0.172403
      42A      0.184587    43A      0.199931    44A      0.215310
      45A      0.223340    46A      0.247109    47A      0.252321
      48A      0.264354    49A      0.269576    50A      0.278169
      51A      0.285083    52A      0.288245    53A      0.304876
      54A      0.319492    55A      0.369304    56A      0.374794
      57A      0.404417    58A      0.431523    59A      0.454634
      60A      0.481886    61A      0.497187    62A      0.505943
      63A      0.582861    64A      0.588105    65A      0.608709
      66A      0.613355    67A      0.636153    68A      0.646013
      69A      0.659052    70A      0.667448    71A      0.681276
      72A      0.687994    73A      0.709783    74A      0.734814
      75A      0.737076    76A      0.762486    77A      0.767302
      78A      0.780455    79A      0.786320    80A      0.812659
      81A      0.830156    82A      0.840278    83A      0.849972
      84A      0.874812    85A      0.876571    86A      0.879609
      87A      0.890328    88A      0.897724    89A      0.902088
      90A      0.905714    91A      0.910197    92A      0.922480
      93A      0.928292    94A      0.937842    95A      0.941792
      96A      0.943825    97A      0.969379    98A      0.986835
      99A      1.005173   100A      1.017535   101A      1.048174
     102A      1.066741   103A      1.126247   104A      1.133364
     105A      1.137163   106A      1.144467   107A      1.166242
     108A      1.180019   109A      1.213340   110A      1.239029
     111A      1.246731   112A      1.265844   113A      1.276383
     114A      1.294358   115A      1.306159   116A      1.311766
     117A      1.315857   118A      1.354442   119A      1.364296
     120A      1.385505   121A      1.478849   122A      1.490280
     123A      1.497993   124A      1.507172   125A      1.528101
     126A      1.562650   127A      1.584835   128A      1.611754
     129A      1.641631   130A      1.680201   131A      1.688786
     132A      1.699593   133A      1.707833   134A      1.743234
     135A      1.748660   136A      1.788686   137A      1.807426
     138A      1.814102   139A      1.871974   140A      1.874870
     141A      1.879452   142A      1.895985   143A      1.897786
     144A      1.911952   145A      1.914668   146A      1.919278
     147A      1.931501   148A      1.946485   149A      1.961094
     150A      1.963942   151A      1.967284   152A      1.969935
     153A      1.973598   154A      1.988526   155A      1.992123
     156A      2.011535   157A      2.045346   158A      2.058767
     159A      2.065676   160A      2.069225   161A      2.075175
     162A      2.111261   163A      2.135352   164A      2.144950
     165A      2.151741   166A      2.172376   167A      2.211792
     168A      2.233941   169A      2.263328   170A      2.275505
     171A      2.296172   172A      2.311908   173A      2.322577
     174A      2.337359   175A      2.377326   176A      2.421154
     177A      2.462693   178A      2.469553   179A      2.474253
     180A      2.486534   181A      2.490330   182A      2.538231
     183A      2.556190   184A      2.582666   185A      2.601019
     186A      2.612652   187A      2.653974   188A      2.753298
     189A      2.772013   190A      2.776531   191A      2.792295
     192A      2.807233   193A      2.811253   194A      2.838747
     195A      2.864257   196A      2.869310   197A      2.909548
     198A      2.954309   199A      2.980494   200A      2.996808
     201A      3.018000   202A      3.093599   203A      3.115920
     204A      3.259810   205A      3.287182   206A      3.349224
     207A      3.586096   208A      3.684971   209A      3.977878
     210A      4.200779

    Final Occupation by Irrep:
              A
    DOCC [    38 ]

  @RHF Final Energy:  -423.85582308674395

   => Energetics <=

    Nuclear Repulsion Energy =            510.1146656259685415
    One-Electron Energy =               -1586.0945174231328565
    Two-Electron Energy =                 652.1240287104204754
    Total Energy =                       -423.8558230867439534

Computation Completed

Properties will be evaluated at   0.000000,   0.000000,   0.000000 [a0]

Properties computed using the SCF density matrix

  Nuclear Dipole Moment: [e a0]
     X:     1.3412      Y:    10.9457      Z:     2.1904

  Electronic Dipole Moment: [e a0]
     X:    -0.7849      Y:   -11.0860      Z:    -1.9862

  Dipole Moment: [e a0]
     X:     0.5563      Y:    -0.1402      Z:     0.2043     Total:     0.6090

  Dipole Moment: [D]
     X:     1.4139      Y:    -0.3565      Z:     0.5192     Total:     1.5479

*** tstop() called on ds3 at Tue Apr 28 20:42:15 2020
Module time:
	user time   =      96.82 seconds =       1.61 minutes
	system time =      37.30 seconds =       0.62 minutes
	total time  =        130 seconds =       2.17 minutes
Total time:
	user time   =      96.82 seconds =       1.61 minutes
	system time =      37.30 seconds =       0.62 minutes
	total time  =        130 seconds =       2.17 minutes
                                     G D M A

                                 by Anthony Stone

                           version 2.2.06, 22 June 2011

               Distributed Multipoles from Gaussian wavefunctions

Starting at 20:42:15 on 28 Apr 2020

Using SCF density matrix from file ./SSI/SSI-120LEU-171TYR-2-dimer.test.16918.fchk

                         Distributed Multipole Analysis

Standard DMA

Positions and radii in angstrom
Multipole moments in atomic units, ea_0^k for rank k

C          x =  0.397969  y =  2.560109  z = -0.652381 angstrom
           Maximum rank =  0   Radius =  0.650 angstrom
                   Q00  =  -0.237544

C          x = -0.384031  y =  3.319109  z = -1.716381 angstrom
           Maximum rank =  0   Radius =  0.650 angstrom
                   Q00  =  -0.227127

H          x = -0.291031  y =  2.068109  z =  0.033619 angstrom
           Maximum rank =  0   Radius =  0.325 angstrom
                   Q00  =   0.086863

H          x =  1.029969  y =  1.803109  z = -1.114381 angstrom
           Maximum rank =  0   Radius =  0.325 angstrom
                   Q00  =   0.075592

H          x =  1.026969  y =  3.255109  z = -0.095381 angstrom
           Maximum rank =  0   Radius =  0.325 angstrom
                   Q00  =   0.068065

H          x =  0.330969  y =  3.872109  z = -2.323381 angstrom
           Maximum rank =  0   Radius =  0.325 angstrom
                   Q00  =   0.071378

H          x = -1.085021  y =  4.021549  z = -1.241840 angstrom
           Maximum rank =  0   Radius =  0.325 angstrom
                   Q00  =   0.074755

H          x = -0.930891  y =  2.622519  z = -2.368846 angstrom
           Maximum rank =  0   Radius =  0.325 angstrom
                   Q00  =   0.079985

C          x =  0.196969  y = -0.512891  z =  3.236619 angstrom
           Maximum rank =  0   Radius =  0.650 angstrom
                   Q00  =  -0.191425

C          x = -1.243031  y = -0.671891  z = -0.281381 angstrom
           Maximum rank =  0   Radius =  0.650 angstrom
                   Q00  =  -0.123048

C          x = -0.107031  y = -0.956891  z = -1.030381 angstrom
           Maximum rank =  0   Radius =  0.650 angstrom
                   Q00  =   0.321677

C          x = -1.143031  y = -0.527891  z =  1.099619 angstrom
           Maximum rank =  0   Radius =  0.650 angstrom
                   Q00  =  -0.015624

C          x =  0.082969  y = -0.677891  z =  1.742619 angstrom
           Maximum rank =  0   Radius =  0.650 angstrom
                   Q00  =  -0.134985

C          x =  1.123969  y = -1.098891  z = -0.401381 angstrom
           Maximum rank =  0   Radius =  0.650 angstrom
                   Q00  =  -0.186439

C          x =  1.214969  y = -0.955891  z =  0.978619 angstrom
           Maximum rank =  0   Radius =  0.650 angstrom
                   Q00  =   0.032711

O          x = -0.195031  y = -1.093891  z = -2.380381 angstrom
           Maximum rank =  0   Radius =  0.650 angstrom
                   Q00  =  -0.672745

H          x = -2.189031  y = -0.550891  z = -0.785381 angstrom
           Maximum rank =  0   Radius =  0.325 angstrom
                   Q00  =   0.080456

H          x = -2.025031  y = -0.290891  z =  1.678619 angstrom
           Maximum rank =  0   Radius =  0.325 angstrom
                   Q00  =   0.062989

H          x =  2.011969  y = -1.307891  z = -0.973381 angstrom
           Maximum rank =  0   Radius =  0.325 angstrom
                   Q00  =   0.070551

H          x =  0.662969  y = -1.271891  z = -2.764381 angstrom
           Maximum rank =  0   Radius =  0.325 angstrom
                   Q00  =   0.403349

H          x =  0.928969  y = -1.230891  z =  3.603619 angstrom
           Maximum rank =  0   Radius =  0.325 angstrom
                   Q00  =   0.094529

H          x = -0.754031  y = -0.743891  z =  3.719619 angstrom
           Maximum rank =  0   Radius =  0.325 angstrom
                   Q00  =   0.098206

H          x =  2.174969  y = -1.059891  z =  1.467619 angstrom
           Maximum rank =  0   Radius =  0.325 angstrom
                   Q00  =   0.068068

H          x =  0.539959  y =  0.495179  z =  3.512594 angstrom
           Maximum rank =  0   Radius =  0.325 angstrom
                   Q00  =   0.099763

Total multipoles referred to origin at
           x =   0.000000,  y =    0.000000,  z =    0.000000 angstrom
                   Q00  =  -0.000000

Finished at 20:42:15 on 28 Apr 2020

  DMA results are available in the Python driver through the
	  variable('DMA DISTRIBUTED MULTIPOLES')
  and
	  variable('DMA TOTAL MULTIPOLES')
  commands.

    Psi4 stopped on: Tuesday, 28 April 2020 08:42PM
    Psi4 wall time for execution: 0:02:09.72

*** Psi4 exiting successfully. Buy a developer a beer!
