                               Psi4 1.3.2 release

  ==> Input File <==

--------------------------------------------------------------------------
import numpy as np
set {scf_type pk
basis cc-pvdz
d_convergence 10
gdma_switch   0
gdma_limit    0
gdma_origin   [ 0.0,  0.0,  0.0 ]
}
molecule test {
    units Angstrom
    0 1
    --
    0 1
    C                2.790007378680510    -0.724429620989266     1.943259992159206
    C               -0.715992621319489    -0.543429620989266     0.594259992159206
    C                0.364007378680511     0.050570379010734     1.301259992159206
    C                1.429007378680511    -0.913429620989266     1.342259992159206
    C                0.972007378680511    -2.006429620989266     0.665259992159206
    C               -1.917992621319489     0.114570379010734     0.380259992159206
    C               -2.048992621319489     1.399570379010733     0.878259992159206
    C                0.207007378680511     1.351570379010734     1.798259992159206
    C               -1.001992621319489     2.014570379010733     1.583259992159206
    N               -0.309992621319489    -1.795429620989266     0.223259992159206
    H               -0.889992621319489    -2.487429620989266    -0.264740007840794
    H               -2.716992621319490    -0.362429620989266    -0.162740007840794
    H                1.546007378680511    -2.902429620989266     0.473259992159206
    H               -2.975992621319489     1.937570379010733     0.729259992159206
    H                1.018007378680511     1.829570379010734     2.319259992159207
    H                3.041007378680510    -1.577429620989266     2.575259992159206
    H                2.777007378680511     0.170570379010734     2.567259992159206
    H               -1.138992621319489     3.016570379010734     1.966259992159206
    H                3.544527378680510    -0.602989620989266     1.152090392159206
    C               -0.512992621319489     0.650570379010734    -3.055740007840793
    C                0.780007378680511     1.397570379010733    -3.339740007840794
    C               -0.345992621319489    -0.862429620989266    -3.159740007840794
    H               -0.854992621319489     0.901570379010734    -2.050740007840794
    H               -1.279992621319489     0.983570379010734    -3.758740007840794
    H                0.568007378680511     2.467570379010734    -3.346740007840794
    H                1.142007378680511     1.124570379010734    -4.328740007840794
    H                0.450007378680511    -1.204429620989266    -2.490740007840794
    H               -1.275992621319489    -1.323429620989266    -2.805740007840793
    H                1.533267378680511     1.187320379010734    -2.566180007840793
    H               -0.156992621319489    -1.178409620989266    -4.196288007840794

}
e, wfn = energy('scf', return_wfn=True)
gdma(wfn)
dmavals = variable('DMA DISTRIBUTED MULTIPOLES')
charges = np.array(dmavals)
print(charges)
np.save('SSI-101TRP-135LYS-1-dimer.npy', np.array(charges))--------------------------------------------------------------------------

*** tstart() called on ds3
*** at Mon Apr 27 11:42:21 2020

   => Loading Basis Set <=

    Name: CC-PVDZ
    Role: ORBITAL
    Keyword: BASIS
    atoms 1-9, 20-22   entry C          line   138 file /theoryfs2/ds/metcalf/miniconda2/envs/tf2gpu/share/psi4/basis/cc-pvdz.gbs
    atoms 10           entry N          line   168 file /theoryfs2/ds/metcalf/miniconda2/envs/tf2gpu/share/psi4/basis/cc-pvdz.gbs
    atoms 11-19, 23-30 entry H          line    22 file /theoryfs2/ds/metcalf/miniconda2/envs/tf2gpu/share/psi4/basis/cc-pvdz.gbs

         ---------------------------------------------------------
                                   SCF
               by Justin Turney, Rob Parrish, Andy Simmonett
                          and Daniel G. A. Smith
                              RHF Reference
                        1 Threads,    500 MiB Core
         ---------------------------------------------------------

  ==> Geometry <==

    Molecular point group: c1
    Full point group: C1

    Geometry (in Angstrom), charge = 0, multiplicity = 1:

       Center              X                  Y                   Z               Mass
    ------------   -----------------  -----------------  -----------------  -----------------
         C            2.790007378681    -0.724429620989     1.943259992159    12.000000000000
         C           -0.715992621319    -0.543429620989     0.594259992159    12.000000000000
         C            0.364007378681     0.050570379011     1.301259992159    12.000000000000
         C            1.429007378681    -0.913429620989     1.342259992159    12.000000000000
         C            0.972007378681    -2.006429620989     0.665259992159    12.000000000000
         C           -1.917992621319     0.114570379011     0.380259992159    12.000000000000
         C           -2.048992621319     1.399570379011     0.878259992159    12.000000000000
         C            0.207007378681     1.351570379011     1.798259992159    12.000000000000
         C           -1.001992621319     2.014570379011     1.583259992159    12.000000000000
         N           -0.309992621319    -1.795429620989     0.223259992159    14.003074004430
         H           -0.889992621319    -2.487429620989    -0.264740007841     1.007825032230
         H           -2.716992621319    -0.362429620989    -0.162740007841     1.007825032230
         H            1.546007378681    -2.902429620989     0.473259992159     1.007825032230
         H           -2.975992621319     1.937570379011     0.729259992159     1.007825032230
         H            1.018007378681     1.829570379011     2.319259992159     1.007825032230
         H            3.041007378681    -1.577429620989     2.575259992159     1.007825032230
         H            2.777007378681     0.170570379011     2.567259992159     1.007825032230
         H           -1.138992621319     3.016570379011     1.966259992159     1.007825032230
         H            3.544527378681    -0.602989620989     1.152090392159     1.007825032230
         C           -0.512992621319     0.650570379011    -3.055740007841    12.000000000000
         C            0.780007378681     1.397570379011    -3.339740007841    12.000000000000
         C           -0.345992621319    -0.862429620989    -3.159740007841    12.000000000000
         H           -0.854992621319     0.901570379011    -2.050740007841     1.007825032230
         H           -1.279992621319     0.983570379011    -3.758740007841     1.007825032230
         H            0.568007378681     2.467570379011    -3.346740007841     1.007825032230
         H            1.142007378681     1.124570379011    -4.328740007841     1.007825032230
         H            0.450007378681    -1.204429620989    -2.490740007841     1.007825032230
         H           -1.275992621319    -1.323429620989    -2.805740007841     1.007825032230
         H            1.533267378681     1.187320379011    -2.566180007841     1.007825032230
         H           -0.156992621319    -1.178409620989    -4.196288007841     1.007825032230

  Running in c1 symmetry.

  Rotational constants: A =      0.02844  B =      0.01937  C =      0.01575 [cm^-1]
  Rotational constants: A =    852.71325  B =    580.67194  C =    472.04302 [MHz]
  Nuclear repulsion =  768.518490074785063

  Charge       = 0
  Multiplicity = 1
  Electrons    = 96
  Nalpha       = 48
  Nbeta        = 48

  ==> Algorithm <==

  SCF Algorithm Type is PK.
  DIIS enabled.
  MOM disabled.
  Fractional occupation disabled.
  Guess Type is SAD.
  Energy threshold   = 1.00e-06
  Density threshold  = 1.00e-10
  Integral threshold = 0.00e+00

  ==> Primary Basis <==

  Basis Set: CC-PVDZ
    Blend: CC-PVDZ
    Number of shells: 129
    Number of basis function: 267
    Number of Cartesian functions: 280
    Spherical Harmonics?: true
    Max angular momentum: 2

  ==> Pre-Iterations <==

   -------------------------------------------------------
    Irrep   Nso     Nmo     Nalpha   Nbeta   Ndocc  Nsocc
   -------------------------------------------------------
     A        267     267       0       0       0       0
   -------------------------------------------------------
    Total     267     267      48      48      48       0
   -------------------------------------------------------

  ==> Integral Setup <==

  Using integral reordering PK algorithm.
  Sizing the integral batches needed.
  Building batch lookup table.
   Calculation information:
      Number of atoms:                  30
      Number of AO shells:             129
      Number of primitives:            371
      Number of atomic orbitals:       280
      Number of basis functions:       267

      Integral cutoff                 1.00e-12
      Number of threads:                 1

	Batch   1 pq = [       0,    9405] index = [             0,44231715] size =     44231715
	Batch   2 pq = [    9405,   13301] index = [      44231715,88464951] size =     44233236
	Batch   3 pq = [   13301,   16290] index = [      88464951,132690195] size =     44225244
	Batch   4 pq = [   16290,   18810] index = [     132690195,176917455] size =     44227260
	Batch   5 pq = [   18810,   21030] index = [     176917455,221140965] size =     44223510
	Batch   6 pq = [   21030,   23037] index = [     221140965,265363203] size =     44222238
	Batch   7 pq = [   23037,   24883] index = [     265363203,309594286] size =     44231083
	Batch   8 pq = [   24883,   26601] index = [     309594286,353819901] size =     44225615
	Batch   9 pq = [   26601,   28214] index = [     353819901,398029005] size =     44209104
	Batch  10 pq = [   28214,   29740] index = [     398029005,442248670] size =     44219665
	Batch  11 pq = [   29740,   31191] index = [     442248670,486454836] size =     44206166
	Batch  12 pq = [   31191,   32578] index = [     486454836,530679331] size =     44224495
	Batch  13 pq = [   32578,   33908] index = [     530679331,574893186] size =     44213855
	Batch  14 pq = [   33908,   35188] index = [     574893186,619115266] size =     44222080
	Batch  15 pq = [   35188,   35778] index = [     619115266,640050531] size =     20935265
  Task number: 58
  Buffer size: 11059200
  Buffer per thread: 2
  We computed 39101885 shell quartets total.
  Whereas there are 35158305 unique shell quartets.
    11.22 percent of shell quartets recomputed by reordering.

  ==> DiskJK: Disk-Based J/K Matrices <==

    J tasked:                  Yes
    K tasked:                  Yes
    wK tasked:                  No
    Memory [MiB]:              375
    Schwarz Cutoff:          1E-12

    OpenMP threads:              1

  Minimum eigenvalue in the overlap matrix is 2.3572573734E-04.
  Using Symmetric Orthogonalization.

  SCF Guess: Superposition of Atomic Densities via on-the-fly atomic UHF.

  ==> Iterations <==

                        Total Energy        Delta E     RMS |[F,P]|

   @RHF iter SAD:  -518.06345376917261   -5.18063e+02   0.00000e+00
   @RHF iter   1:  -518.49064544807175   -4.27192e-01   2.51144e-03 DIIS
   @RHF iter   2:  -518.74991300718295   -2.59268e-01   1.13610e-03 DIIS
   @RHF iter   3:  -518.79842410051299   -4.85111e-02   2.88817e-04 DIIS
   @RHF iter   4:  -518.80264490512695   -4.22080e-03   1.31566e-04 DIIS
   @RHF iter   5:  -518.80333391534418   -6.89010e-04   1.98908e-05 DIIS
   @RHF iter   6:  -518.80336499362443   -3.10783e-05   8.71878e-06 DIIS
   @RHF iter   7:  -518.80337116758994   -6.17397e-06   3.40960e-06 DIIS
   @RHF iter   8:  -518.80337267241725   -1.50483e-06   1.45534e-06 DIIS
   @RHF iter   9:  -518.80337301878365   -3.46366e-07   6.19696e-07 DIIS
   @RHF iter  10:  -518.80337308579487   -6.70112e-08   2.73334e-07 DIIS
   @RHF iter  11:  -518.80337310227890   -1.64840e-08   1.13990e-07 DIIS
   @RHF iter  12:  -518.80337310499294   -2.71405e-09   4.11265e-08 DIIS
   @RHF iter  13:  -518.80337310522384   -2.30898e-10   1.19387e-08 DIIS
   @RHF iter  14:  -518.80337310524635   -2.25100e-11   4.84032e-09 DIIS
   @RHF iter  15:  -518.80337310524783   -1.47793e-12   1.93616e-09 DIIS
   @RHF iter  16:  -518.80337310524203    5.79803e-12   9.82460e-10 DIIS
   @RHF iter  17:  -518.80337310524476   -2.72848e-12   4.75360e-10 DIIS
   @RHF iter  18:  -518.80337310525294   -8.18545e-12   1.80533e-10 DIIS
   @RHF iter  19:  -518.80337310525056    2.38742e-12   6.91182e-11 DIIS
  Energy and wave function converged.

  ==> Post-Iterations <==

    Orbital Energies [Eh]
    ---------------------

    Doubly Occupied:

       1A    -15.603760     2A    -11.263800     3A    -11.263206
       4A    -11.231549     5A    -11.230601     6A    -11.229360
       7A    -11.228140     8A    -11.222807     9A    -11.222196
      10A    -11.218749    11A    -11.212440    12A    -11.208427
      13A    -11.206267    14A     -1.296618    15A     -1.128480
      16A     -1.074013    17A     -1.047254    18A     -0.997748
      19A     -0.987497    20A     -0.932337    21A     -0.918220
      22A     -0.840524    23A     -0.803406    24A     -0.786691
      25A     -0.753829    26A     -0.720016    27A     -0.662839
      28A     -0.643142    29A     -0.622004    30A     -0.604673
      31A     -0.593275    32A     -0.590681    33A     -0.586880
      34A     -0.568529    35A     -0.554991    36A     -0.541749
      37A     -0.538539    38A     -0.528674    39A     -0.526166
      40A     -0.495516    41A     -0.472915    42A     -0.469515
      43A     -0.463640    44A     -0.458837    45A     -0.453195
      46A     -0.373860    47A     -0.295668    48A     -0.274282

    Virtual:

      49A      0.123580    50A      0.167474    51A      0.169836
      52A      0.185733    53A      0.197626    54A      0.201234
      55A      0.214135    56A      0.226091    57A      0.230899
      58A      0.242870    59A      0.246865    60A      0.257873
      61A      0.259847    62A      0.268906    63A      0.284857
      64A      0.291705    65A      0.307259    66A      0.310580
      67A      0.317110    68A      0.318295    69A      0.375276
      70A      0.380114    71A      0.384132    72A      0.403860
      73A      0.422388    74A      0.432498    75A      0.445481
      76A      0.466003    77A      0.482303    78A      0.506472
      79A      0.523417    80A      0.583435    81A      0.591246
      82A      0.601783    83A      0.613123    84A      0.627528
      85A      0.633457    86A      0.639231    87A      0.643754
      88A      0.652554    89A      0.675935    90A      0.691908
      91A      0.713382    92A      0.722727    93A      0.731983
      94A      0.735618    95A      0.739149    96A      0.744271
      97A      0.758674    98A      0.763766    99A      0.773893
     100A      0.782503   101A      0.785897   102A      0.788429
     103A      0.812462   104A      0.840545   105A      0.846650
     106A      0.856576   107A      0.861904   108A      0.867110
     109A      0.871158   110A      0.882076   111A      0.893787
     112A      0.899679   113A      0.902735   114A      0.906275
     115A      0.912977   116A      0.914981   117A      0.922344
     118A      0.933045   119A      0.942225   120A      0.949765
     121A      0.955584   122A      0.962928   123A      0.973904
     124A      0.986393   125A      1.001862   126A      1.008318
     127A      1.020285   128A      1.058158   129A      1.068514
     130A      1.088915   131A      1.113479   132A      1.129514
     133A      1.132803   134A      1.138004   135A      1.145580
     136A      1.153273   137A      1.168917   138A      1.183300
     139A      1.208676   140A      1.218657   141A      1.229868
     142A      1.244391   143A      1.247858   144A      1.277638
     145A      1.284502   146A      1.295090   147A      1.300057
     148A      1.326763   149A      1.338197   150A      1.360954
     151A      1.368177   152A      1.406193   153A      1.426275
     154A      1.443018   155A      1.482590   156A      1.488067
     157A      1.523721   158A      1.535189   159A      1.552469
     160A      1.567856   161A      1.596319   162A      1.630208
     163A      1.638742   164A      1.653114   165A      1.663977
     166A      1.682205   167A      1.687228   168A      1.690205
     169A      1.700796   170A      1.705680   171A      1.745807
     172A      1.762496   173A      1.769303   174A      1.784800
     175A      1.822948   176A      1.829790   177A      1.838893
     178A      1.870268   179A      1.880152   180A      1.885423
     181A      1.889051   182A      1.894887   183A      1.899533
     184A      1.906405   185A      1.912284   186A      1.921434
     187A      1.930204   188A      1.938297   189A      1.947516
     190A      1.962285   191A      1.970523   192A      1.976774
     193A      1.986424   194A      1.990251   195A      1.997595
     196A      2.005221   197A      2.011531   198A      2.013720
     199A      2.017336   200A      2.024639   201A      2.037040
     202A      2.064089   203A      2.080932   204A      2.085592
     205A      2.092783   206A      2.102174   207A      2.125342
     208A      2.135855   209A      2.140601   210A      2.150614
     211A      2.156068   212A      2.168945   213A      2.180889
     214A      2.190931   215A      2.232439   216A      2.265392
     217A      2.276587   218A      2.305641   219A      2.309659
     220A      2.311207   221A      2.317188   222A      2.325368
     223A      2.345450   224A      2.359892   225A      2.373504
     226A      2.398408   227A      2.412103   228A      2.451467
     229A      2.464560   230A      2.496156   231A      2.541560
     232A      2.554433   233A      2.582378   234A      2.589602
     235A      2.594134   236A      2.620863   237A      2.626227
     238A      2.644654   239A      2.684470   240A      2.688187
     241A      2.736256   242A      2.768132   243A      2.768487
     244A      2.772149   245A      2.776797   246A      2.780083
     247A      2.799259   248A      2.810432   249A      2.812113
     250A      2.839758   251A      2.847646   252A      2.861440
     253A      2.909770   254A      2.926801   255A      2.972822
     256A      2.994585   257A      2.997121   258A      3.030869
     259A      3.064150   260A      3.076690   261A      3.085792
     262A      3.122306   263A      3.213472   264A      3.300054
     265A      3.374340   266A      3.738941   267A      3.951853

    Final Occupation by Irrep:
              A
    DOCC [    48 ]

  @RHF Final Energy:  -518.80337310525056

   => Energetics <=

    Nuclear Repulsion Energy =            768.5184900747850634
    One-Electron Energy =               -2226.7487183109533362
    Two-Electron Energy =                 939.4268551309178292
    Total Energy =                       -518.8033731052505573

Computation Completed

Properties will be evaluated at   0.000000,   0.000000,   0.000000 [a0]

Properties computed using the SCF density matrix

  Nuclear Dipole Moment: [e a0]
     X:     4.0601      Y:     1.8613      Z:   -13.3022

  Electronic Dipole Moment: [e a0]
     X:    -4.0921      Y:    -2.5489      Z:    13.1096

  Dipole Moment: [e a0]
     X:    -0.0321      Y:    -0.6876      Z:    -0.1926     Total:     0.7148

  Dipole Moment: [D]
     X:    -0.0815      Y:    -1.7477      Z:    -0.4895     Total:     1.8167

*** tstop() called on ds3 at Mon Apr 27 12:08:12 2020
Module time:
	user time   =     296.66 seconds =       4.94 minutes
	system time =     110.98 seconds =       1.85 minutes
	total time  =       1551 seconds =      25.85 minutes
Total time:
	user time   =     296.66 seconds =       4.94 minutes
	system time =     110.98 seconds =       1.85 minutes
	total time  =       1551 seconds =      25.85 minutes
                                     G D M A

                                 by Anthony Stone

                           version 2.2.06, 22 June 2011

               Distributed Multipoles from Gaussian wavefunctions

Starting at 12:8:12 on 27 Apr 2020

Using SCF density matrix from file ./SSI/SSI-101TRP-135LYS-1-dimer.test.3068.fchk

                         Distributed Multipole Analysis

Standard DMA

Positions and radii in angstrom
Multipole moments in atomic units, ea_0^k for rank k

C          x =  2.790007  y = -0.724430  z =  1.943260 angstrom
           Maximum rank =  0   Radius =  0.650 angstrom
                   Q00  =  -0.217748

C          x = -0.715993  y = -0.543430  z =  0.594260 angstrom
           Maximum rank =  0   Radius =  0.650 angstrom
                   Q00  =   0.290827

C          x =  0.364007  y =  0.050570  z =  1.301260 angstrom
           Maximum rank =  0   Radius =  0.650 angstrom
                   Q00  =  -0.045237

C          x =  1.429007  y = -0.913430  z =  1.342260 angstrom
           Maximum rank =  0   Radius =  0.650 angstrom
                   Q00  =  -0.126547

C          x =  0.972007  y = -2.006430  z =  0.665260 angstrom
           Maximum rank =  0   Radius =  0.650 angstrom
                   Q00  =   0.072805

C          x = -1.917993  y =  0.114570  z =  0.380260 angstrom
           Maximum rank =  0   Radius =  0.650 angstrom
                   Q00  =  -0.120688

C          x = -2.048993  y =  1.399570  z =  0.878260 angstrom
           Maximum rank =  0   Radius =  0.650 angstrom
                   Q00  =  -0.071082

C          x =  0.207007  y =  1.351570  z =  1.798260 angstrom
           Maximum rank =  0   Radius =  0.650 angstrom
                   Q00  =  -0.099767

C          x = -1.001993  y =  2.014570  z =  1.583260 angstrom
           Maximum rank =  0   Radius =  0.650 angstrom
                   Q00  =  -0.086340

N          x = -0.309993  y = -1.795430  z =  0.223260 angstrom
           Maximum rank =  0   Radius =  0.650 angstrom
                   Q00  =  -0.494020

H          x = -0.889993  y = -2.487430  z = -0.264740 angstrom
           Maximum rank =  0   Radius =  0.325 angstrom
                   Q00  =   0.224179

H          x = -2.716993  y = -0.362430  z = -0.162740 angstrom
           Maximum rank =  0   Radius =  0.325 angstrom
                   Q00  =   0.072498

H          x =  1.546007  y = -2.902430  z =  0.473260 angstrom
           Maximum rank =  0   Radius =  0.325 angstrom
                   Q00  =   0.096121

H          x = -2.975993  y =  1.937570  z =  0.729260 angstrom
           Maximum rank =  0   Radius =  0.325 angstrom
                   Q00  =   0.064944

H          x =  1.018007  y =  1.829570  z =  2.319260 angstrom
           Maximum rank =  0   Radius =  0.325 angstrom
                   Q00  =   0.070615

H          x =  3.041007  y = -1.577430  z =  2.575260 angstrom
           Maximum rank =  0   Radius =  0.325 angstrom
                   Q00  =   0.105939

H          x =  2.777007  y =  0.170570  z =  2.567260 angstrom
           Maximum rank =  0   Radius =  0.325 angstrom
                   Q00  =   0.108421

H          x = -1.138993  y =  3.016570  z =  1.966260 angstrom
           Maximum rank =  0   Radius =  0.325 angstrom
                   Q00  =   0.061254

H          x =  3.544527  y = -0.602990  z =  1.152090 angstrom
           Maximum rank =  0   Radius =  0.325 angstrom
                   Q00  =   0.101193

C          x = -0.512993  y =  0.650570  z = -3.055740 angstrom
           Maximum rank =  0   Radius =  0.650 angstrom
                   Q00  =  -0.060670

C          x =  0.780007  y =  1.397570  z = -3.339740 angstrom
           Maximum rank =  0   Radius =  0.650 angstrom
                   Q00  =  -0.247597

C          x = -0.345993  y = -0.862430  z = -3.159740 angstrom
           Maximum rank =  0   Radius =  0.650 angstrom
                   Q00  =  -0.256183

H          x = -0.854993  y =  0.901570  z = -2.050740 angstrom
           Maximum rank =  0   Radius =  0.325 angstrom
                   Q00  =   0.069118

H          x = -1.279993  y =  0.983570  z = -3.758740 angstrom
           Maximum rank =  0   Radius =  0.325 angstrom
                   Q00  =   0.038613

H          x =  0.568007  y =  2.467570  z = -3.346740 angstrom
           Maximum rank =  0   Radius =  0.325 angstrom
                   Q00  =   0.080262

H          x =  1.142007  y =  1.124570  z = -4.328740 angstrom
           Maximum rank =  0   Radius =  0.325 angstrom
                   Q00  =   0.068647

H          x =  0.450007  y = -1.204430  z = -2.490740 angstrom
           Maximum rank =  0   Radius =  0.325 angstrom
                   Q00  =   0.082262

H          x = -1.275993  y = -1.323430  z = -2.805740 angstrom
           Maximum rank =  0   Radius =  0.325 angstrom
                   Q00  =   0.062429

H          x =  1.533267  y =  1.187320  z = -2.566180 angstrom
           Maximum rank =  0   Radius =  0.325 angstrom
                   Q00  =   0.080913

H          x = -0.156993  y = -1.178410  z = -4.196288 angstrom
           Maximum rank =  0   Radius =  0.325 angstrom
                   Q00  =   0.074842

Total multipoles referred to origin at
           x =   0.000000,  y =    0.000000,  z =    0.000000 angstrom
                   Q00  =  -0.000000

Finished at 12:8:12 on 27 Apr 2020

  DMA results are available in the Python driver through the
	  variable('DMA DISTRIBUTED MULTIPOLES')
  and
	  variable('DMA TOTAL MULTIPOLES')
  commands.

    Psi4 stopped on: Monday, 27 April 2020 12:08PM
    Psi4 wall time for execution: 0:25:51.63

*** Psi4 exiting successfully. Buy a developer a beer!
