                               Psi4 1.3.2 release

  ==> Input File <==

--------------------------------------------------------------------------
import numpy as np
set {scf_type pk
basis cc-pvdz
d_convergence 10
gdma_switch   0
gdma_limit    0
gdma_origin   [ 0.0,  0.0,  0.0 ]
}
molecule test {
    units Angstrom
    0 1
    --
    0 1
    C                0.577874218719486     1.351844014909386    -1.313933076207378
    C                0.477874218719486     2.841844014909385    -0.996933076207378
    H                1.594874218719486     0.992844014909385    -1.146933076207378
    H               -0.109125781280514     0.799844014909385    -0.673933076207378
    H                0.295874218719486     1.176844014909385    -2.352933076207378
    H               -0.561125781280514     3.146844014909385    -1.116933076207378
    H                1.108204218719486     3.436194014909385    -1.674753076207378
    H                0.791074218719486     3.019714014909385     0.042426923792622
    C                0.029874218719486    -1.929155985090615     0.658066923792622
    C               -1.086125781280514    -2.259155985090615     1.650066923792622
    H                0.748874218719486    -1.240155985090615     1.096066923792622
    H                0.561874218719486    -2.844155985090615     0.413066923792622
    H               -0.387125781280514    -1.492155985090615    -0.249933076207378
    H               -0.667125781280514    -2.886155985090614     2.436066923792622
    H               -1.487705781280514    -1.344905985090614     2.111456923792622
    H               -1.882575781280514    -2.828765985090615     1.148866923792622

}
e, wfn = energy('scf', return_wfn=True)
gdma(wfn)
dmavals = variable('DMA DISTRIBUTED MULTIPOLES')
charges = np.array(dmavals)
print(charges)
np.save('SSI-039THR-083VAL-1-dimer.npy', np.array(charges))--------------------------------------------------------------------------

*** tstart() called on ds3
*** at Mon Apr 27 12:54:11 2020

   => Loading Basis Set <=

    Name: CC-PVDZ
    Role: ORBITAL
    Keyword: BASIS
    atoms 1-2, 9-10  entry C          line   138 file /theoryfs2/ds/metcalf/miniconda2/envs/tf2gpu/share/psi4/basis/cc-pvdz.gbs
    atoms 3-8, 11-16 entry H          line    22 file /theoryfs2/ds/metcalf/miniconda2/envs/tf2gpu/share/psi4/basis/cc-pvdz.gbs

         ---------------------------------------------------------
                                   SCF
               by Justin Turney, Rob Parrish, Andy Simmonett
                          and Daniel G. A. Smith
                              RHF Reference
                        1 Threads,    500 MiB Core
         ---------------------------------------------------------

  ==> Geometry <==

    Molecular point group: c1
    Full point group: C1

    Geometry (in Angstrom), charge = 0, multiplicity = 1:

       Center              X                  Y                   Z               Mass
    ------------   -----------------  -----------------  -----------------  -----------------
         C            0.577874218719     1.351844014909    -1.313933076207    12.000000000000
         C            0.477874218719     2.841844014909    -0.996933076207    12.000000000000
         H            1.594874218719     0.992844014909    -1.146933076207     1.007825032230
         H           -0.109125781281     0.799844014909    -0.673933076207     1.007825032230
         H            0.295874218719     1.176844014909    -2.352933076207     1.007825032230
         H           -0.561125781281     3.146844014909    -1.116933076207     1.007825032230
         H            1.108204218719     3.436194014909    -1.674753076207     1.007825032230
         H            0.791074218719     3.019714014909     0.042426923793     1.007825032230
         C            0.029874218719    -1.929155985091     0.658066923793    12.000000000000
         C           -1.086125781281    -2.259155985091     1.650066923793    12.000000000000
         H            0.748874218719    -1.240155985091     1.096066923793     1.007825032230
         H            0.561874218719    -2.844155985091     0.413066923793     1.007825032230
         H           -0.387125781281    -1.492155985091    -0.249933076207     1.007825032230
         H           -0.667125781281    -2.886155985091     2.436066923793     1.007825032230
         H           -1.487705781281    -1.344905985091     2.111456923793     1.007825032230
         H           -1.882575781281    -2.828765985091     1.148866923793     1.007825032230

  Running in c1 symmetry.

  Rotational constants: A =      0.52049  B =      0.04291  C =      0.04118 [cm^-1]
  Rotational constants: A =  15603.87198  B =   1286.27232  C =   1234.45786 [MHz]
  Nuclear repulsion =  120.018168178813909

  Charge       = 0
  Multiplicity = 1
  Electrons    = 36
  Nalpha       = 18
  Nbeta        = 18

  ==> Algorithm <==

  SCF Algorithm Type is PK.
  DIIS enabled.
  MOM disabled.
  Fractional occupation disabled.
  Guess Type is SAD.
  Energy threshold   = 1.00e-06
  Density threshold  = 1.00e-10
  Integral threshold = 0.00e+00

  ==> Primary Basis <==

  Basis Set: CC-PVDZ
    Blend: CC-PVDZ
    Number of shells: 60
    Number of basis function: 116
    Number of Cartesian functions: 120
    Spherical Harmonics?: true
    Max angular momentum: 2

  ==> Pre-Iterations <==

   -------------------------------------------------------
    Irrep   Nso     Nmo     Nalpha   Nbeta   Ndocc  Nsocc
   -------------------------------------------------------
     A        116     116       0       0       0       0
   -------------------------------------------------------
    Total     116     116      18      18      18       0
   -------------------------------------------------------

  ==> Integral Setup <==

  Using integral reordering PK algorithm.
  Sizing the integral batches needed.
  Building batch lookup table.
   Calculation information:
      Number of atoms:                  16
      Number of AO shells:              60
      Number of primitives:            148
      Number of atomic orbitals:       120
      Number of basis functions:       116

      Integral cutoff                 1.00e-12
      Number of threads:                 1

	Batch   1 pq = [       0,    6786] index = [             0,23028291] size =     23028291
  Task number: 3
  Buffer size: 11059200
  Buffer per thread: 2
  We computed 1347483 shell quartets total.
  Whereas there are 1675365 unique shell quartets.

  ==> DiskJK: Disk-Based J/K Matrices <==

    J tasked:                  Yes
    K tasked:                  Yes
    wK tasked:                  No
    Memory [MiB]:              375
    Schwarz Cutoff:          1E-12

    OpenMP threads:              1

  Minimum eigenvalue in the overlap matrix is 7.0015567220E-03.
  Using Symmetric Orthogonalization.

  SCF Guess: Superposition of Atomic Densities via on-the-fly atomic UHF.

  ==> Iterations <==

                        Total Energy        Delta E     RMS |[F,P]|

   @RHF iter SAD:  -157.34899199306443   -1.57349e+02   0.00000e+00
   @RHF iter   1:  -158.30734673518182   -9.58355e-01   4.21666e-03 DIIS
   @RHF iter   2:  -158.44079152277135   -1.33445e-01   1.79849e-03 DIIS
   @RHF iter   3:  -158.46424936371051   -2.34578e-02   3.49868e-04 DIIS
   @RHF iter   4:  -158.46608223990930   -1.83288e-03   3.90822e-05 DIIS
   @RHF iter   5:  -158.46610620929158   -2.39694e-05   6.82335e-06 DIIS
   @RHF iter   6:  -158.46610687603456   -6.66743e-07   1.26882e-06 DIIS
   @RHF iter   7:  -158.46610689088024   -1.48457e-08   3.14412e-07 DIIS
   @RHF iter   8:  -158.46610689178399   -9.03754e-10   3.40164e-08 DIIS
   @RHF iter   9:  -158.46610689180105   -1.70530e-11   4.82976e-09 DIIS
   @RHF iter  10:  -158.46610689180136   -3.12639e-13   1.26075e-09 DIIS
   @RHF iter  11:  -158.46610689180156   -1.98952e-13   3.71502e-10 DIIS
   @RHF iter  12:  -158.46610689180193   -3.69482e-13   8.86768e-11 DIIS
  Energy and wave function converged.

  ==> Post-Iterations <==

    Orbital Energies [Eh]
    ---------------------

    Doubly Occupied:

       1A    -11.219126     2A    -11.218634     3A    -11.215825
       4A    -11.215649     5A     -1.019162     6A     -1.017427
       7A     -0.838616     8A     -0.833660     9A     -0.602292
      10A     -0.599288    11A     -0.597372    12A     -0.593870
      13A     -0.503794    14A     -0.497123    15A     -0.488595
      16A     -0.487104    17A     -0.484888    18A     -0.478562

    Virtual:

      19A      0.174103    20A      0.196267    21A      0.224654
      22A      0.238705    23A      0.246989    24A      0.254550
      25A      0.260303    26A      0.277155    27A      0.281310
      28A      0.285127    29A      0.295807    30A      0.331336
      31A      0.390295    32A      0.406782    33A      0.575397
      34A      0.592837    35A      0.601620    36A      0.604482
      37A      0.609886    38A      0.634070    39A      0.662005
      40A      0.682767    41A      0.691599    42A      0.791777
      43A      0.833199    44A      0.870284    45A      0.882662
      46A      0.891196    47A      0.892332    48A      0.895550
      49A      0.897785    50A      0.899027    51A      0.910114
      52A      0.921014    53A      0.927952    54A      0.945479
      55A      0.979828    56A      0.990859    57A      1.120157
      58A      1.126016    59A      1.128361    60A      1.150633
      61A      1.228021    62A      1.244166    63A      1.468389
      64A      1.476573    65A      1.481590    66A      1.491119
      67A      1.569752    68A      1.584609    69A      1.680253
      70A      1.682094    71A      1.693825    72A      1.699749
      73A      1.850539    74A      1.860523    75A      1.865412
      76A      1.881504    77A      1.885167    78A      1.917563
      79A      1.936557    80A      1.943875    81A      1.945395
      82A      1.947240    83A      1.949265    84A      1.955083
      85A      1.962114    86A      1.963125    87A      1.975270
      88A      2.005500    89A      2.098804    90A      2.111630
      91A      2.116331    92A      2.136389    93A      2.292861
      94A      2.303599    95A      2.311952    96A      2.313963
      97A      2.442268    98A      2.451560    99A      2.459442
     100A      2.476609   101A      2.562330   102A      2.570561
     103A      2.572484   104A      2.582662   105A      2.759269
     106A      2.762014   107A      2.787447   108A      2.791993
     109A      2.844074   110A      2.847851   111A      2.852178
     112A      2.858000   113A      2.935552   114A      2.949200
     115A      2.966067   116A      2.978120

    Final Occupation by Irrep:
              A
    DOCC [    18 ]

  @RHF Final Energy:  -158.46610689180193

   => Energetics <=

    Nuclear Repulsion Energy =            120.0181681788139088
    One-Electron Energy =                -449.1465771126171376
    Two-Electron Energy =                 170.6623020420013290
    Total Energy =                       -158.4661068918019282

Computation Completed

Properties will be evaluated at   0.000000,   0.000000,   0.000000 [a0]

Properties computed using the SCF density matrix

  Nuclear Dipole Moment: [e a0]
     X:     0.0056      Y:    -0.0600      Z:     0.0305

  Electronic Dipole Moment: [e a0]
     X:    -0.0002      Y:     0.0384      Z:    -0.0304

  Dipole Moment: [e a0]
     X:     0.0054      Y:    -0.0216      Z:     0.0001     Total:     0.0223

  Dipole Moment: [D]
     X:     0.0138      Y:    -0.0550      Z:     0.0004     Total:     0.0567

*** tstop() called on ds3 at Mon Apr 27 12:54:28 2020
Module time:
	user time   =      13.42 seconds =       0.22 minutes
	system time =       4.64 seconds =       0.08 minutes
	total time  =         17 seconds =       0.28 minutes
Total time:
	user time   =      13.42 seconds =       0.22 minutes
	system time =       4.64 seconds =       0.08 minutes
	total time  =         17 seconds =       0.28 minutes
                                     G D M A

                                 by Anthony Stone

                           version 2.2.06, 22 June 2011

               Distributed Multipoles from Gaussian wavefunctions

Starting at 12:54:28 on 27 Apr 2020

Using SCF density matrix from file ./SSI/SSI-039THR-083VAL-1-dimer.test.4609.fchk

                         Distributed Multipole Analysis

Standard DMA

Positions and radii in angstrom
Multipole moments in atomic units, ea_0^k for rank k

C          x =  0.577874  y =  1.351844  z = -1.313933 angstrom
           Maximum rank =  0   Radius =  0.650 angstrom
                   Q00  =  -0.230388

C          x =  0.477874  y =  2.841844  z = -0.996933 angstrom
           Maximum rank =  0   Radius =  0.650 angstrom
                   Q00  =  -0.241176

H          x =  1.594874  y =  0.992844  z = -1.146933 angstrom
           Maximum rank =  0   Radius =  0.325 angstrom
                   Q00  =   0.079395

H          x = -0.109126  y =  0.799844  z = -0.673933 angstrom
           Maximum rank =  0   Radius =  0.325 angstrom
                   Q00  =   0.080168

H          x =  0.295874  y =  1.176844  z = -2.352933 angstrom
           Maximum rank =  0   Radius =  0.325 angstrom
                   Q00  =   0.077517

H          x = -0.561126  y =  3.146844  z = -1.116933 angstrom
           Maximum rank =  0   Radius =  0.325 angstrom
                   Q00  =   0.078074

H          x =  1.108204  y =  3.436194  z = -1.674753 angstrom
           Maximum rank =  0   Radius =  0.325 angstrom
                   Q00  =   0.078917

H          x =  0.791074  y =  3.019714  z =  0.042427 angstrom
           Maximum rank =  0   Radius =  0.325 angstrom
                   Q00  =   0.077364

C          x =  0.029874  y = -1.929156  z =  0.658067 angstrom
           Maximum rank =  0   Radius =  0.650 angstrom
                   Q00  =  -0.244212

C          x = -1.086126  y = -2.259156  z =  1.650067 angstrom
           Maximum rank =  0   Radius =  0.650 angstrom
                   Q00  =  -0.228366

H          x =  0.748874  y = -1.240156  z =  1.096067 angstrom
           Maximum rank =  0   Radius =  0.325 angstrom
                   Q00  =   0.079381

H          x =  0.561874  y = -2.844156  z =  0.413067 angstrom
           Maximum rank =  0   Radius =  0.325 angstrom
                   Q00  =   0.077847

H          x = -0.387126  y = -1.492156  z = -0.249933 angstrom
           Maximum rank =  0   Radius =  0.325 angstrom
                   Q00  =   0.080793

H          x = -0.667126  y = -2.886156  z =  2.436067 angstrom
           Maximum rank =  0   Radius =  0.325 angstrom
                   Q00  =   0.076885

H          x = -1.487706  y = -1.344906  z =  2.111457 angstrom
           Maximum rank =  0   Radius =  0.325 angstrom
                   Q00  =   0.078578

H          x = -1.882576  y = -2.828766  z =  1.148867 angstrom
           Maximum rank =  0   Radius =  0.325 angstrom
                   Q00  =   0.079223

Total multipoles referred to origin at
           x =   0.000000,  y =    0.000000,  z =    0.000000 angstrom
                   Q00  =  -0.000000

Finished at 12:54:28 on 27 Apr 2020

  DMA results are available in the Python driver through the
	  variable('DMA DISTRIBUTED MULTIPOLES')
  and
	  variable('DMA TOTAL MULTIPOLES')
  commands.

    Psi4 stopped on: Monday, 27 April 2020 12:54PM
    Psi4 wall time for execution: 0:00:17.78

*** Psi4 exiting successfully. Buy a developer a beer!
