                               Psi4 1.3.2 release

  ==> Input File <==

--------------------------------------------------------------------------
import numpy as np
set {scf_type pk
basis cc-pvdz
d_convergence 10
gdma_switch   0
gdma_limit    0
gdma_origin   [ 0.0,  0.0,  0.0 ]
}
molecule test {
    units Angstrom
    0 1
    --
    0 1
    C                2.067596769240410    -2.132821575275346    -1.923591515117155
    C                2.491596769240410    -1.270821575275346    -3.091591515117154
    C                1.765596769240409    -3.491821575275345    -2.540591515117154
    H                1.202596769240409    -1.711821575275346    -1.408591515117154
    H                2.895596769240409    -2.231821575275346    -1.226591515117154
    H                1.604596769240409    -0.826821575275346    -3.546591515117154
    H                3.178596769240409    -0.484821575275346    -2.778591515117154
    H                2.123596769240410    -4.264821575275346    -1.859591515117154
    H                2.962636769240409    -1.951941575275346    -3.815601515117154
    H                2.361886769240409    -3.512121575275346    -3.464731515117154
    H                0.689306769240409    -3.643931575275345    -2.709281515117154
    C               -3.011403230759591     1.572178424724654    -0.815591515117154
    C               -0.818403230759591     0.970178424724654     0.448408484882846
    C               -2.245403230759591     1.103178424724654     0.360408484882846
    C               -0.526403230759591     0.406178424724654     1.716408484882846
    C               -2.750403230759590     0.640178424724654     1.531408484882846
    C                1.550596769240410     0.992178424724654    -0.003591515117154
    C                1.806596769240409     0.433178424724654     1.261408484882846
    C                0.244596769240409     1.264178424724654    -0.419591515117154
    C                0.773596769240409     0.135178424724654     2.133408484882846
    N               -1.728403230759591     0.220178424724654     2.347408484882846
    H                2.382596769240410     1.219178424724654    -0.657591515117154
    H                2.828596769240409     0.240178424724654     1.559408484882846
    H                0.054596769240409     1.692178424724654    -1.392591515117154
    H                0.964596769240409    -0.292821575275346     3.106408484882846
    H               -3.780403230759591     0.832178424724654    -1.020591515117154
    H               -2.337403230759591     1.573178424724654    -1.671591515117154
    H               -3.806403230759591     0.580178424724654     1.771408484882846
    H               -1.869403230759591    -0.230821575275346     3.250408484882846
    H               -3.492873230759590     2.559618424724655    -0.759371515117154

}
e, wfn = energy('scf', return_wfn=True)
gdma(wfn)
dmavals = variable('DMA DISTRIBUTED MULTIPOLES')
charges = np.array(dmavals)
print(charges)
np.save('SSI-090PRO-129TRP-1-dimer.npy', np.array(charges))--------------------------------------------------------------------------

*** tstart() called on ds3
*** at Tue Apr 28 11:37:21 2020

   => Loading Basis Set <=

    Name: CC-PVDZ
    Role: ORBITAL
    Keyword: BASIS
    atoms 1-3, 12-20  entry C          line   138 file /theoryfs2/ds/metcalf/miniconda2/envs/tf2gpu/share/psi4/basis/cc-pvdz.gbs
    atoms 4-11, 22-30 entry H          line    22 file /theoryfs2/ds/metcalf/miniconda2/envs/tf2gpu/share/psi4/basis/cc-pvdz.gbs
    atoms 21          entry N          line   168 file /theoryfs2/ds/metcalf/miniconda2/envs/tf2gpu/share/psi4/basis/cc-pvdz.gbs

         ---------------------------------------------------------
                                   SCF
               by Justin Turney, Rob Parrish, Andy Simmonett
                          and Daniel G. A. Smith
                              RHF Reference
                        1 Threads,    500 MiB Core
         ---------------------------------------------------------

  ==> Geometry <==

    Molecular point group: c1
    Full point group: C1

    Geometry (in Angstrom), charge = 0, multiplicity = 1:

       Center              X                  Y                   Z               Mass
    ------------   -----------------  -----------------  -----------------  -----------------
         C            2.067596769240    -2.132821575275    -1.923591515117    12.000000000000
         C            2.491596769240    -1.270821575275    -3.091591515117    12.000000000000
         C            1.765596769240    -3.491821575275    -2.540591515117    12.000000000000
         H            1.202596769240    -1.711821575275    -1.408591515117     1.007825032230
         H            2.895596769240    -2.231821575275    -1.226591515117     1.007825032230
         H            1.604596769240    -0.826821575275    -3.546591515117     1.007825032230
         H            3.178596769240    -0.484821575275    -2.778591515117     1.007825032230
         H            2.123596769240    -4.264821575275    -1.859591515117     1.007825032230
         H            2.962636769240    -1.951941575275    -3.815601515117     1.007825032230
         H            2.361886769240    -3.512121575275    -3.464731515117     1.007825032230
         H            0.689306769240    -3.643931575275    -2.709281515117     1.007825032230
         C           -3.011403230760     1.572178424725    -0.815591515117    12.000000000000
         C           -0.818403230760     0.970178424725     0.448408484883    12.000000000000
         C           -2.245403230760     1.103178424725     0.360408484883    12.000000000000
         C           -0.526403230760     0.406178424725     1.716408484883    12.000000000000
         C           -2.750403230760     0.640178424725     1.531408484883    12.000000000000
         C            1.550596769240     0.992178424725    -0.003591515117    12.000000000000
         C            1.806596769240     0.433178424725     1.261408484883    12.000000000000
         C            0.244596769240     1.264178424725    -0.419591515117    12.000000000000
         C            0.773596769240     0.135178424725     2.133408484883    12.000000000000
         N           -1.728403230760     0.220178424725     2.347408484883    14.003074004430
         H            2.382596769240     1.219178424725    -0.657591515117     1.007825032230
         H            2.828596769240     0.240178424725     1.559408484883     1.007825032230
         H            0.054596769240     1.692178424725    -1.392591515117     1.007825032230
         H            0.964596769240    -0.292821575275     3.106408484883     1.007825032230
         H           -3.780403230760     0.832178424725    -1.020591515117     1.007825032230
         H           -2.337403230760     1.573178424725    -1.671591515117     1.007825032230
         H           -3.806403230760     0.580178424725     1.771408484883     1.007825032230
         H           -1.869403230760    -0.230821575275     3.250408484883     1.007825032230
         H           -3.492873230760     2.559618424725    -0.759371515117     1.007825032230

  Running in c1 symmetry.

  Rotational constants: A =      0.03537  B =      0.01302  C =      0.01168 [cm^-1]
  Rotational constants: A =   1060.42905  B =    390.20018  C =    350.13693 [MHz]
  Nuclear repulsion =  741.510417057212976

  Charge       = 0
  Multiplicity = 1
  Electrons    = 96
  Nalpha       = 48
  Nbeta        = 48

  ==> Algorithm <==

  SCF Algorithm Type is PK.
  DIIS enabled.
  MOM disabled.
  Fractional occupation disabled.
  Guess Type is SAD.
  Energy threshold   = 1.00e-06
  Density threshold  = 1.00e-10
  Integral threshold = 0.00e+00

  ==> Primary Basis <==

  Basis Set: CC-PVDZ
    Blend: CC-PVDZ
    Number of shells: 129
    Number of basis function: 267
    Number of Cartesian functions: 280
    Spherical Harmonics?: true
    Max angular momentum: 2

  ==> Pre-Iterations <==

   -------------------------------------------------------
    Irrep   Nso     Nmo     Nalpha   Nbeta   Ndocc  Nsocc
   -------------------------------------------------------
     A        267     267       0       0       0       0
   -------------------------------------------------------
    Total     267     267      48      48      48       0
   -------------------------------------------------------

  ==> Integral Setup <==

  Using integral reordering PK algorithm.
  Sizing the integral batches needed.
  Building batch lookup table.
   Calculation information:
      Number of atoms:                  30
      Number of AO shells:             129
      Number of primitives:            371
      Number of atomic orbitals:       280
      Number of basis functions:       267

      Integral cutoff                 1.00e-12
      Number of threads:                 1

	Batch   1 pq = [       0,    9405] index = [             0,44231715] size =     44231715
	Batch   2 pq = [    9405,   13301] index = [      44231715,88464951] size =     44233236
	Batch   3 pq = [   13301,   16290] index = [      88464951,132690195] size =     44225244
	Batch   4 pq = [   16290,   18810] index = [     132690195,176917455] size =     44227260
	Batch   5 pq = [   18810,   21030] index = [     176917455,221140965] size =     44223510
	Batch   6 pq = [   21030,   23037] index = [     221140965,265363203] size =     44222238
	Batch   7 pq = [   23037,   24883] index = [     265363203,309594286] size =     44231083
	Batch   8 pq = [   24883,   26601] index = [     309594286,353819901] size =     44225615
	Batch   9 pq = [   26601,   28214] index = [     353819901,398029005] size =     44209104
	Batch  10 pq = [   28214,   29740] index = [     398029005,442248670] size =     44219665
	Batch  11 pq = [   29740,   31191] index = [     442248670,486454836] size =     44206166
	Batch  12 pq = [   31191,   32578] index = [     486454836,530679331] size =     44224495
	Batch  13 pq = [   32578,   33908] index = [     530679331,574893186] size =     44213855
	Batch  14 pq = [   33908,   35188] index = [     574893186,619115266] size =     44222080
	Batch  15 pq = [   35188,   35778] index = [     619115266,640050531] size =     20935265
  Task number: 58
  Buffer size: 11059200
  Buffer per thread: 2
  We computed 34120691 shell quartets total.
  Whereas there are 35158305 unique shell quartets.

  ==> DiskJK: Disk-Based J/K Matrices <==

    J tasked:                  Yes
    K tasked:                  Yes
    wK tasked:                  No
    Memory [MiB]:              375
    Schwarz Cutoff:          1E-12

    OpenMP threads:              1

  Minimum eigenvalue in the overlap matrix is 2.3878290915E-04.
  Using Symmetric Orthogonalization.

  SCF Guess: Superposition of Atomic Densities via on-the-fly atomic UHF.

  ==> Iterations <==

                        Total Energy        Delta E     RMS |[F,P]|

   @RHF iter SAD:  -518.18493138246413   -5.18185e+02   0.00000e+00
   @RHF iter   1:  -518.46815398833667   -2.83223e-01   2.53363e-03 DIIS
   @RHF iter   2:  -518.73006084749841   -2.61907e-01   1.14551e-03 DIIS
   @RHF iter   3:  -518.77933148910597   -4.92706e-02   2.87695e-04 DIIS
   @RHF iter   4:  -518.78350039071984   -4.16890e-03   1.31243e-04 DIIS
   @RHF iter   5:  -518.78418444563329   -6.84055e-04   1.95338e-05 DIIS
   @RHF iter   6:  -518.78421493587223   -3.04902e-05   8.44727e-06 DIIS
   @RHF iter   7:  -518.78422093174299   -5.99587e-06   3.34829e-06 DIIS
   @RHF iter   8:  -518.78422242356373   -1.49182e-06   1.41438e-06 DIIS
   @RHF iter   9:  -518.78422275563435   -3.32071e-07   6.17191e-07 DIIS
   @RHF iter  10:  -518.78422282381132   -6.81770e-08   2.71139e-07 DIIS
   @RHF iter  11:  -518.78422283984401   -1.60327e-08   1.08586e-07 DIIS
   @RHF iter  12:  -518.78422284236956   -2.52555e-09   3.95589e-08 DIIS
   @RHF iter  13:  -518.78422284257329   -2.03727e-10   1.05172e-08 DIIS
   @RHF iter  14:  -518.78422284259398   -2.06910e-11   3.38944e-09 DIIS
   @RHF iter  15:  -518.78422284259625   -2.27374e-12   1.89300e-09 DIIS
   @RHF iter  16:  -518.78422284259887   -2.61480e-12   8.80777e-10 DIIS
   @RHF iter  17:  -518.78422284259636    2.50111e-12   3.73915e-10 DIIS
   @RHF iter  18:  -518.78422284259830   -1.93268e-12   1.38859e-10 DIIS
   @RHF iter  19:  -518.78422284259148    6.82121e-12   5.26871e-11 DIIS
  Energy and wave function converged.

  ==> Post-Iterations <==

    Orbital Energies [Eh]
    ---------------------

    Doubly Occupied:

       1A    -15.602464     2A    -11.264147     3A    -11.262747
       4A    -11.232159     5A    -11.231381     6A    -11.229687
       7A    -11.224027     8A    -11.222808     9A    -11.221491
      10A    -11.215838    11A    -11.205503    12A    -11.204917
      13A    -11.203041    14A     -1.295987    15A     -1.127397
      16A     -1.075999    17A     -1.056088    18A     -0.997047
      19A     -0.988211    20A     -0.932826    21A     -0.907336
      22A     -0.840065    23A     -0.803693    24A     -0.788847
      25A     -0.752739    26A     -0.719827    27A     -0.663397
      28A     -0.642956    29A     -0.625161    30A     -0.604843
      31A     -0.604230    32A     -0.592829    33A     -0.590205
      34A     -0.569594    35A     -0.553431    36A     -0.538997
      37A     -0.532031    38A     -0.524530    39A     -0.509479
      40A     -0.494379    41A     -0.477719    42A     -0.472675
      43A     -0.459250    44A     -0.456276    45A     -0.447421
      46A     -0.373291    47A     -0.294977    48A     -0.274878

    Virtual:

      49A      0.123209    50A      0.168645    51A      0.177041
      52A      0.180536    53A      0.194958    54A      0.206962
      55A      0.215227    56A      0.221954    57A      0.223407
      58A      0.238127    59A      0.241862    60A      0.253240
      61A      0.265251    62A      0.267773    63A      0.286643
      64A      0.296164    65A      0.299257    66A      0.324325
      67A      0.336545    68A      0.348663    69A      0.371441
      70A      0.379733    71A      0.393243    72A      0.407470
      73A      0.425084    74A      0.441161    75A      0.448258
      76A      0.469483    77A      0.479494    78A      0.505236
      79A      0.520200    80A      0.566421    81A      0.585882
      82A      0.604859    83A      0.615535    84A      0.626568
      85A      0.643679    86A      0.650951    87A      0.657361
      88A      0.662664    89A      0.673199    90A      0.688770
      91A      0.704847    92A      0.716805    93A      0.729887
      94A      0.733807    95A      0.741339    96A      0.747956
      97A      0.759445    98A      0.766071    99A      0.774525
     100A      0.780380   101A      0.789992   102A      0.790464
     103A      0.800147   104A      0.824155   105A      0.841342
     106A      0.850198   107A      0.861775   108A      0.866720
     109A      0.877113   110A      0.882450   111A      0.887815
     112A      0.890672   113A      0.900662   114A      0.908971
     115A      0.913612   116A      0.919784   117A      0.929050
     118A      0.930839   119A      0.942498   120A      0.946228
     121A      0.951442   122A      0.955717   123A      0.972408
     124A      0.977112   125A      0.992432   126A      1.004079
     127A      1.017009   128A      1.022352   129A      1.050333
     130A      1.079618   131A      1.081140   132A      1.089492
     133A      1.110506   134A      1.133152   135A      1.138705
     136A      1.145158   137A      1.151253   138A      1.180154
     139A      1.194471   140A      1.211042   141A      1.220965
     142A      1.236585   143A      1.242431   144A      1.268816
     145A      1.282580   146A      1.285129   147A      1.297572
     148A      1.327372   149A      1.333363   150A      1.359741
     151A      1.373421   152A      1.425504   153A      1.439020
     154A      1.448090   155A      1.480221   156A      1.499069
     157A      1.507191   158A      1.535186   159A      1.564431
     160A      1.596583   161A      1.617191   162A      1.620885
     163A      1.636407   164A      1.636539   165A      1.646077
     166A      1.670062   167A      1.696555   168A      1.699250
     169A      1.725084   170A      1.734592   171A      1.742013
     172A      1.750298   173A      1.763583   174A      1.785632
     175A      1.810462   176A      1.811822   177A      1.822813
     178A      1.844552   179A      1.869524   180A      1.870913
     181A      1.888951   182A      1.893032   183A      1.894851
     184A      1.904848   185A      1.913163   186A      1.916524
     187A      1.925695   188A      1.947463   189A      1.950820
     190A      1.963060   191A      1.964701   192A      1.969451
     193A      1.985865   194A      1.998316   195A      2.000433
     196A      2.004559   197A      2.012687   198A      2.020297
     199A      2.020621   200A      2.042589   201A      2.057967
     202A      2.075244   203A      2.084077   204A      2.089633
     205A      2.093833   206A      2.104568   207A      2.111028
     208A      2.130860   209A      2.145971   210A      2.165072
     211A      2.170633   212A      2.184330   213A      2.195144
     214A      2.232713   215A      2.235677   216A      2.250150
     217A      2.264618   218A      2.284585   219A      2.313662
     220A      2.316972   221A      2.318204   222A      2.338945
     223A      2.354964   224A      2.365520   225A      2.395332
     226A      2.418395   227A      2.434147   228A      2.451952
     229A      2.463577   230A      2.470074   231A      2.511445
     232A      2.531237   233A      2.564394   234A      2.590583
     235A      2.609869   236A      2.615331   237A      2.650772
     238A      2.663368   239A      2.679637   240A      2.711714
     241A      2.734373   242A      2.767855   243A      2.771175
     244A      2.773335   245A      2.782472   246A      2.789499
     247A      2.797579   248A      2.803644   249A      2.824492
     250A      2.845474   251A      2.852370   252A      2.864048
     253A      2.888619   254A      2.917545   255A      2.924443
     256A      2.942380   257A      2.979970   258A      3.033921
     259A      3.046640   260A      3.064608   261A      3.074281
     262A      3.119257   263A      3.203419   264A      3.301028
     265A      3.380696   266A      3.737241   267A      3.943362

    Final Occupation by Irrep:
              A
    DOCC [    48 ]

  @RHF Final Energy:  -518.78422284259148

   => Energetics <=

    Nuclear Repulsion Energy =            741.5104170572129760
    One-Electron Energy =               -2172.7716410795865158
    Two-Electron Energy =                 912.4770011797819507
    Total Energy =                       -518.7842228425914755

Computation Completed

Properties will be evaluated at   0.000000,   0.000000,   0.000000 [a0]

Properties computed using the SCF density matrix

  Nuclear Dipole Moment: [e a0]
     X:     7.4698      Y:    -9.8019      Z:   -15.5910

  Electronic Dipole Moment: [e a0]
     X:    -8.0587      Y:     9.5779      Z:    16.2612

  Dipole Moment: [e a0]
     X:    -0.5889      Y:    -0.2240      Z:     0.6702     Total:     0.9199

  Dipole Moment: [D]
     X:    -1.4968      Y:    -0.5694      Z:     1.7035     Total:     2.3381

*** tstop() called on ds3 at Tue Apr 28 11:44:47 2020
Module time:
	user time   =     266.87 seconds =       4.45 minutes
	system time =     102.94 seconds =       1.72 minutes
	total time  =        446 seconds =       7.43 minutes
Total time:
	user time   =     266.87 seconds =       4.45 minutes
	system time =     102.94 seconds =       1.72 minutes
	total time  =        446 seconds =       7.43 minutes
                                     G D M A

                                 by Anthony Stone

                           version 2.2.06, 22 June 2011

               Distributed Multipoles from Gaussian wavefunctions

Starting at 11:44:47 on 28 Apr 2020

Using SCF density matrix from file ./SSI/SSI-090PRO-129TRP-1-dimer.test.3123.fchk

                         Distributed Multipole Analysis

Standard DMA

Positions and radii in angstrom
Multipole moments in atomic units, ea_0^k for rank k

C          x =  2.067597  y = -2.132822  z = -1.923592 angstrom
           Maximum rank =  0   Radius =  0.650 angstrom
                   Q00  =  -0.098309

C          x =  2.491597  y = -1.270822  z = -3.091592 angstrom
           Maximum rank =  0   Radius =  0.650 angstrom
                   Q00  =  -0.205717

C          x =  1.765597  y = -3.491822  z = -2.540592 angstrom
           Maximum rank =  0   Radius =  0.650 angstrom
                   Q00  =  -0.238140

H          x =  1.202597  y = -1.711822  z = -1.408592 angstrom
           Maximum rank =  0   Radius =  0.325 angstrom
                   Q00  =   0.071109

H          x =  2.895597  y = -2.231822  z = -1.226592 angstrom
           Maximum rank =  0   Radius =  0.325 angstrom
                   Q00  =   0.048132

H          x =  1.604597  y = -0.826822  z = -3.546592 angstrom
           Maximum rank =  0   Radius =  0.325 angstrom
                   Q00  =   0.074138

H          x =  3.178597  y = -0.484822  z = -2.778592 angstrom
           Maximum rank =  0   Radius =  0.325 angstrom
                   Q00  =   0.076272

H          x =  2.123597  y = -4.264822  z = -1.859592 angstrom
           Maximum rank =  0   Radius =  0.325 angstrom
                   Q00  =   0.081252

H          x =  2.962637  y = -1.951942  z = -3.815602 angstrom
           Maximum rank =  0   Radius =  0.325 angstrom
                   Q00  =   0.048441

H          x =  2.361887  y = -3.512122  z = -3.464732 angstrom
           Maximum rank =  0   Radius =  0.325 angstrom
                   Q00  =   0.060390

H          x =  0.689307  y = -3.643932  z = -2.709282 angstrom
           Maximum rank =  0   Radius =  0.325 angstrom
                   Q00  =   0.080372

C          x = -3.011403  y =  1.572178  z = -0.815592 angstrom
           Maximum rank =  0   Radius =  0.650 angstrom
                   Q00  =  -0.226251

C          x = -0.818403  y =  0.970178  z =  0.448408 angstrom
           Maximum rank =  0   Radius =  0.650 angstrom
                   Q00  =  -0.049374

C          x = -2.245403  y =  1.103178  z =  0.360408 angstrom
           Maximum rank =  0   Radius =  0.650 angstrom
                   Q00  =  -0.111920

C          x = -0.526403  y =  0.406178  z =  1.716408 angstrom
           Maximum rank =  0   Radius =  0.650 angstrom
                   Q00  =   0.290517

C          x = -2.750403  y =  0.640178  z =  1.531408 angstrom
           Maximum rank =  0   Radius =  0.650 angstrom
                   Q00  =   0.075296

C          x =  1.550597  y =  0.992178  z = -0.003592 angstrom
           Maximum rank =  0   Radius =  0.650 angstrom
                   Q00  =  -0.084436

C          x =  1.806597  y =  0.433178  z =  1.261408 angstrom
           Maximum rank =  0   Radius =  0.650 angstrom
                   Q00  =  -0.070373

C          x =  0.244597  y =  1.264178  z = -0.419592 angstrom
           Maximum rank =  0   Radius =  0.650 angstrom
                   Q00  =  -0.105725

C          x =  0.773597  y =  0.135178  z =  2.133408 angstrom
           Maximum rank =  0   Radius =  0.650 angstrom
                   Q00  =  -0.117025

N          x = -1.728403  y =  0.220178  z =  2.347408 angstrom
           Maximum rank =  0   Radius =  0.650 angstrom
                   Q00  =  -0.496133

H          x =  2.382597  y =  1.219178  z = -0.657592 angstrom
           Maximum rank =  0   Radius =  0.325 angstrom
                   Q00  =   0.062670

H          x =  2.828597  y =  0.240178  z =  1.559408 angstrom
           Maximum rank =  0   Radius =  0.325 angstrom
                   Q00  =   0.065066

H          x =  0.054597  y =  1.692178  z = -1.392592 angstrom
           Maximum rank =  0   Radius =  0.325 angstrom
                   Q00  =   0.071434

H          x =  0.964597  y = -0.292822  z =  3.106408 angstrom
           Maximum rank =  0   Radius =  0.325 angstrom
                   Q00  =   0.073358

H          x = -3.780403  y =  0.832178  z = -1.020592 angstrom
           Maximum rank =  0   Radius =  0.325 angstrom
                   Q00  =   0.100986

H          x = -2.337403  y =  1.573178  z = -1.671592 angstrom
           Maximum rank =  0   Radius =  0.325 angstrom
                   Q00  =   0.105900

H          x = -3.806403  y =  0.580178  z =  1.771408 angstrom
           Maximum rank =  0   Radius =  0.325 angstrom
                   Q00  =   0.099407

H          x = -1.869403  y = -0.230822  z =  3.250408 angstrom
           Maximum rank =  0   Radius =  0.325 angstrom
                   Q00  =   0.216730

H          x = -3.492873  y =  2.559618  z = -0.759372 angstrom
           Maximum rank =  0   Radius =  0.325 angstrom
                   Q00  =   0.101932

Total multipoles referred to origin at
           x =   0.000000,  y =    0.000000,  z =    0.000000 angstrom
                   Q00  =  -0.000000

Finished at 11:44:47 on 28 Apr 2020

  DMA results are available in the Python driver through the
	  variable('DMA DISTRIBUTED MULTIPOLES')
  and
	  variable('DMA TOTAL MULTIPOLES')
  commands.

    Psi4 stopped on: Tuesday, 28 April 2020 11:44AM
    Psi4 wall time for execution: 0:07:26.22

*** Psi4 exiting successfully. Buy a developer a beer!
