                               Psi4 1.3.2 release

  ==> Input File <==

--------------------------------------------------------------------------
import numpy as np
set {scf_type pk
basis cc-pvdz
d_convergence 10
gdma_switch   0
gdma_limit    0
gdma_origin   [ 0.0,  0.0,  0.0 ]
}
molecule test {
    units Angstrom
    1 1
    --
    1 1
    C                0.775525819737544    -0.198373268518105     1.165346451443201
    C                1.051525819737544    -1.695373268518105     1.242346451443201
    C                1.321525819737544     1.711626731481895    -0.302653548556799
    N                1.397525819737544     0.424626731481895    -0.007653548556799
    N                0.629525819737544     2.528626731481894     0.466346451443201
    N                1.930525819737544     2.181626731481895    -1.371653548556799
    H               -0.283474180262456     0.012626731481895     1.243346451443201
    H                1.213525819737544     0.254626731481895     2.058346451443201
    H                0.818525819737544    -2.169373268518106     0.288346451443201
    H                0.404525819737544    -2.126373268518106     2.007346451443201
    H                1.787525819737544    -0.183373268518105    -0.711653548556799
    H                0.137525819737544     2.158626731481894     1.261346451443201
    H                0.560525819737544     3.507626731481895     0.242346451443201
    H                2.493525819737544     1.571626731481895    -1.943653548556799
    H                1.878525819737544     3.162626731481894    -1.595653548556799
    H                2.095565819737544    -1.892793268518105     1.526956451443201
    C               -2.407474180262456    -1.598373268518105     0.201346451443201
    C               -2.787474180262456    -2.709373268518105    -0.778653548556799
    O               -1.636474180262456    -0.604373268518105    -0.444653548556799
    H               -3.322474180262456    -1.138373268518105     0.579346451443201
    H               -1.859474180262456    -2.017373268518106     1.046346451443201
    H               -3.537474180262457    -3.357373268518105    -0.319653548556799
    H               -1.939474180262456    -0.512373268518105    -1.360653548556799
    H               -1.900734180262456    -3.291723268518105    -1.069453548556799
    H               -3.196814180262456    -2.272543268518106    -1.701483548556799

}
e, wfn = energy('scf', return_wfn=True)
gdma(wfn)
dmavals = variable('DMA DISTRIBUTED MULTIPOLES')
charges = np.array(dmavals)
print(charges)
np.save('SSI-090ARG-187SER-1-dimer.npy', np.array(charges))--------------------------------------------------------------------------

*** tstart() called on ds3
*** at Mon Apr 27 15:51:08 2020

   => Loading Basis Set <=

    Name: CC-PVDZ
    Role: ORBITAL
    Keyword: BASIS
    atoms 1-3, 17-18  entry C          line   138 file /theoryfs2/ds/metcalf/miniconda2/envs/tf2gpu/share/psi4/basis/cc-pvdz.gbs
    atoms 4-6         entry N          line   168 file /theoryfs2/ds/metcalf/miniconda2/envs/tf2gpu/share/psi4/basis/cc-pvdz.gbs
    atoms 7-16, 20-25 entry H          line    22 file /theoryfs2/ds/metcalf/miniconda2/envs/tf2gpu/share/psi4/basis/cc-pvdz.gbs
    atoms 19          entry O          line   198 file /theoryfs2/ds/metcalf/miniconda2/envs/tf2gpu/share/psi4/basis/cc-pvdz.gbs

         ---------------------------------------------------------
                                   SCF
               by Justin Turney, Rob Parrish, Andy Simmonett
                          and Daniel G. A. Smith
                              RHF Reference
                        1 Threads,    500 MiB Core
         ---------------------------------------------------------

  ==> Geometry <==

    Molecular point group: c1
    Full point group: C1

    Geometry (in Angstrom), charge = 1, multiplicity = 1:

       Center              X                  Y                   Z               Mass
    ------------   -----------------  -----------------  -----------------  -----------------
         C            0.775525819738    -0.198373268518     1.165346451443    12.000000000000
         C            1.051525819738    -1.695373268518     1.242346451443    12.000000000000
         C            1.321525819738     1.711626731482    -0.302653548557    12.000000000000
         N            1.397525819738     0.424626731482    -0.007653548557    14.003074004430
         N            0.629525819738     2.528626731482     0.466346451443    14.003074004430
         N            1.930525819738     2.181626731482    -1.371653548557    14.003074004430
         H           -0.283474180262     0.012626731482     1.243346451443     1.007825032230
         H            1.213525819738     0.254626731482     2.058346451443     1.007825032230
         H            0.818525819738    -2.169373268518     0.288346451443     1.007825032230
         H            0.404525819738    -2.126373268518     2.007346451443     1.007825032230
         H            1.787525819738    -0.183373268518    -0.711653548557     1.007825032230
         H            0.137525819738     2.158626731482     1.261346451443     1.007825032230
         H            0.560525819738     3.507626731482     0.242346451443     1.007825032230
         H            2.493525819738     1.571626731482    -1.943653548557     1.007825032230
         H            1.878525819738     3.162626731482    -1.595653548557     1.007825032230
         H            2.095565819738    -1.892793268518     1.526956451443     1.007825032230
         C           -2.407474180262    -1.598373268518     0.201346451443    12.000000000000
         C           -2.787474180262    -2.709373268518    -0.778653548557    12.000000000000
         O           -1.636474180262    -0.604373268518    -0.444653548557    15.994914619570
         H           -3.322474180262    -1.138373268518     0.579346451443     1.007825032230
         H           -1.859474180262    -2.017373268518     1.046346451443     1.007825032230
         H           -3.537474180262    -3.357373268518    -0.319653548557     1.007825032230
         H           -1.939474180262    -0.512373268518    -1.360653548557     1.007825032230
         H           -1.900734180262    -3.291723268518    -1.069453548557     1.007825032230
         H           -3.196814180262    -2.272543268518    -1.701483548557     1.007825032230

  Running in c1 symmetry.

  Rotational constants: A =      0.07286  B =      0.02193  C =      0.01955 [cm^-1]
  Rotational constants: A =   2184.20363  B =    657.51919  C =    586.07667 [MHz]
  Nuclear repulsion =  490.192493950973187

  Charge       = 1
  Multiplicity = 1
  Electrons    = 74
  Nalpha       = 37
  Nbeta        = 37

  ==> Algorithm <==

  SCF Algorithm Type is PK.
  DIIS enabled.
  MOM disabled.
  Fractional occupation disabled.
  Guess Type is SAD.
  Energy threshold   = 1.00e-06
  Density threshold  = 1.00e-10
  Integral threshold = 0.00e+00

  ==> Primary Basis <==

  Basis Set: CC-PVDZ
    Blend: CC-PVDZ
    Number of shells: 102
    Number of basis function: 206
    Number of Cartesian functions: 215
    Spherical Harmonics?: true
    Max angular momentum: 2

  ==> Pre-Iterations <==

   -------------------------------------------------------
    Irrep   Nso     Nmo     Nalpha   Nbeta   Ndocc  Nsocc
   -------------------------------------------------------
     A        206     206       0       0       0       0
   -------------------------------------------------------
    Total     206     206      37      37      37       0
   -------------------------------------------------------

  ==> Integral Setup <==

  Using integral reordering PK algorithm.
  Sizing the integral batches needed.
  Building batch lookup table.
   Calculation information:
      Number of atoms:                  25
      Number of AO shells:             102
      Number of primitives:            278
      Number of atomic orbitals:       215
      Number of basis functions:       206

      Integral cutoff                 1.00e-12
      Number of threads:                 1

	Batch   1 pq = [       0,    9405] index = [             0,44231715] size =     44231715
	Batch   2 pq = [    9405,   13301] index = [      44231715,88464951] size =     44233236
	Batch   3 pq = [   13301,   16290] index = [      88464951,132690195] size =     44225244
	Batch   4 pq = [   16290,   18810] index = [     132690195,176917455] size =     44227260
	Batch   5 pq = [   18810,   21030] index = [     176917455,221140965] size =     44223510
	Batch   6 pq = [   21030,   21321] index = [     221140965,227303181] size =      6162216
  Task number: 21
  Buffer size: 11059200
  Buffer per thread: 2
  We computed 12135041 shell quartets total.
  Whereas there are 13799631 unique shell quartets.

  ==> DiskJK: Disk-Based J/K Matrices <==

    J tasked:                  Yes
    K tasked:                  Yes
    wK tasked:                  No
    Memory [MiB]:              375
    Schwarz Cutoff:          1E-12

    OpenMP threads:              1

  Minimum eigenvalue in the overlap matrix is 3.5541839637E-03.
  Using Symmetric Orthogonalization.

  SCF Guess: Superposition of Atomic Densities via on-the-fly atomic UHF.

  ==> Iterations <==

                        Total Energy        Delta E     RMS |[F,P]|

   @RHF iter SAD:  -435.93444979953983   -4.35934e+02   0.00000e+00
   @RHF iter   1:  -436.47148157868941   -5.37032e-01   3.18223e-03 DIIS
   @RHF iter   2:  -436.68447188949341   -2.12990e-01   1.33845e-03 DIIS
   @RHF iter   3:  -436.71793176168711   -3.34599e-02   3.20398e-04 DIIS
   @RHF iter   4:  -436.72105527384178   -3.12351e-03   8.57313e-05 DIIS
   @RHF iter   5:  -436.72123408850092   -1.78815e-04   2.16709e-05 DIIS
   @RHF iter   6:  -436.72125145552974   -1.73670e-05   6.02072e-06 DIIS
   @RHF iter   7:  -436.72125282884747   -1.37332e-06   1.70952e-06 DIIS
   @RHF iter   8:  -436.72125296625802   -1.37411e-07   5.45578e-07 DIIS
   @RHF iter   9:  -436.72125297732754   -1.10695e-08   1.02195e-07 DIIS
   @RHF iter  10:  -436.72125297784936   -5.21823e-10   3.45948e-08 DIIS
   @RHF iter  11:  -436.72125297788676   -3.74030e-11   1.09249e-08 DIIS
   @RHF iter  12:  -436.72125297789103   -4.26326e-12   3.36912e-09 DIIS
   @RHF iter  13:  -436.72125297789199   -9.66338e-13   1.15790e-09 DIIS
   @RHF iter  14:  -436.72125297789631   -4.32010e-12   3.27570e-10 DIIS
   @RHF iter  15:  -436.72125297789330    3.01270e-12   7.45923e-11 DIIS
  Energy and wave function converged.

  ==> Post-Iterations <==

    Orbital Energies [Eh]
    ---------------------

    Doubly Occupied:

       1A    -20.667661     2A    -15.776306     3A    -15.774658
       4A    -15.765044     5A    -11.573577     6A    -11.413172
       7A    -11.381609     8A    -11.358518     9A    -11.323321
      10A     -1.532600    11A     -1.471769    12A     -1.387726
      13A     -1.380061    14A     -1.171824    15A     -1.109310
      16A     -1.041777    17A     -1.003235    18A     -0.961911
      19A     -0.953318    20A     -0.922111    21A     -0.846047
      22A     -0.844841    23A     -0.817303    24A     -0.782933
      25A     -0.777269    26A     -0.748564    27A     -0.732102
      28A     -0.722915    29A     -0.673240    30A     -0.653900
      31A     -0.646624    32A     -0.636246    33A     -0.625145
      34A     -0.605916    35A     -0.583245    36A     -0.562107
      37A     -0.544370

    Virtual:

      38A      0.002805    39A      0.037717    40A      0.041090
      41A      0.052560    42A      0.066455    43A      0.078743
      44A      0.087004    45A      0.107141    46A      0.121545
      47A      0.127928    48A      0.141763    49A      0.152629
      50A      0.166765    51A      0.180765    52A      0.192286
      53A      0.199915    54A      0.223704    55A      0.241731
      56A      0.259472    57A      0.281794    58A      0.297479
      59A      0.318549    60A      0.357812    61A      0.365839
      62A      0.462407    63A      0.480115    64A      0.493016
      65A      0.508309    66A      0.513523    67A      0.524952
      68A      0.544973    69A      0.552906    70A      0.556549
      71A      0.570666    72A      0.574077    73A      0.581392
      74A      0.619262    75A      0.656345    76A      0.694428
      77A      0.707172    78A      0.719389    79A      0.730216
      80A      0.734784    81A      0.744596    82A      0.757846
      83A      0.771845    84A      0.772547    85A      0.778857
      86A      0.784672    87A      0.791699    88A      0.802901
      89A      0.811825    90A      0.822452    91A      0.831755
      92A      0.839243    93A      0.851493    94A      0.857513
      95A      0.872593    96A      0.896008    97A      0.935308
      98A      0.955466    99A      0.974898   100A      0.987376
     101A      1.020161   102A      1.059091   103A      1.063077
     104A      1.095120   105A      1.125758   106A      1.136379
     107A      1.140388   108A      1.184561   109A      1.206754
     110A      1.212329   111A      1.231075   112A      1.243232
     113A      1.269817   114A      1.300823   115A      1.354313
     116A      1.364468   117A      1.397870   118A      1.422710
     119A      1.445612   120A      1.459135   121A      1.507510
     122A      1.527642   123A      1.549674   124A      1.562515
     125A      1.574401   126A      1.581664   127A      1.595434
     128A      1.622119   129A      1.647745   130A      1.653268
     131A      1.701749   132A      1.716467   133A      1.729959
     134A      1.738867   135A      1.743721   136A      1.759058
     137A      1.779296   138A      1.783664   139A      1.799062
     140A      1.806739   141A      1.812551   142A      1.831403
     143A      1.835738   144A      1.847323   145A      1.855778
     146A      1.861537   147A      1.888138   148A      1.892314
     149A      1.901408   150A      1.946914   151A      1.957445
     152A      1.966310   153A      1.992413   154A      2.006578
     155A      2.026328   156A      2.054482   157A      2.078891
     158A      2.089767   159A      2.128613   160A      2.147485
     161A      2.181086   162A      2.200220   163A      2.210754
     164A      2.234238   165A      2.244555   166A      2.275069
     167A      2.288332   168A      2.300310   169A      2.324283
     170A      2.338917   171A      2.349292   172A      2.381588
     173A      2.395868   174A      2.412538   175A      2.424172
     176A      2.442754   177A      2.451943   178A      2.482521
     179A      2.500725   180A      2.579504   181A      2.641326
     182A      2.650125   183A      2.661430   184A      2.671574
     185A      2.678384   186A      2.695692   187A      2.713386
     188A      2.730261   189A      2.787863   190A      2.791985
     191A      2.815794   192A      2.829272   193A      2.860222
     194A      2.868805   195A      2.903507   196A      2.961468
     197A      3.082498   198A      3.113419   199A      3.179509
     200A      3.192782   201A      3.295063   202A      3.364623
     203A      3.532983   204A      3.595895   205A      3.678660
     206A      4.022197

    Final Occupation by Irrep:
              A
    DOCC [    37 ]

  @RHF Final Energy:  -436.72125297789330

   => Energetics <=

    Nuclear Repulsion Energy =            490.1924939509731871
    One-Electron Energy =               -1554.2829425063359849
    Two-Electron Energy =                 627.3691955774695543
    Total Energy =                       -436.7212529778933003

Computation Completed

Properties will be evaluated at   0.000000,   0.000000,   0.000000 [a0]

Properties computed using the SCF density matrix

  Nuclear Dipole Moment: [e a0]
     X:    -4.3787      Y:    -7.7931      Z:     1.4550

  Electronic Dipole Moment: [e a0]
     X:     5.8387      Y:     9.9516      Z:    -2.1688

  Dipole Moment: [e a0]
     X:     1.4600      Y:     2.1585      Z:    -0.7137     Total:     2.7019

  Dipole Moment: [D]
     X:     3.7109      Y:     5.4863      Z:    -1.8141     Total:     6.8674

*** tstop() called on ds3 at Mon Apr 27 15:52:47 2020
Module time:
	user time   =      73.24 seconds =       1.22 minutes
	system time =      29.51 seconds =       0.49 minutes
	total time  =         99 seconds =       1.65 minutes
Total time:
	user time   =      73.24 seconds =       1.22 minutes
	system time =      29.51 seconds =       0.49 minutes
	total time  =         99 seconds =       1.65 minutes
                                     G D M A

                                 by Anthony Stone

                           version 2.2.06, 22 June 2011

               Distributed Multipoles from Gaussian wavefunctions

Starting at 15:52:47 on 27 Apr 2020

Using SCF density matrix from file ./SSI/SSI-090ARG-187SER-1-dimer.test.20216.fchk

                         Distributed Multipole Analysis

Standard DMA

Positions and radii in angstrom
Multipole moments in atomic units, ea_0^k for rank k

C          x =  0.775526  y = -0.198373  z =  1.165346 angstrom
           Maximum rank =  0   Radius =  0.650 angstrom
                   Q00  =  -0.024561

C          x =  1.051526  y = -1.695373  z =  1.242346 angstrom
           Maximum rank =  0   Radius =  0.650 angstrom
                   Q00  =  -0.212656

C          x =  1.321526  y =  1.711627  z = -0.302654 angstrom
           Maximum rank =  0   Radius =  0.650 angstrom
                   Q00  =   1.084115

N          x =  1.397526  y =  0.424627  z = -0.007654 angstrom
           Maximum rank =  0   Radius =  0.650 angstrom
                   Q00  =  -0.481280

N          x =  0.629526  y =  2.528627  z =  0.466346 angstrom
           Maximum rank =  0   Radius =  0.650 angstrom
                   Q00  =  -0.578541

N          x =  1.930526  y =  2.181627  z = -1.371654 angstrom
           Maximum rank =  0   Radius =  0.650 angstrom
                   Q00  =  -0.598705

H          x = -0.283474  y =  0.012627  z =  1.243346 angstrom
           Maximum rank =  0   Radius =  0.325 angstrom
                   Q00  =   0.100948

H          x =  1.213526  y =  0.254627  z =  2.058346 angstrom
           Maximum rank =  0   Radius =  0.325 angstrom
                   Q00  =   0.074154

H          x =  0.818526  y = -2.169373  z =  0.288346 angstrom
           Maximum rank =  0   Radius =  0.325 angstrom
                   Q00  =   0.093176

H          x =  0.404526  y = -2.126373  z =  2.007346 angstrom
           Maximum rank =  0   Radius =  0.325 angstrom
                   Q00  =   0.132101

H          x =  1.787526  y = -0.183373  z = -0.711654 angstrom
           Maximum rank =  0   Radius =  0.325 angstrom
                   Q00  =   0.224842

H          x =  0.137526  y =  2.158627  z =  1.261346 angstrom
           Maximum rank =  0   Radius =  0.325 angstrom
                   Q00  =   0.274609

H          x =  0.560526  y =  3.507627  z =  0.242346 angstrom
           Maximum rank =  0   Radius =  0.325 angstrom
                   Q00  =   0.262221

H          x =  2.493526  y =  1.571627  z = -1.943654 angstrom
           Maximum rank =  0   Radius =  0.325 angstrom
                   Q00  =   0.263632

H          x =  1.878526  y =  3.162627  z = -1.595654 angstrom
           Maximum rank =  0   Radius =  0.325 angstrom
                   Q00  =   0.261701

H          x =  2.095566  y = -1.892793  z =  1.526956 angstrom
           Maximum rank =  0   Radius =  0.325 angstrom
                   Q00  =   0.104822

C          x = -2.407474  y = -1.598373  z =  0.201346 angstrom
           Maximum rank =  0   Radius =  0.650 angstrom
                   Q00  =   0.043899

C          x = -2.787474  y = -2.709373  z = -0.778654 angstrom
           Maximum rank =  0   Radius =  0.650 angstrom
                   Q00  =  -0.245861

O          x = -1.636474  y = -0.604373  z = -0.444654 angstrom
           Maximum rank =  0   Radius =  0.650 angstrom
                   Q00  =  -0.597880

H          x = -3.322474  y = -1.138373  z =  0.579346 angstrom
           Maximum rank =  0   Radius =  0.325 angstrom
                   Q00  =   0.065334

H          x = -1.859474  y = -2.017373  z =  1.046346 angstrom
           Maximum rank =  0   Radius =  0.325 angstrom
                   Q00  =   0.072481

H          x = -3.537474  y = -3.357373  z = -0.319654 angstrom
           Maximum rank =  0   Radius =  0.325 angstrom
                   Q00  =   0.113418

H          x = -1.939474  y = -0.512373  z = -1.360654 angstrom
           Maximum rank =  0   Radius =  0.325 angstrom
                   Q00  =   0.400639

H          x = -1.900734  y = -3.291723  z = -1.069454 angstrom
           Maximum rank =  0   Radius =  0.325 angstrom
                   Q00  =   0.086758

H          x = -3.196814  y = -2.272543  z = -1.701484 angstrom
           Maximum rank =  0   Radius =  0.325 angstrom
                   Q00  =   0.080634

Total multipoles referred to origin at
           x =   0.000000,  y =    0.000000,  z =    0.000000 angstrom
                   Q00  =   1.000000

Finished at 15:52:47 on 27 Apr 2020

  DMA results are available in the Python driver through the
	  variable('DMA DISTRIBUTED MULTIPOLES')
  and
	  variable('DMA TOTAL MULTIPOLES')
  commands.

    Psi4 stopped on: Monday, 27 April 2020 03:52PM
    Psi4 wall time for execution: 0:01:39.62

*** Psi4 exiting successfully. Buy a developer a beer!
