                               Psi4 1.3.2 release

  ==> Input File <==

--------------------------------------------------------------------------
import numpy as np
set {scf_type pk
basis cc-pvdz
d_convergence 10
gdma_switch   0
gdma_limit    0
gdma_origin   [ 0.0,  0.0,  0.0 ]
}
molecule test {
    units Angstrom
    0 1
    --
    0 1
    C               -2.368897224932754    -0.043869805119648     2.522985132910911
    C               -2.522897224932754    -1.449869805119648     3.111985132910911
    H               -3.208897224932755     0.574130194880352     2.838985132910911
    H               -1.436897224932754     0.417130194880352     2.849985132910911
    H               -2.340897224932754    -0.074869805119648     1.433985132910911
    H               -1.671897224932754    -2.041869805119648     2.775985132910911
    H               -3.447087224932754    -1.918753805119648     2.743165132910911
    H               -2.520037224932755    -1.439134805119648     4.211925132910912
    C                0.566102775067246     2.079130194880352     0.679985132910911
    C                0.434102775067246    -0.348869805119648     0.076985132910911
    C                0.723102775067246     0.954130194880352    -0.307014867089089
    C                0.555102775067246    -1.395869805119648    -0.823014867089089
    C                1.125102775067246     1.195130194880352    -1.620014867089089
    C                0.967102775067246    -1.148869805119648    -2.122014867089089
    C                1.248102775067246     0.146130194880352    -2.520014867089089
    H                0.124102775067246    -0.554869805119648     1.091985132910911
    H                0.327102775067246    -2.406869805119648    -0.511014867089089
    H                0.976102775067246     1.776130194880352     1.644985132910911
    H               -0.502897224932754     2.251130194880352     0.812985132910911
    H                1.369102775067246     2.174130194880352    -1.992014867089089
    H                1.069102775067246    -1.965869805119648    -2.824014867089089
    H                1.572102775067246     0.339130194880352    -3.535014867089088
    H                1.035622775067246     3.023200194880352     0.366495132910911

}
e, wfn = energy('scf', return_wfn=True)
gdma(wfn)
dmavals = variable('DMA DISTRIBUTED MULTIPOLES')
charges = np.array(dmavals)
print(charges)
np.save('SSI-053ILE-069PHE-1-dimer.npy', np.array(charges))--------------------------------------------------------------------------

*** tstart() called on ds3
*** at Tue Apr 28 00:29:09 2020

   => Loading Basis Set <=

    Name: CC-PVDZ
    Role: ORBITAL
    Keyword: BASIS
    atoms 1-2, 9-15  entry C          line   138 file /theoryfs2/ds/metcalf/miniconda2/envs/tf2gpu/share/psi4/basis/cc-pvdz.gbs
    atoms 3-8, 16-23 entry H          line    22 file /theoryfs2/ds/metcalf/miniconda2/envs/tf2gpu/share/psi4/basis/cc-pvdz.gbs

         ---------------------------------------------------------
                                   SCF
               by Justin Turney, Rob Parrish, Andy Simmonett
                          and Daniel G. A. Smith
                              RHF Reference
                        1 Threads,    500 MiB Core
         ---------------------------------------------------------

  ==> Geometry <==

    Molecular point group: c1
    Full point group: C1

    Geometry (in Angstrom), charge = 0, multiplicity = 1:

       Center              X                  Y                   Z               Mass
    ------------   -----------------  -----------------  -----------------  -----------------
         C           -2.368897224933    -0.043869805120     2.522985132911    12.000000000000
         C           -2.522897224933    -1.449869805120     3.111985132911    12.000000000000
         H           -3.208897224933     0.574130194880     2.838985132911     1.007825032230
         H           -1.436897224933     0.417130194880     2.849985132911     1.007825032230
         H           -2.340897224933    -0.074869805120     1.433985132911     1.007825032230
         H           -1.671897224933    -2.041869805120     2.775985132911     1.007825032230
         H           -3.447087224933    -1.918753805120     2.743165132911     1.007825032230
         H           -2.520037224933    -1.439134805120     4.211925132911     1.007825032230
         C            0.566102775067     2.079130194880     0.679985132911    12.000000000000
         C            0.434102775067    -0.348869805120     0.076985132911    12.000000000000
         C            0.723102775067     0.954130194880    -0.307014867089    12.000000000000
         C            0.555102775067    -1.395869805120    -0.823014867089    12.000000000000
         C            1.125102775067     1.195130194880    -1.620014867089    12.000000000000
         C            0.967102775067    -1.148869805120    -2.122014867089    12.000000000000
         C            1.248102775067     0.146130194880    -2.520014867089    12.000000000000
         H            0.124102775067    -0.554869805120     1.091985132911     1.007825032230
         H            0.327102775067    -2.406869805120    -0.511014867089     1.007825032230
         H            0.976102775067     1.776130194880     1.644985132911     1.007825032230
         H           -0.502897224933     2.251130194880     0.812985132911     1.007825032230
         H            1.369102775067     2.174130194880    -1.992014867089     1.007825032230
         H            1.069102775067    -1.965869805120    -2.824014867089     1.007825032230
         H            1.572102775067     0.339130194880    -3.535014867089     1.007825032230
         H            1.035622775067     3.023200194880     0.366495132911     1.007825032230

  Running in c1 symmetry.

  Rotational constants: A =      0.08073  B =      0.02400  C =      0.01934 [cm^-1]
  Rotational constants: A =   2420.27956  B =    719.39010  C =    579.72831 [MHz]
  Nuclear repulsion =  406.277385928690535

  Charge       = 0
  Multiplicity = 1
  Electrons    = 68
  Nalpha       = 34
  Nbeta        = 34

  ==> Algorithm <==

  SCF Algorithm Type is PK.
  DIIS enabled.
  MOM disabled.
  Fractional occupation disabled.
  Guess Type is SAD.
  Energy threshold   = 1.00e-06
  Density threshold  = 1.00e-10
  Integral threshold = 0.00e+00

  ==> Primary Basis <==

  Basis Set: CC-PVDZ
    Blend: CC-PVDZ
    Number of shells: 96
    Number of basis function: 196
    Number of Cartesian functions: 205
    Spherical Harmonics?: true
    Max angular momentum: 2

  ==> Pre-Iterations <==

   -------------------------------------------------------
    Irrep   Nso     Nmo     Nalpha   Nbeta   Ndocc  Nsocc
   -------------------------------------------------------
     A        196     196       0       0       0       0
   -------------------------------------------------------
    Total     196     196      34      34      34       0
   -------------------------------------------------------

  ==> Integral Setup <==

  Using integral reordering PK algorithm.
  Sizing the integral batches needed.
  Building batch lookup table.
   Calculation information:
      Number of atoms:                  23
      Number of AO shells:              96
      Number of primitives:            268
      Number of atomic orbitals:       205
      Number of basis functions:       196

      Integral cutoff                 1.00e-12
      Number of threads:                 1

	Batch   1 pq = [       0,    9405] index = [             0,44231715] size =     44231715
	Batch   2 pq = [    9405,   13301] index = [      44231715,88464951] size =     44233236
	Batch   3 pq = [   13301,   16290] index = [      88464951,132690195] size =     44225244
	Batch   4 pq = [   16290,   18810] index = [     132690195,176917455] size =     44227260
	Batch   5 pq = [   18810,   19306] index = [     176917455,186370471] size =      9453016
  Task number: 17
  Buffer size: 11059200
  Buffer per thread: 2
  We computed 9287381 shell quartets total.
  Whereas there are 10841496 unique shell quartets.

  ==> DiskJK: Disk-Based J/K Matrices <==

    J tasked:                  Yes
    K tasked:                  Yes
    wK tasked:                  No
    Memory [MiB]:              375
    Schwarz Cutoff:          1E-12

    OpenMP threads:              1

  Minimum eigenvalue in the overlap matrix is 2.9409838791E-04.
  Using Symmetric Orthogonalization.

  SCF Guess: Superposition of Atomic Densities via on-the-fly atomic UHF.

  ==> Iterations <==

                        Total Energy        Delta E     RMS |[F,P]|

   @RHF iter SAD:  -347.92130463898673   -3.47921e+02   0.00000e+00
   @RHF iter   1:  -348.76597233901902   -8.44668e-01   2.90418e-03 DIIS
   @RHF iter   2:  -348.95981682945802   -1.93844e-01   1.20525e-03 DIIS
   @RHF iter   3:  -348.99020124046393   -3.03844e-02   2.58403e-04 DIIS
   @RHF iter   4:  -348.99269420111438   -2.49296e-03   5.01474e-05 DIIS
   @RHF iter   5:  -348.99276309454626   -6.88934e-05   1.64913e-05 DIIS
   @RHF iter   6:  -348.99276989171301   -6.79717e-06   4.48946e-06 DIIS
   @RHF iter   7:  -348.99277047397806   -5.82265e-07   1.34775e-06 DIIS
   @RHF iter   8:  -348.99277053177872   -5.78007e-08   3.18339e-07 DIIS
   @RHF iter   9:  -348.99277053911675   -7.33803e-09   1.39520e-07 DIIS
   @RHF iter  10:  -348.99277054076811   -1.65136e-09   6.35090e-08 DIIS
   @RHF iter  11:  -348.99277054132074   -5.52632e-10   2.25814e-08 DIIS
   @RHF iter  12:  -348.99277054138537   -6.46310e-11   8.88296e-09 DIIS
   @RHF iter  13:  -348.99277054139066   -5.28644e-12   3.46667e-09 DIIS
   @RHF iter  14:  -348.99277054139452   -3.86535e-12   8.18042e-10 DIIS
   @RHF iter  15:  -348.99277054139407    4.54747e-13   3.88727e-10 DIIS
   @RHF iter  16:  -348.99277054139543   -1.36424e-12   1.58780e-10 DIIS
   @RHF iter  17:  -348.99277054139441    1.02318e-12   6.55884e-11 DIIS
  Energy and wave function converged.

  ==> Post-Iterations <==

    Orbital Energies [Eh]
    ---------------------

    Doubly Occupied:

       1A    -11.240666     2A    -11.233462     3A    -11.232085
       4A    -11.228957     5A    -11.228078     6A    -11.227898
       7A    -11.227630     8A    -11.221899     9A    -11.218458
      10A     -1.154891    11A     -1.044863    12A     -1.019237
      13A     -1.012795    14A     -0.931454    15A     -0.840171
      16A     -0.823331    17A     -0.796612    18A     -0.691320
      19A     -0.632467    20A     -0.628805    21A     -0.601842
      22A     -0.596654    23A     -0.581258    24A     -0.575505
      25A     -0.562424    26A     -0.536828    27A     -0.504995
      28A     -0.489097    29A     -0.488175    30A     -0.485638
      31A     -0.483539    32A     -0.478709    33A     -0.332670
      34A     -0.321274

    Virtual:

      35A      0.136510    36A      0.144447    37A      0.169439
      38A      0.193444    39A      0.197670    40A      0.222286
      41A      0.230419    42A      0.238436    43A      0.251472
      44A      0.262526    45A      0.266309    46A      0.279484
      47A      0.286611    48A      0.292760    49A      0.307052
      50A      0.339025    51A      0.366438    52A      0.381470
      53A      0.404762    54A      0.456576    55A      0.466566
      56A      0.480647    57A      0.500825    58A      0.556223
      59A      0.588709    60A      0.598214    61A      0.608966
      62A      0.625040    63A      0.639976    64A      0.677068
      65A      0.683369    66A      0.693131    67A      0.697213
      68A      0.719131    69A      0.729629    70A      0.741671
      71A      0.744844    72A      0.752019    73A      0.761021
      74A      0.765387    75A      0.788918    76A      0.804186
      77A      0.835655    78A      0.847041    79A      0.855200
      80A      0.863076    81A      0.871179    82A      0.888997
      83A      0.890465    84A      0.898473    85A      0.903768
      86A      0.906672    87A      0.916326    88A      0.928313
      89A      0.931140    90A      0.951357    91A      0.960233
      92A      0.987214    93A      0.991586    94A      1.012992
      95A      1.049636    96A      1.051251    97A      1.122220
      98A      1.126080    99A      1.129487   100A      1.148841
     101A      1.157280   102A      1.171106   103A      1.200369
     104A      1.227910   105A      1.235537   106A      1.251446
     107A      1.254040   108A      1.264928   109A      1.297989
     110A      1.312396   111A      1.324600   112A      1.332361
     113A      1.416301   114A      1.459750   115A      1.485140
     116A      1.513264   117A      1.527078   118A      1.570605
     119A      1.602311   120A      1.609273   121A      1.668496
     122A      1.682463   123A      1.692702   124A      1.705378
     125A      1.737938   126A      1.753137   127A      1.762080
     128A      1.788877   129A      1.815052   130A      1.853738
     131A      1.865618   132A      1.874935   133A      1.886752
     134A      1.892949   135A      1.908547   136A      1.918907
     137A      1.920182   138A      1.925602   139A      1.938955
     140A      1.940080   141A      1.943097   142A      1.950888
     143A      1.956671   144A      1.971611   145A      1.979256
     146A      1.992089   147A      2.005573   148A      2.021521
     149A      2.045420   150A      2.068179   151A      2.079997
     152A      2.090351   153A      2.119224   154A      2.123740
     155A      2.150709   156A      2.167958   157A      2.170516
     158A      2.183230   159A      2.200431   160A      2.259427
     161A      2.274195   162A      2.290866   163A      2.294520
     164A      2.313751   165A      2.320286   166A      2.328648
     167A      2.366192   168A      2.453180   169A      2.459287
     170A      2.462994   171A      2.485532   172A      2.506164
     173A      2.543017   174A      2.548669   175A      2.579787
     176A      2.649619   177A      2.731788   178A      2.745460
     179A      2.758451   180A      2.774743   181A      2.790974
     182A      2.794985   183A      2.823418   184A      2.852850
     185A      2.862102   186A      2.862939   187A      2.871779
     188A      2.957908   189A      2.961686   190A      2.993127
     191A      3.015844   192A      3.053738   193A      3.176077
     194A      3.219321   195A      3.311123   196A      3.985069

    Final Occupation by Irrep:
              A
    DOCC [    34 ]

  @RHF Final Energy:  -348.99277054139441

   => Energetics <=

    Nuclear Repulsion Energy =            406.2773859286905349
    One-Electron Energy =               -1275.1929365098733342
    Two-Electron Energy =                 519.9227800397883357
    Total Energy =                       -348.9927705413944068

Computation Completed

Properties will be evaluated at   0.000000,   0.000000,   0.000000 [a0]

Properties computed using the SCF density matrix

  Nuclear Dipole Moment: [e a0]
     X:    -8.1141      Y:     0.1432      Z:    11.1638

  Electronic Dipole Moment: [e a0]
     X:     8.0789      Y:    -0.0427      Z:   -11.0923

  Dipole Moment: [e a0]
     X:    -0.0352      Y:     0.1005      Z:     0.0715     Total:     0.1282

  Dipole Moment: [D]
     X:    -0.0895      Y:     0.2554      Z:     0.1816     Total:     0.3259

*** tstop() called on ds3 at Tue Apr 28 00:31:49 2020
Module time:
	user time   =      65.22 seconds =       1.09 minutes
	system time =      27.22 seconds =       0.45 minutes
	total time  =        160 seconds =       2.67 minutes
Total time:
	user time   =      65.22 seconds =       1.09 minutes
	system time =      27.22 seconds =       0.45 minutes
	total time  =        160 seconds =       2.67 minutes
                                     G D M A

                                 by Anthony Stone

                           version 2.2.06, 22 June 2011

               Distributed Multipoles from Gaussian wavefunctions

Starting at 0:31:49 on 28 Apr 2020

Using SCF density matrix from file ./SSI/SSI-053ILE-069PHE-1-dimer.test.5315.fchk

                         Distributed Multipole Analysis

Standard DMA

Positions and radii in angstrom
Multipole moments in atomic units, ea_0^k for rank k

C          x = -2.368897  y = -0.043870  z =  2.522985 angstrom
           Maximum rank =  0   Radius =  0.650 angstrom
                   Q00  =  -0.247578

C          x = -2.522897  y = -1.449870  z =  3.111985 angstrom
           Maximum rank =  0   Radius =  0.650 angstrom
                   Q00  =  -0.230978

H          x = -3.208897  y =  0.574130  z =  2.838985 angstrom
           Maximum rank =  0   Radius =  0.325 angstrom
                   Q00  =   0.080299

H          x = -1.436897  y =  0.417130  z =  2.849985 angstrom
           Maximum rank =  0   Radius =  0.325 angstrom
                   Q00  =   0.075280

H          x = -2.340897  y = -0.074870  z =  1.433985 angstrom
           Maximum rank =  0   Radius =  0.325 angstrom
                   Q00  =   0.085993

H          x = -1.671897  y = -2.041870  z =  2.775985 angstrom
           Maximum rank =  0   Radius =  0.325 angstrom
                   Q00  =   0.073953

H          x = -3.447087  y = -1.918754  z =  2.743165 angstrom
           Maximum rank =  0   Radius =  0.325 angstrom
                   Q00  =   0.082601

H          x = -2.520037  y = -1.439135  z =  4.211925 angstrom
           Maximum rank =  0   Radius =  0.325 angstrom
                   Q00  =   0.081966

C          x =  0.566103  y =  2.079130  z =  0.679985 angstrom
           Maximum rank =  0   Radius =  0.650 angstrom
                   Q00  =  -0.209645

C          x =  0.434103  y = -0.348870  z =  0.076985 angstrom
           Maximum rank =  0   Radius =  0.650 angstrom
                   Q00  =   0.000667

C          x =  0.723103  y =  0.954130  z = -0.307015 angstrom
           Maximum rank =  0   Radius =  0.650 angstrom
                   Q00  =  -0.087777

C          x =  0.555103  y = -1.395870  z = -0.823015 angstrom
           Maximum rank =  0   Radius =  0.650 angstrom
                   Q00  =  -0.075905

C          x =  1.125103  y =  1.195130  z = -1.620015 angstrom
           Maximum rank =  0   Radius =  0.650 angstrom
                   Q00  =  -0.085486

C          x =  0.967103  y = -1.148870  z = -2.122015 angstrom
           Maximum rank =  0   Radius =  0.650 angstrom
                   Q00  =  -0.079314

C          x =  1.248103  y =  0.146130  z = -2.520015 angstrom
           Maximum rank =  0   Radius =  0.650 angstrom
                   Q00  =  -0.060904

H          x =  0.124103  y = -0.554870  z =  1.091985 angstrom
           Maximum rank =  0   Radius =  0.325 angstrom
                   Q00  =   0.054938

H          x =  0.327103  y = -2.406870  z = -0.511015 angstrom
           Maximum rank =  0   Radius =  0.325 angstrom
                   Q00  =   0.061826

H          x =  0.976103  y =  1.776130  z =  1.644985 angstrom
           Maximum rank =  0   Radius =  0.325 angstrom
                   Q00  =   0.098592

H          x = -0.502897  y =  2.251130  z =  0.812985 angstrom
           Maximum rank =  0   Radius =  0.325 angstrom
                   Q00  =   0.103959

H          x =  1.369103  y =  2.174130  z = -1.992015 angstrom
           Maximum rank =  0   Radius =  0.325 angstrom
                   Q00  =   0.055005

H          x =  1.069103  y = -1.965870  z = -2.824015 angstrom
           Maximum rank =  0   Radius =  0.325 angstrom
                   Q00  =   0.058730

H          x =  1.572103  y =  0.339130  z = -3.535015 angstrom
           Maximum rank =  0   Radius =  0.325 angstrom
                   Q00  =   0.062777

H          x =  1.035623  y =  3.023200  z =  0.366495 angstrom
           Maximum rank =  0   Radius =  0.325 angstrom
                   Q00  =   0.101003

Total multipoles referred to origin at
           x =   0.000000,  y =    0.000000,  z =    0.000000 angstrom
                   Q00  =  -0.000000

Finished at 0:31:49 on 28 Apr 2020

  DMA results are available in the Python driver through the
	  variable('DMA DISTRIBUTED MULTIPOLES')
  and
	  variable('DMA TOTAL MULTIPOLES')
  commands.

    Psi4 stopped on: Tuesday, 28 April 2020 12:31AM
    Psi4 wall time for execution: 0:02:39.95

*** Psi4 exiting successfully. Buy a developer a beer!
