                               Psi4 1.3.2 release

  ==> Input File <==

--------------------------------------------------------------------------
import numpy as np
set {scf_type pk
basis cc-pvdz
d_convergence 10
gdma_switch   0
gdma_limit    0
gdma_origin   [ 0.0,  0.0,  0.0 ]
}
molecule test {
    units Angstrom
    0 1
    --
    0 1
    C                2.935421096005896    -3.496995872882269    -1.319418020319867
    C                1.307421096005896     0.384004127117731    -0.382418020319867
    C                0.670421096005896    -0.445995872882269    -1.293418020319867
    C                2.468421096005896    -0.043995872882269     0.258581979680133
    C                1.210421096005896    -1.685995872882269    -1.590418020319867
    C                3.000421096005897    -1.297995872882269    -0.042418020319867
    C                2.365421096005897    -2.139995872882269    -0.961418020319867
    O                0.771421096005896     1.608004127117731    -0.147418020319867
    H               -0.141578903994104     1.669004127117731    -0.428418020319867
    H               -0.278578903994104    -0.215995872882269    -1.730418020319867
    H                2.938421096005896     0.596004127117731     0.989581979680133
    H                0.706421096005896    -2.315995872882270    -2.294418020319867
    H                3.884421096005897    -1.636995872882269     0.476581979680133
    H                2.132421096005896    -4.231995872882269    -1.274418020319867
    H                3.689421096005896    -3.779995872882270    -0.584418020319867
    H                3.382009096005896    -3.526865872882269    -2.324238020319867
    C               -1.881578903994104     1.770004127117731     1.540581979680133
    C               -2.718578903994104     2.346004127117731     2.687581979680133
    C               -2.689578903994104     0.920004127117731     0.575581979680133
    O               -2.716578903994104    -0.299995872882269     0.680581979680133
    N               -3.336578903994104     1.564004127117731    -0.383418020319867
    H               -1.464578903994104     2.612004127117731     0.987581979680133
    H               -1.043578903994104     1.201004127117731     1.926581979680133
    H               -3.500578903994104     2.986004127117730     2.270581979680133
    H               -3.890578903994103     1.021004127117731    -1.030418020319867
    H               -3.324578903994103     2.573004127117731    -0.441418020319867
    H               -2.067350903994104     2.963394127117731     3.323771979680133
    H               -3.188294903994104     1.544174127117731     3.276171979680132

}
e, wfn = energy('scf', return_wfn=True)
gdma(wfn)
dmavals = variable('DMA DISTRIBUTED MULTIPOLES')
charges = np.array(dmavals)
print(charges)
np.save('SSI-047TYR-055ASN-1-dimer.npy', np.array(charges))--------------------------------------------------------------------------

*** tstart() called on ds3
*** at Mon Apr 27 16:56:24 2020

   => Loading Basis Set <=

    Name: CC-PVDZ
    Role: ORBITAL
    Keyword: BASIS
    atoms 1-7, 17-19  entry C          line   138 file /theoryfs2/ds/metcalf/miniconda2/envs/tf2gpu/share/psi4/basis/cc-pvdz.gbs
    atoms 8, 20       entry O          line   198 file /theoryfs2/ds/metcalf/miniconda2/envs/tf2gpu/share/psi4/basis/cc-pvdz.gbs
    atoms 9-16, 22-28 entry H          line    22 file /theoryfs2/ds/metcalf/miniconda2/envs/tf2gpu/share/psi4/basis/cc-pvdz.gbs
    atoms 21          entry N          line   168 file /theoryfs2/ds/metcalf/miniconda2/envs/tf2gpu/share/psi4/basis/cc-pvdz.gbs

         ---------------------------------------------------------
                                   SCF
               by Justin Turney, Rob Parrish, Andy Simmonett
                          and Daniel G. A. Smith
                              RHF Reference
                        1 Threads,    500 MiB Core
         ---------------------------------------------------------

  ==> Geometry <==

    Molecular point group: c1
    Full point group: C1

    Geometry (in Angstrom), charge = 0, multiplicity = 1:

       Center              X                  Y                   Z               Mass
    ------------   -----------------  -----------------  -----------------  -----------------
         C            2.935421096006    -3.496995872882    -1.319418020320    12.000000000000
         C            1.307421096006     0.384004127118    -0.382418020320    12.000000000000
         C            0.670421096006    -0.445995872882    -1.293418020320    12.000000000000
         C            2.468421096006    -0.043995872882     0.258581979680    12.000000000000
         C            1.210421096006    -1.685995872882    -1.590418020320    12.000000000000
         C            3.000421096006    -1.297995872882    -0.042418020320    12.000000000000
         C            2.365421096006    -2.139995872882    -0.961418020320    12.000000000000
         O            0.771421096006     1.608004127118    -0.147418020320    15.994914619570
         H           -0.141578903994     1.669004127118    -0.428418020320     1.007825032230
         H           -0.278578903994    -0.215995872882    -1.730418020320     1.007825032230
         H            2.938421096006     0.596004127118     0.989581979680     1.007825032230
         H            0.706421096006    -2.315995872882    -2.294418020320     1.007825032230
         H            3.884421096006    -1.636995872882     0.476581979680     1.007825032230
         H            2.132421096006    -4.231995872882    -1.274418020320     1.007825032230
         H            3.689421096006    -3.779995872882    -0.584418020320     1.007825032230
         H            3.382009096006    -3.526865872882    -2.324238020320     1.007825032230
         C           -1.881578903994     1.770004127118     1.540581979680    12.000000000000
         C           -2.718578903994     2.346004127118     2.687581979680    12.000000000000
         C           -2.689578903994     0.920004127118     0.575581979680    12.000000000000
         O           -2.716578903994    -0.299995872882     0.680581979680    15.994914619570
         N           -3.336578903994     1.564004127118    -0.383418020320    14.003074004430
         H           -1.464578903994     2.612004127118     0.987581979680     1.007825032230
         H           -1.043578903994     1.201004127118     1.926581979680     1.007825032230
         H           -3.500578903994     2.986004127118     2.270581979680     1.007825032230
         H           -3.890578903994     1.021004127118    -1.030418020320     1.007825032230
         H           -3.324578903994     2.573004127118    -0.441418020320     1.007825032230
         H           -2.067350903994     2.963394127118     3.323771979680     1.007825032230
         H           -3.188294903994     1.544174127118     3.276171979680     1.007825032230

  Running in c1 symmetry.

  Rotational constants: A =      0.04914  B =      0.01068  C =      0.00986 [cm^-1]
  Rotational constants: A =   1473.12692  B =    320.26941  C =    295.59263 [MHz]
  Nuclear repulsion =  753.192008136411346

  Charge       = 0
  Multiplicity = 1
  Electrons    = 98
  Nalpha       = 49
  Nbeta        = 49

  ==> Algorithm <==

  SCF Algorithm Type is PK.
  DIIS enabled.
  MOM disabled.
  Fractional occupation disabled.
  Guess Type is SAD.
  Energy threshold   = 1.00e-06
  Density threshold  = 1.00e-10
  Integral threshold = 0.00e+00

  ==> Primary Basis <==

  Basis Set: CC-PVDZ
    Blend: CC-PVDZ
    Number of shells: 123
    Number of basis function: 257
    Number of Cartesian functions: 270
    Spherical Harmonics?: true
    Max angular momentum: 2

  ==> Pre-Iterations <==

   -------------------------------------------------------
    Irrep   Nso     Nmo     Nalpha   Nbeta   Ndocc  Nsocc
   -------------------------------------------------------
     A        257     257       0       0       0       0
   -------------------------------------------------------
    Total     257     257      49      49      49       0
   -------------------------------------------------------

  ==> Integral Setup <==

  Using integral reordering PK algorithm.
  Sizing the integral batches needed.
  Building batch lookup table.
   Calculation information:
      Number of atoms:                  28
      Number of AO shells:             123
      Number of primitives:            361
      Number of atomic orbitals:       270
      Number of basis functions:       257

      Integral cutoff                 1.00e-12
      Number of threads:                 1

	Batch   1 pq = [       0,    9405] index = [             0,44231715] size =     44231715
	Batch   2 pq = [    9405,   13301] index = [      44231715,88464951] size =     44233236
	Batch   3 pq = [   13301,   16290] index = [      88464951,132690195] size =     44225244
	Batch   4 pq = [   16290,   18810] index = [     132690195,176917455] size =     44227260
	Batch   5 pq = [   18810,   21030] index = [     176917455,221140965] size =     44223510
	Batch   6 pq = [   21030,   23037] index = [     221140965,265363203] size =     44222238
	Batch   7 pq = [   23037,   24883] index = [     265363203,309594286] size =     44231083
	Batch   8 pq = [   24883,   26601] index = [     309594286,353819901] size =     44225615
	Batch   9 pq = [   26601,   28214] index = [     353819901,398029005] size =     44209104
	Batch  10 pq = [   28214,   29740] index = [     398029005,442248670] size =     44219665
	Batch  11 pq = [   29740,   31191] index = [     442248670,486454836] size =     44206166
	Batch  12 pq = [   31191,   32578] index = [     486454836,530679331] size =     44224495
	Batch  13 pq = [   32578,   33153] index = [     530679331,549577281] size =     18897950
  Task number: 50
  Buffer size: 11059200
  Buffer per thread: 2
  We computed 24384619 shell quartets total.
  Whereas there are 29081751 unique shell quartets.

  ==> DiskJK: Disk-Based J/K Matrices <==

    J tasked:                  Yes
    K tasked:                  Yes
    wK tasked:                  No
    Memory [MiB]:              375
    Schwarz Cutoff:          1E-12

    OpenMP threads:              1

  Minimum eigenvalue in the overlap matrix is 3.2272890632E-04.
  Using Symmetric Orthogonalization.

  SCF Guess: Superposition of Atomic Densities via on-the-fly atomic UHF.

  ==> Iterations <==

                        Total Energy        Delta E     RMS |[F,P]|

   @RHF iter SAD:  -590.33104637185261   -5.90331e+02   0.00000e+00
   @RHF iter   1:  -591.29883285707797   -9.67786e-01   3.01870e-03 DIIS
   @RHF iter   2:  -591.57713201172123   -2.78299e-01   1.58591e-03 DIIS
   @RHF iter   3:  -591.64334170460074   -6.62097e-02   3.73340e-04 DIIS
   @RHF iter   4:  -591.64864607449908   -5.30437e-03   1.51236e-04 DIIS
   @RHF iter   5:  -591.64952404902260   -8.77975e-04   2.24806e-05 DIIS
   @RHF iter   6:  -591.64956712762410   -4.30786e-05   1.00512e-05 DIIS
   @RHF iter   7:  -591.64957383782871   -6.71020e-06   3.92467e-06 DIIS
   @RHF iter   8:  -591.64957523341843   -1.39559e-06   1.54228e-06 DIIS
   @RHF iter   9:  -591.64957542705315   -1.93635e-07   5.47754e-07 DIIS
   @RHF iter  10:  -591.64957545082439   -2.37712e-08   1.94269e-07 DIIS
   @RHF iter  11:  -591.64957545373056   -2.90618e-09   5.98786e-08 DIIS
   @RHF iter  12:  -591.64957545402990   -2.99337e-10   2.45074e-08 DIIS
   @RHF iter  13:  -591.64957545408140   -5.15001e-11   8.81921e-09 DIIS
   @RHF iter  14:  -591.64957545409447   -1.30740e-11   4.23288e-09 DIIS
   @RHF iter  15:  -591.64957545409777   -3.29692e-12   1.99509e-09 DIIS
   @RHF iter  16:  -591.64957545409868   -9.09495e-13   7.44462e-10 DIIS
   @RHF iter  17:  -591.64957545410061   -1.93268e-12   2.61969e-10 DIIS
   @RHF iter  18:  -591.64957545409732    3.29692e-12   8.36595e-11 DIIS
  Energy and wave function converged.

  ==> Post-Iterations <==

    Orbital Energies [Eh]
    ---------------------

    Doubly Occupied:

       1A    -20.579584     2A    -20.509874     3A    -15.597648
       4A    -11.348934     5A    -11.293006     6A    -11.241953
       7A    -11.240883     8A    -11.232946     9A    -11.227967
      10A    -11.226780    11A    -11.226111    12A    -11.223106
      13A    -11.222270    14A     -1.401037    15A     -1.375998
      16A     -1.225583    17A     -1.144707    18A     -1.055848
      19A     -1.030383    20A     -1.012872    21A     -0.921148
      22A     -0.895188    23A     -0.837525    24A     -0.802001
      25A     -0.797426    26A     -0.735383    27A     -0.731679
      28A     -0.668766    29A     -0.663056    30A     -0.637772
      31A     -0.613894    32A     -0.606823    33A     -0.601429
      34A     -0.584892    35A     -0.581190    36A     -0.577993
      37A     -0.566947    38A     -0.558768    39A     -0.534603
      40A     -0.520863    41A     -0.508247    42A     -0.504153
      43A     -0.490226    44A     -0.478783    45A     -0.460997
      46A     -0.411678    47A     -0.409634    48A     -0.331885
      49A     -0.296179

    Virtual:

      50A      0.137758    51A      0.147711    52A      0.161206
      53A      0.177750    54A      0.192329    55A      0.207255
      56A      0.208570    57A      0.220401    58A      0.226470
      59A      0.233302    60A      0.253066    61A      0.264716
      62A      0.266214    63A      0.275964    64A      0.280474
      65A      0.283540    66A      0.298507    67A      0.306295
      68A      0.366694    69A      0.375661    70A      0.380683
      71A      0.408448    72A      0.433672    73A      0.457400
      74A      0.476472    75A      0.496225    76A      0.504612
      77A      0.515061    78A      0.580560    79A      0.590674
      80A      0.615084    81A      0.620610    82A      0.636333
      83A      0.647113    84A      0.662607    85A      0.672251
      86A      0.683972    87A      0.694139    88A      0.702540
      89A      0.712371    90A      0.725215    91A      0.732769
      92A      0.737748    93A      0.743625    94A      0.748102
      95A      0.772430    96A      0.783230    97A      0.794204
      98A      0.798370    99A      0.820234   100A      0.821186
     101A      0.832109   102A      0.847622   103A      0.861991
     104A      0.875528   105A      0.877676   106A      0.882788
     107A      0.889977   108A      0.895214   109A      0.896508
     110A      0.906071   111A      0.908297   112A      0.913761
     113A      0.922202   114A      0.933227   115A      0.941157
     116A      0.950319   117A      0.959189   118A      0.966642
     119A      0.983682   120A      1.009913   121A      1.019546
     122A      1.043544   123A      1.053432   124A      1.061731
     125A      1.077550   126A      1.104419   127A      1.114658
     128A      1.131789   129A      1.151483   130A      1.154932
     131A      1.174159   132A      1.208492   133A      1.240102
     134A      1.253851   135A      1.277335   136A      1.296550
     137A      1.299637   138A      1.306199   139A      1.314755
     140A      1.334041   141A      1.336959   142A      1.347923
     143A      1.362118   144A      1.373072   145A      1.391584
     146A      1.407382   147A      1.429188   148A      1.446548
     149A      1.448685   150A      1.474674   151A      1.494416
     152A      1.512905   153A      1.525938   154A      1.550814
     155A      1.565403   156A      1.622649   157A      1.634196
     158A      1.659381   159A      1.677918   160A      1.684705
     161A      1.699003   162A      1.742340   163A      1.752889
     164A      1.767163   165A      1.785349   166A      1.799445
     167A      1.808496   168A      1.817778   169A      1.845683
     170A      1.865945   171A      1.875962   172A      1.883196
     173A      1.884987   174A      1.896018   175A      1.903008
     176A      1.909675   177A      1.917895   178A      1.919613
     179A      1.923167   180A      1.927013   181A      1.938168
     182A      1.954825   183A      1.963150   184A      1.972027
     185A      1.987469   186A      1.990311   187A      2.002102
     188A      2.008003   189A      2.023825   190A      2.045101
     191A      2.055882   192A      2.067189   193A      2.072911
     194A      2.082221   195A      2.093790   196A      2.110056
     197A      2.128770   198A      2.130249   199A      2.167678
     200A      2.193506   201A      2.209842   202A      2.221425
     203A      2.226783   204A      2.265425   205A      2.280749
     206A      2.312915   207A      2.318597   208A      2.344526
     209A      2.360091   210A      2.374720   211A      2.396571
     212A      2.410476   213A      2.442864   214A      2.465922
     215A      2.479538   216A      2.484569   217A      2.527740
     218A      2.531260   219A      2.539735   220A      2.564396
     221A      2.568887   222A      2.576086   223A      2.592752
     224A      2.614592   225A      2.617752   226A      2.651686
     227A      2.741017   228A      2.749773   229A      2.762897
     230A      2.775718   231A      2.803310   232A      2.819174
     233A      2.827422   234A      2.841183   235A      2.848982
     236A      2.877992   237A      2.904392   238A      2.966761
     239A      2.991017   240A      3.002703   241A      3.029367
     242A      3.088502   243A      3.099867   244A      3.129165
     245A      3.138387   246A      3.270437   247A      3.286708
     248A      3.296743   249A      3.383232   250A      3.519129
     251A      3.532058   252A      3.587033   253A      3.684473
     254A      3.867764   255A      3.905687   256A      4.004249
     257A      4.204253

    Final Occupation by Irrep:
              A
    DOCC [    49 ]

  @RHF Final Energy:  -591.64957545409732

   => Energetics <=

    Nuclear Repulsion Energy =            753.1920081364113457
    One-Electron Energy =               -2300.1899279005474455
    Two-Electron Energy =                 955.3483443100386694
    Total Energy =                       -591.6495754540973167

Computation Completed

Properties will be evaluated at   0.000000,   0.000000,   0.000000 [a0]

Properties computed using the SCF density matrix

  Nuclear Dipole Moment: [e a0]
     X:    -2.0308      Y:     1.3683      Z:     2.9499

  Electronic Dipole Moment: [e a0]
     X:     1.3400      Y:    -0.1732      Z:    -3.4359

  Dipole Moment: [e a0]
     X:    -0.6907      Y:     1.1951      Z:    -0.4861     Total:     1.4635

  Dipole Moment: [D]
     X:    -1.7557      Y:     3.0377      Z:    -1.2355     Total:     3.7198

*** tstop() called on ds3 at Mon Apr 27 17:04:14 2020
Module time:
	user time   =     198.52 seconds =       3.31 minutes
	system time =      85.00 seconds =       1.42 minutes
	total time  =        470 seconds =       7.83 minutes
Total time:
	user time   =     198.52 seconds =       3.31 minutes
	system time =      85.00 seconds =       1.42 minutes
	total time  =        470 seconds =       7.83 minutes
                                     G D M A

                                 by Anthony Stone

                           version 2.2.06, 22 June 2011

               Distributed Multipoles from Gaussian wavefunctions

Starting at 17:4:14 on 27 Apr 2020

Using SCF density matrix from file ./SSI/SSI-047TYR-055ASN-1-dimer.test.28579.fchk

                         Distributed Multipole Analysis

Standard DMA

Positions and radii in angstrom
Multipole moments in atomic units, ea_0^k for rank k

C          x =  2.935421  y = -3.496996  z = -1.319418 angstrom
           Maximum rank =  0   Radius =  0.650 angstrom
                   Q00  =  -0.201996

C          x =  1.307421  y =  0.384004  z = -0.382418 angstrom
           Maximum rank =  0   Radius =  0.650 angstrom
                   Q00  =   0.305537

C          x =  0.670421  y = -0.445996  z = -1.293418 angstrom
           Maximum rank =  0   Radius =  0.650 angstrom
                   Q00  =  -0.180746

C          x =  2.468421  y = -0.043996  z =  0.258582 angstrom
           Maximum rank =  0   Radius =  0.650 angstrom
                   Q00  =  -0.117333

C          x =  1.210421  y = -1.685996  z = -1.590418 angstrom
           Maximum rank =  0   Radius =  0.650 angstrom
                   Q00  =   0.047152

C          x =  3.000421  y = -1.297996  z = -0.042418 angstrom
           Maximum rank =  0   Radius =  0.650 angstrom
                   Q00  =  -0.049493

C          x =  2.365421  y = -2.139996  z = -0.961418 angstrom
           Maximum rank =  0   Radius =  0.650 angstrom
                   Q00  =  -0.141388

O          x =  0.771421  y =  1.608004  z = -0.147418 angstrom
           Maximum rank =  0   Radius =  0.650 angstrom
                   Q00  =  -0.637875

H          x = -0.141579  y =  1.669004  z = -0.428418 angstrom
           Maximum rank =  0   Radius =  0.325 angstrom
                   Q00  =   0.405303

H          x = -0.278579  y = -0.215996  z = -1.730418 angstrom
           Maximum rank =  0   Radius =  0.325 angstrom
                   Q00  =   0.076064

H          x =  2.938421  y =  0.596004  z =  0.989582 angstrom
           Maximum rank =  0   Radius =  0.325 angstrom
                   Q00  =   0.076013

H          x =  0.706421  y = -2.315996  z = -2.294418 angstrom
           Maximum rank =  0   Radius =  0.325 angstrom
                   Q00  =   0.065337

H          x =  3.884421  y = -1.636996  z =  0.476582 angstrom
           Maximum rank =  0   Radius =  0.325 angstrom
                   Q00  =   0.064139

H          x =  2.132421  y = -4.231996  z = -1.274418 angstrom
           Maximum rank =  0   Radius =  0.325 angstrom
                   Q00  =   0.097112

H          x =  3.689421  y = -3.779996  z = -0.584418 angstrom
           Maximum rank =  0   Radius =  0.325 angstrom
                   Q00  =   0.096154

H          x =  3.382009  y = -3.526866  z = -2.324238 angstrom
           Maximum rank =  0   Radius =  0.325 angstrom
                   Q00  =   0.098436

C          x = -1.881579  y =  1.770004  z =  1.540582 angstrom
           Maximum rank =  0   Radius =  0.650 angstrom
                   Q00  =  -0.114464

C          x = -2.718579  y =  2.346004  z =  2.687582 angstrom
           Maximum rank =  0   Radius =  0.650 angstrom
                   Q00  =  -0.205257

C          x = -2.689579  y =  0.920004  z =  0.575582 angstrom
           Maximum rank =  0   Radius =  0.650 angstrom
                   Q00  =   0.785283

O          x = -2.716579  y = -0.299996  z =  0.680582 angstrom
           Maximum rank =  0   Radius =  0.650 angstrom
                   Q00  =  -0.783402

N          x = -3.336579  y =  1.564004  z = -0.383418 angstrom
           Maximum rank =  0   Radius =  0.650 angstrom
                   Q00  =  -0.531460

H          x = -1.464579  y =  2.612004  z =  0.987582 angstrom
           Maximum rank =  0   Radius =  0.325 angstrom
                   Q00  =   0.034292

H          x = -1.043579  y =  1.201004  z =  1.926582 angstrom
           Maximum rank =  0   Radius =  0.325 angstrom
                   Q00  =   0.115659

H          x = -3.500579  y =  2.986004  z =  2.270582 angstrom
           Maximum rank =  0   Radius =  0.325 angstrom
                   Q00  =   0.071077

H          x = -3.890579  y =  1.021004  z = -1.030418 angstrom
           Maximum rank =  0   Radius =  0.325 angstrom
                   Q00  =   0.220381

H          x = -3.324579  y =  2.573004  z = -0.441418 angstrom
           Maximum rank =  0   Radius =  0.325 angstrom
                   Q00  =   0.208563

H          x = -2.067351  y =  2.963394  z =  3.323772 angstrom
           Maximum rank =  0   Radius =  0.325 angstrom
                   Q00  =   0.097020

H          x = -3.188295  y =  1.544174  z =  3.276172 angstrom
           Maximum rank =  0   Radius =  0.325 angstrom
                   Q00  =   0.099891

Total multipoles referred to origin at
           x =   0.000000,  y =    0.000000,  z =    0.000000 angstrom
                   Q00  =  -0.000000

Finished at 17:4:15 on 27 Apr 2020

  DMA results are available in the Python driver through the
	  variable('DMA DISTRIBUTED MULTIPOLES')
  and
	  variable('DMA TOTAL MULTIPOLES')
  commands.

    Psi4 stopped on: Monday, 27 April 2020 05:04PM
    Psi4 wall time for execution: 0:07:51.15

*** Psi4 exiting successfully. Buy a developer a beer!
