                               Psi4 1.3.2 release

  ==> Input File <==

--------------------------------------------------------------------------
import numpy as np
set {scf_type pk
basis cc-pvdz
d_convergence 10
gdma_switch   0
gdma_limit    0
gdma_origin   [ 0.0,  0.0,  0.0 ]
}
molecule test {
    units Angstrom
    0 1
    --
    0 1
    C               -1.358287947729673    -2.707072900758590     0.110262464895239
    C               -1.726287947729673    -1.792072900758589    -1.041737535104761
    O               -2.579287947729673    -2.114072900758589    -1.869737535104761
    N               -1.072287947729673    -0.646072900758589    -1.122737535104761
    H               -1.265287947729673    -0.050072900758589    -1.914737535104761
    H               -0.371287947729673    -0.361072900758589    -0.444737535104761
    H               -0.932287947729673    -2.116072900758589     0.922262464895239
    H               -0.586287947729673    -3.393072900758590    -0.216737535104761
    H               -2.240547947729672    -3.245422900758590     0.486822464895239
    C                2.586712052270328     1.026927099241411     1.796262464895239
    C                1.601712052270327     1.788927099241411     0.947262464895239
    O                0.628712052270327     1.223927099241411     0.452262464895239
    N                1.855712052270327     3.070927099241410     0.742262464895239
    H                2.079712052270327     0.705927099241411     2.705262464895239
    H                3.422712052270327     1.669927099241411     2.076262464895239
    H                1.234712052270327     3.580927099241411     0.127262464895239
    H                2.626712052270327     3.541927099241410     1.210262464895239
    H                2.960406052270327     0.145157099241411     1.255122464895239

}
e, wfn = energy('scf', return_wfn=True)
gdma(wfn)
dmavals = variable('DMA DISTRIBUTED MULTIPOLES')
charges = np.array(dmavals)
print(charges)
np.save('SSI-062GLN-110GLN-1-dimer.npy', np.array(charges))--------------------------------------------------------------------------

*** tstart() called on ds3
*** at Tue Apr 28 13:38:43 2020

   => Loading Basis Set <=

    Name: CC-PVDZ
    Role: ORBITAL
    Keyword: BASIS
    atoms 1-2, 10-11 entry C          line   138 file /theoryfs2/ds/metcalf/miniconda2/envs/tf2gpu/share/psi4/basis/cc-pvdz.gbs
    atoms 3, 12      entry O          line   198 file /theoryfs2/ds/metcalf/miniconda2/envs/tf2gpu/share/psi4/basis/cc-pvdz.gbs
    atoms 4, 13      entry N          line   168 file /theoryfs2/ds/metcalf/miniconda2/envs/tf2gpu/share/psi4/basis/cc-pvdz.gbs
    atoms 5-9, 14-18 entry H          line    22 file /theoryfs2/ds/metcalf/miniconda2/envs/tf2gpu/share/psi4/basis/cc-pvdz.gbs

         ---------------------------------------------------------
                                   SCF
               by Justin Turney, Rob Parrish, Andy Simmonett
                          and Daniel G. A. Smith
                              RHF Reference
                        1 Threads,    500 MiB Core
         ---------------------------------------------------------

  ==> Geometry <==

    Molecular point group: c1
    Full point group: C1

    Geometry (in Angstrom), charge = 0, multiplicity = 1:

       Center              X                  Y                   Z               Mass
    ------------   -----------------  -----------------  -----------------  -----------------
         C           -1.358287947730    -2.707072900759     0.110262464895    12.000000000000
         C           -1.726287947730    -1.792072900759    -1.041737535105    12.000000000000
         O           -2.579287947730    -2.114072900759    -1.869737535105    15.994914619570
         N           -1.072287947730    -0.646072900759    -1.122737535105    14.003074004430
         H           -1.265287947730    -0.050072900759    -1.914737535105     1.007825032230
         H           -0.371287947730    -0.361072900759    -0.444737535105     1.007825032230
         H           -0.932287947730    -2.116072900759     0.922262464895     1.007825032230
         H           -0.586287947730    -3.393072900759    -0.216737535105     1.007825032230
         H           -2.240547947730    -3.245422900759     0.486822464895     1.007825032230
         C            2.586712052270     1.026927099241     1.796262464895    12.000000000000
         C            1.601712052270     1.788927099241     0.947262464895    12.000000000000
         O            0.628712052270     1.223927099241     0.452262464895    15.994914619570
         N            1.855712052270     3.070927099241     0.742262464895    14.003074004430
         H            2.079712052270     0.705927099241     2.705262464895     1.007825032230
         H            3.422712052270     1.669927099241     2.076262464895     1.007825032230
         H            1.234712052270     3.580927099241     0.127262464895     1.007825032230
         H            2.626712052270     3.541927099241     1.210262464895     1.007825032230
         H            2.960406052270     0.145157099241     1.255122464895     1.007825032230

  Running in c1 symmetry.

  Rotational constants: A =      0.15597  B =      0.01832  C =      0.01662 [cm^-1]
  Rotational constants: A =   4675.84173  B =    549.08863  C =    498.38704 [MHz]
  Nuclear repulsion =  349.934614783260145

  Charge       = 0
  Multiplicity = 1
  Electrons    = 64
  Nalpha       = 32
  Nbeta        = 32

  ==> Algorithm <==

  SCF Algorithm Type is PK.
  DIIS enabled.
  MOM disabled.
  Fractional occupation disabled.
  Guess Type is SAD.
  Energy threshold   = 1.00e-06
  Density threshold  = 1.00e-10
  Integral threshold = 0.00e+00

  ==> Primary Basis <==

  Basis Set: CC-PVDZ
    Blend: CC-PVDZ
    Number of shells: 78
    Number of basis function: 162
    Number of Cartesian functions: 170
    Spherical Harmonics?: true
    Max angular momentum: 2

  ==> Pre-Iterations <==

   -------------------------------------------------------
    Irrep   Nso     Nmo     Nalpha   Nbeta   Ndocc  Nsocc
   -------------------------------------------------------
     A        162     162       0       0       0       0
   -------------------------------------------------------
    Total     162     162      32      32      32       0
   -------------------------------------------------------

  ==> Integral Setup <==

  Using integral reordering PK algorithm.
  Sizing the integral batches needed.
  Building batch lookup table.
   Calculation information:
      Number of atoms:                  18
      Number of AO shells:              78
      Number of primitives:            226
      Number of atomic orbitals:       170
      Number of basis functions:       162

      Integral cutoff                 1.00e-12
      Number of threads:                 1

	Batch   1 pq = [       0,    9405] index = [             0,44231715] size =     44231715
	Batch   2 pq = [    9405,   13203] index = [      44231715,87166206] size =     42934491
  Task number: 8
  Buffer size: 11059200
  Buffer per thread: 2
  We computed 3182126 shell quartets total.
  Whereas there are 4747821 unique shell quartets.

  ==> DiskJK: Disk-Based J/K Matrices <==

    J tasked:                  Yes
    K tasked:                  Yes
    wK tasked:                  No
    Memory [MiB]:              375
    Schwarz Cutoff:          1E-12

    OpenMP threads:              1

  Minimum eigenvalue in the overlap matrix is 4.4314407098E-03.
  Using Symmetric Orthogonalization.

  SCF Guess: Superposition of Atomic Densities via on-the-fly atomic UHF.

  ==> Iterations <==

                        Total Energy        Delta E     RMS |[F,P]|

   @RHF iter SAD:  -414.55059399509531   -4.14551e+02   0.00000e+00
   @RHF iter   1:  -415.71161675232281   -1.16102e+00   4.64059e-03 DIIS
   @RHF iter   2:  -415.92354165025631   -2.11925e-01   2.69416e-03 DIIS
   @RHF iter   3:  -415.99136442466965   -6.78228e-02   5.05821e-04 DIIS
   @RHF iter   4:  -415.99544394951391   -4.07952e-03   1.93908e-04 DIIS
   @RHF iter   5:  -415.99613560326532   -6.91654e-04   3.54834e-05 DIIS
   @RHF iter   6:  -415.99618187820084   -4.62749e-05   1.79219e-05 DIIS
   @RHF iter   7:  -415.99619038728952   -8.50909e-06   6.66229e-06 DIIS
   @RHF iter   8:  -415.99619217988720   -1.79260e-06   2.03339e-06 DIIS
   @RHF iter   9:  -415.99619234583929   -1.65952e-07   6.23553e-07 DIIS
   @RHF iter  10:  -415.99619235427673   -8.43744e-09   2.80153e-07 DIIS
   @RHF iter  11:  -415.99619235587431   -1.59758e-09   4.38488e-08 DIIS
   @RHF iter  12:  -415.99619235593718   -6.28688e-11   1.28828e-08 DIIS
   @RHF iter  13:  -415.99619235594258   -5.40012e-12   3.73452e-09 DIIS
   @RHF iter  14:  -415.99619235594452   -1.93268e-12   1.42985e-09 DIIS
   @RHF iter  15:  -415.99619235594082    3.69482e-12   5.27859e-10 DIIS
   @RHF iter  16:  -415.99619235594048    3.41061e-13   2.15271e-10 DIIS
   @RHF iter  17:  -415.99619235594264   -2.16005e-12   8.53846e-11 DIIS
  Energy and wave function converged.

  ==> Post-Iterations <==

    Orbital Energies [Eh]
    ---------------------

    Doubly Occupied:

       1A    -20.528365     2A    -20.473742     3A    -15.611757
       4A    -15.550914     5A    -11.371859     6A    -11.319353
       7A    -11.260116     8A    -11.220748     9A     -1.393588
      10A     -1.337564    11A     -1.238964    12A     -1.181651
      13A     -1.020946    14A     -0.977095    15A     -0.821366
      16A     -0.769101    17A     -0.747175    18A     -0.696353
      19A     -0.674643    20A     -0.633324    21A     -0.627681
      22A     -0.595136    23A     -0.589762    24A     -0.577065
      25A     -0.542480    26A     -0.538204    27A     -0.533483
      28A     -0.496792    29A     -0.436687    30A     -0.429033
      31A     -0.382556    32A     -0.370700

    Virtual:

      33A      0.147628    34A      0.178326    35A      0.194163
      36A      0.205586    37A      0.212090    38A      0.225702
      39A      0.244668    40A      0.260327    41A      0.265654
      42A      0.269949    43A      0.300042    44A      0.337036
      45A      0.365610    46A      0.407726    47A      0.472393
      48A      0.485735    49A      0.547247    50A      0.589699
      51A      0.617252    52A      0.649258    53A      0.662079
      54A      0.672736    55A      0.681046    56A      0.695991
      57A      0.713053    58A      0.722683    59A      0.731146
      60A      0.745516    61A      0.765769    62A      0.777960
      63A      0.815838    64A      0.837358    65A      0.859966
      66A      0.877670    67A      0.884448    68A      0.898450
      69A      0.902064    70A      0.919108    71A      0.943202
      72A      0.966334    73A      0.980887    74A      0.985707
      75A      1.023224    76A      1.033459    77A      1.044018
      78A      1.095670    79A      1.104936    80A      1.148576
      81A      1.164274    82A      1.206519    83A      1.304287
      84A      1.336607    85A      1.362713    86A      1.376874
      87A      1.380761    88A      1.386067    89A      1.401456
      90A      1.411745    91A      1.426530    92A      1.453130
      93A      1.470419    94A      1.477672    95A      1.499825
      96A      1.567085    97A      1.614506    98A      1.642992
      99A      1.671498   100A      1.677469   101A      1.689600
     102A      1.749950   103A      1.801818   104A      1.830254
     105A      1.855027   106A      1.865901   107A      1.886495
     108A      1.886731   109A      1.897603   110A      1.906806
     111A      1.908908   112A      1.930509   113A      1.936987
     114A      1.956442   115A      1.996036   116A      2.005704
     117A      2.040523   118A      2.045758   119A      2.090356
     120A      2.102407   121A      2.130139   122A      2.205164
     123A      2.234857   124A      2.241686   125A      2.290976
     126A      2.298398   127A      2.383344   128A      2.406088
     129A      2.431348   130A      2.436087   131A      2.471810
     132A      2.511582   133A      2.521698   134A      2.541978
     135A      2.582994   136A      2.606573   137A      2.616170
     138A      2.672528   139A      2.724006   140A      2.752772
     141A      2.761869   142A      2.779395   143A      2.784612
     144A      2.818761   145A      2.832853   146A      2.876711
     147A      2.948303   148A      3.034242   149A      3.060881
     150A      3.102592   151A      3.116481   152A      3.163890
     153A      3.249924   154A      3.315374   155A      3.484422
     156A      3.493502   157A      3.534486   158A      3.564303
     159A      3.855787   160A      3.892918   161A      3.924753
     162A      3.931650

    Final Occupation by Irrep:
              A
    DOCC [    32 ]

  @RHF Final Energy:  -415.99619235594264

   => Energetics <=

    Nuclear Repulsion Energy =            349.9346147832601446
    One-Electron Energy =               -1261.9652097318694359
    Two-Electron Energy =                 496.0344025926666518
    Total Energy =                       -415.9961923559426396

Computation Completed

Properties will be evaluated at   0.000000,   0.000000,   0.000000 [a0]

Properties computed using the SCF density matrix

  Nuclear Dipole Moment: [e a0]
     X:     6.4837      Y:     0.4369      Z:     5.8132

  Electronic Dipole Moment: [e a0]
     X:    -3.7178      Y:     1.6468      Z:    -4.1430

  Dipole Moment: [e a0]
     X:     2.7658      Y:     2.0837      Z:     1.6702     Total:     3.8446

  Dipole Moment: [D]
     X:     7.0300      Y:     5.2963      Z:     4.2452     Total:     9.7721

*** tstop() called on ds3 at Tue Apr 28 13:39:39 2020
Module time:
	user time   =      24.90 seconds =       0.42 minutes
	system time =      13.44 seconds =       0.22 minutes
	total time  =         56 seconds =       0.93 minutes
Total time:
	user time   =      24.90 seconds =       0.42 minutes
	system time =      13.44 seconds =       0.22 minutes
	total time  =         56 seconds =       0.93 minutes
                                     G D M A

                                 by Anthony Stone

                           version 2.2.06, 22 June 2011

               Distributed Multipoles from Gaussian wavefunctions

Starting at 13:39:39 on 28 Apr 2020

Using SCF density matrix from file ./SSI/SSI-062GLN-110GLN-1-dimer.test.16465.fchk

                         Distributed Multipole Analysis

Standard DMA

Positions and radii in angstrom
Multipole moments in atomic units, ea_0^k for rank k

C          x = -1.358288  y = -2.707073  z =  0.110262 angstrom
           Maximum rank =  0   Radius =  0.650 angstrom
                   Q00  =  -0.263735

C          x = -1.726288  y = -1.792073  z = -1.041738 angstrom
           Maximum rank =  0   Radius =  0.650 angstrom
                   Q00  =   0.827440

O          x = -2.579288  y = -2.114073  z = -1.869738 angstrom
           Maximum rank =  0   Radius =  0.650 angstrom
                   Q00  =  -0.818868

N          x = -1.072288  y = -0.646073  z = -1.122738 angstrom
           Maximum rank =  0   Radius =  0.650 angstrom
                   Q00  =  -0.538934

H          x = -1.265288  y = -0.050073  z = -1.914738 angstrom
           Maximum rank =  0   Radius =  0.325 angstrom
                   Q00  =   0.206261

H          x = -0.371288  y = -0.361073  z = -0.444738 angstrom
           Maximum rank =  0   Radius =  0.325 angstrom
                   Q00  =   0.244328

H          x = -0.932288  y = -2.116073  z =  0.922262 angstrom
           Maximum rank =  0   Radius =  0.325 angstrom
                   Q00  =   0.081380

H          x = -0.586288  y = -3.393073  z = -0.216738 angstrom
           Maximum rank =  0   Radius =  0.325 angstrom
                   Q00  =   0.124405

H          x = -2.240548  y = -3.245423  z =  0.486822 angstrom
           Maximum rank =  0   Radius =  0.325 angstrom
                   Q00  =   0.122256

C          x =  2.586712  y =  1.026927  z =  1.796262 angstrom
           Maximum rank =  0   Radius =  0.650 angstrom
                   Q00  =  -0.260822

C          x =  1.601712  y =  1.788927  z =  0.947262 angstrom
           Maximum rank =  0   Radius =  0.650 angstrom
                   Q00  =   0.815968

O          x =  0.628712  y =  1.223927  z =  0.452262 angstrom
           Maximum rank =  0   Radius =  0.650 angstrom
                   Q00  =  -0.804430

N          x =  1.855712  y =  3.070927  z =  0.742262 angstrom
           Maximum rank =  0   Radius =  0.650 angstrom
                   Q00  =  -0.530661

H          x =  2.079712  y =  0.705927  z =  2.705262 angstrom
           Maximum rank =  0   Radius =  0.325 angstrom
                   Q00  =   0.135280

H          x =  3.422712  y =  1.669927  z =  2.076262 angstrom
           Maximum rank =  0   Radius =  0.325 angstrom
                   Q00  =   0.078185

H          x =  1.234712  y =  3.580927  z =  0.127262 angstrom
           Maximum rank =  0   Radius =  0.325 angstrom
                   Q00  =   0.226165

H          x =  2.626712  y =  3.541927  z =  1.210262 angstrom
           Maximum rank =  0   Radius =  0.325 angstrom
                   Q00  =   0.219326

H          x =  2.960406  y =  0.145157  z =  1.255122 angstrom
           Maximum rank =  0   Radius =  0.325 angstrom
                   Q00  =   0.136456

Total multipoles referred to origin at
           x =   0.000000,  y =    0.000000,  z =    0.000000 angstrom
                   Q00  =  -0.000000

Finished at 13:39:39 on 28 Apr 2020

  DMA results are available in the Python driver through the
	  variable('DMA DISTRIBUTED MULTIPOLES')
  and
	  variable('DMA TOTAL MULTIPOLES')
  commands.

    Psi4 stopped on: Tuesday, 28 April 2020 01:39PM
    Psi4 wall time for execution: 0:00:56.37

*** Psi4 exiting successfully. Buy a developer a beer!
