                               Psi4 1.3.2 release

  ==> Input File <==

--------------------------------------------------------------------------
import numpy as np
set {scf_type pk
basis cc-pvdz
d_convergence 10
gdma_switch   0
gdma_limit    0
gdma_origin   [ 0.0,  0.0,  0.0 ]
}
molecule test {
    units Angstrom
    0 1
    --
    0 1
    C               -2.016157199946483    -2.052240878554964    -1.280331383110235
    C               -2.778157199946483    -0.772240878554964    -1.642331383110234
    H               -1.189157199946483    -1.826240878554964    -0.607331383110234
    H               -2.697157199946483    -2.738240878554964    -0.779331383110234
    H               -1.642157199946483    -2.562240878554964    -2.166331383110235
    H               -3.540157199946483    -1.019240878554964    -2.377331383110235
    H               -2.094020199946482    -0.030790878554964    -2.080751383110234
    H               -3.277505199946483    -0.362890878554964    -0.751781383110234
    C               -0.088157199946483    -0.295240878554964     2.350668616889765
    C                1.212842800053517    -0.458240878554964     0.110668616889766
    C                0.529842800053517     0.208759121445036     1.077668616889766
    C                1.302842800053517     1.690759121445036    -0.350331383110234
    N                1.690842800053517     0.490759121445036    -0.770331383110235
    N                0.597842800053517     1.548759121445036     0.762668616889766
    H                1.408842800053517    -1.522240878554964     0.088668616889766
    H                2.351842800053518     0.335759121445036    -1.524331383110235
    H               -0.380157199946483    -1.337240878554964     2.219668616889765
    H               -0.991157199946483     0.282759121445036     2.544668616889765
    H                1.528842800053517     2.632759121445036    -0.835331383110234
    H                0.594308800053517    -0.204970878554964     3.208628616889766

}
e, wfn = energy('scf', return_wfn=True)
gdma(wfn)
dmavals = variable('DMA DISTRIBUTED MULTIPOLES')
charges = np.array(dmavals)
print(charges)
np.save('SSI-024VAL-032HIE-1-dimer.npy', np.array(charges))--------------------------------------------------------------------------

*** tstart() called on ds3
*** at Tue Apr 28 03:26:23 2020

   => Loading Basis Set <=

    Name: CC-PVDZ
    Role: ORBITAL
    Keyword: BASIS
    atoms 1-2, 9-12  entry C          line   138 file /theoryfs2/ds/metcalf/miniconda2/envs/tf2gpu/share/psi4/basis/cc-pvdz.gbs
    atoms 3-8, 15-20 entry H          line    22 file /theoryfs2/ds/metcalf/miniconda2/envs/tf2gpu/share/psi4/basis/cc-pvdz.gbs
    atoms 13-14      entry N          line   168 file /theoryfs2/ds/metcalf/miniconda2/envs/tf2gpu/share/psi4/basis/cc-pvdz.gbs

         ---------------------------------------------------------
                                   SCF
               by Justin Turney, Rob Parrish, Andy Simmonett
                          and Daniel G. A. Smith
                              RHF Reference
                        1 Threads,    500 MiB Core
         ---------------------------------------------------------

  ==> Geometry <==

    Molecular point group: c1
    Full point group: C1

    Geometry (in Angstrom), charge = 0, multiplicity = 1:

       Center              X                  Y                   Z               Mass
    ------------   -----------------  -----------------  -----------------  -----------------
         C           -2.016157199946    -2.052240878555    -1.280331383110    12.000000000000
         C           -2.778157199946    -0.772240878555    -1.642331383110    12.000000000000
         H           -1.189157199946    -1.826240878555    -0.607331383110     1.007825032230
         H           -2.697157199946    -2.738240878555    -0.779331383110     1.007825032230
         H           -1.642157199946    -2.562240878555    -2.166331383110     1.007825032230
         H           -3.540157199946    -1.019240878555    -2.377331383110     1.007825032230
         H           -2.094020199946    -0.030790878555    -2.080751383110     1.007825032230
         H           -3.277505199946    -0.362890878555    -0.751781383110     1.007825032230
         C           -0.088157199946    -0.295240878555     2.350668616890    12.000000000000
         C            1.212842800054    -0.458240878555     0.110668616890    12.000000000000
         C            0.529842800054     0.208759121445     1.077668616890    12.000000000000
         C            1.302842800054     1.690759121445    -0.350331383110    12.000000000000
         N            1.690842800054     0.490759121445    -0.770331383110    14.003074004430
         N            0.597842800054     1.548759121445     0.762668616890    14.003074004430
         H            1.408842800054    -1.522240878555     0.088668616890     1.007825032230
         H            2.351842800054     0.335759121445    -1.524331383110     1.007825032230
         H           -0.380157199946    -1.337240878555     2.219668616890     1.007825032230
         H           -0.991157199946     0.282759121445     2.544668616890     1.007825032230
         H            1.528842800054     2.632759121445    -0.835331383110     1.007825032230
         H            0.594308800054    -0.204970878555     3.208628616890     1.007825032230

  Running in c1 symmetry.

  Rotational constants: A =      0.07942  B =      0.03461  C =      0.02971 [cm^-1]
  Rotational constants: A =   2380.80883  B =   1037.51261  C =    890.54685 [MHz]
  Nuclear repulsion =  357.818278333582100

  Charge       = 0
  Multiplicity = 1
  Electrons    = 62
  Nalpha       = 31
  Nbeta        = 31

  ==> Algorithm <==

  SCF Algorithm Type is PK.
  DIIS enabled.
  MOM disabled.
  Fractional occupation disabled.
  Guess Type is SAD.
  Energy threshold   = 1.00e-06
  Density threshold  = 1.00e-10
  Integral threshold = 0.00e+00

  ==> Primary Basis <==

  Basis Set: CC-PVDZ
    Blend: CC-PVDZ
    Number of shells: 84
    Number of basis function: 172
    Number of Cartesian functions: 180
    Spherical Harmonics?: true
    Max angular momentum: 2

  ==> Pre-Iterations <==

   -------------------------------------------------------
    Irrep   Nso     Nmo     Nalpha   Nbeta   Ndocc  Nsocc
   -------------------------------------------------------
     A        172     172       0       0       0       0
   -------------------------------------------------------
    Total     172     172      31      31      31       0
   -------------------------------------------------------

  ==> Integral Setup <==

  Using integral reordering PK algorithm.
  Sizing the integral batches needed.
  Building batch lookup table.
   Calculation information:
      Number of atoms:                  20
      Number of AO shells:              84
      Number of primitives:            236
      Number of atomic orbitals:       180
      Number of basis functions:       172

      Integral cutoff                 1.00e-12
      Number of threads:                 1

	Batch   1 pq = [       0,    9405] index = [             0,44231715] size =     44231715
	Batch   2 pq = [    9405,   13301] index = [      44231715,88464951] size =     44233236
	Batch   3 pq = [   13301,   14878] index = [      88464951,110684881] size =     22219930
  Task number: 11
  Buffer size: 11059200
  Buffer per thread: 2
  We computed 5718491 shell quartets total.
  Whereas there are 6374235 unique shell quartets.

  ==> DiskJK: Disk-Based J/K Matrices <==

    J tasked:                  Yes
    K tasked:                  Yes
    wK tasked:                  No
    Memory [MiB]:              375
    Schwarz Cutoff:          1E-12

    OpenMP threads:              1

  Minimum eigenvalue in the overlap matrix is 1.2257316335E-03.
  Using Symmetric Orthogonalization.

  SCF Guess: Superposition of Atomic Densities via on-the-fly atomic UHF.

  ==> Iterations <==

                        Total Energy        Delta E     RMS |[F,P]|

   @RHF iter SAD:  -342.19013266677132   -3.42190e+02   0.00000e+00
   @RHF iter   1:  -342.88795919933432   -6.97827e-01   3.36514e-03 DIIS
   @RHF iter   2:  -343.05957725052417   -1.71618e-01   1.71513e-03 DIIS
   @RHF iter   3:  -343.10069494404888   -4.11177e-02   4.32330e-04 DIIS
   @RHF iter   4:  -343.10415116650927   -3.45622e-03   1.81486e-04 DIIS
   @RHF iter   5:  -343.10471199509141   -5.60829e-04   2.71634e-05 DIIS
   @RHF iter   6:  -343.10473388604976   -2.18910e-05   1.17627e-05 DIIS
   @RHF iter   7:  -343.10473765610976   -3.77006e-06   4.30096e-06 DIIS
   @RHF iter   8:  -343.10473852273839   -8.66629e-07   1.69272e-06 DIIS
   @RHF iter   9:  -343.10473870724496   -1.84507e-07   6.02989e-07 DIIS
   @RHF iter  10:  -343.10473872384898   -1.66040e-08   1.86625e-07 DIIS
   @RHF iter  11:  -343.10473872574755   -1.89857e-09   8.33034e-08 DIIS
   @RHF iter  12:  -343.10473872601472   -2.67164e-10   3.26245e-08 DIIS
   @RHF iter  13:  -343.10473872606133   -4.66116e-11   8.98004e-09 DIIS
   @RHF iter  14:  -343.10473872606542   -4.09273e-12   3.34780e-09 DIIS
   @RHF iter  15:  -343.10473872606650   -1.08002e-12   1.35439e-09 DIIS
   @RHF iter  16:  -343.10473872606786   -1.36424e-12   4.14905e-10 DIIS
   @RHF iter  17:  -343.10473872606627    1.59162e-12   1.24047e-10 DIIS
   @RHF iter  18:  -343.10473872606576    5.11591e-13   4.58847e-11 DIIS
  Energy and wave function converged.

  ==> Post-Iterations <==

    Orbital Energies [Eh]
    ---------------------

    Doubly Occupied:

       1A    -15.621016     2A    -15.527774     3A    -11.292714
       4A    -11.251199     5A    -11.242116     6A    -11.224400
       7A    -11.212978     8A    -11.210339     9A     -1.341567
      10A     -1.154010    11A     -1.031071    12A     -1.010761
      13A     -0.941091    14A     -0.831695    15A     -0.817326
      16A     -0.761917    17A     -0.741307    18A     -0.612449
      19A     -0.604535    20A     -0.596401    21A     -0.590577
      22A     -0.588829    23A     -0.553110    24A     -0.540149
      25A     -0.522123    26A     -0.493937    27A     -0.480518
      28A     -0.479329    29A     -0.410163    30A     -0.378854
      31A     -0.309835

    Virtual:

      32A      0.167846    33A      0.180767    34A      0.186809
      35A      0.210054    36A      0.223079    37A      0.226234
      38A      0.234274    39A      0.250152    40A      0.261560
      41A      0.275134    42A      0.279422    43A      0.288676
      44A      0.306894    45A      0.332095    46A      0.376493
      47A      0.393643    48A      0.401007    49A      0.412029
      50A      0.477621    51A      0.485648    52A      0.589888
      53A      0.596779    54A      0.607521    55A      0.612615
      56A      0.627579    57A      0.658962    58A      0.672438
      59A      0.688334    60A      0.700043    61A      0.712791
      62A      0.715143    63A      0.753615    64A      0.766722
      65A      0.807333    66A      0.819047    67A      0.836802
      68A      0.851690    69A      0.858621    70A      0.876735
      71A      0.893825    72A      0.905552    73A      0.909139
      74A      0.912479    75A      0.917106    76A      0.924265
      77A      0.940974    78A      0.958890    79A      0.966387
      80A      0.976341    81A      1.018558    82A      1.043010
      83A      1.063603    84A      1.082038    85A      1.100643
      86A      1.121856    87A      1.135644    88A      1.140647
      89A      1.156413    90A      1.178451    91A      1.244042
      92A      1.263495    93A      1.296199    94A      1.313920
      95A      1.333271    96A      1.339283    97A      1.431546
      98A      1.444533    99A      1.471856   100A      1.477916
     101A      1.489850   102A      1.527156   103A      1.571199
     104A      1.574581   105A      1.598300   106A      1.638278
     107A      1.685541   108A      1.691698   109A      1.701813
     110A      1.716871   111A      1.772468   112A      1.805829
     113A      1.832899   114A      1.848701   115A      1.874224
     116A      1.886437   117A      1.892209   118A      1.906417
     119A      1.920111   120A      1.938524   121A      1.946235
     122A      1.952557   123A      1.957190   124A      1.963118
     125A      1.966603   126A      1.973587   127A      1.984012
     128A      1.992320   129A      2.050899   130A      2.066739
     131A      2.095692   132A      2.110711   133A      2.124052
     134A      2.142583   135A      2.191210   136A      2.227198
     137A      2.228371   138A      2.288176   139A      2.305030
     140A      2.324159   141A      2.336494   142A      2.367901
     143A      2.429883   144A      2.454345   145A      2.461763
     146A      2.470694   147A      2.514013   148A      2.553725
     149A      2.570189   150A      2.585021   151A      2.609254
     152A      2.693072   153A      2.733131   154A      2.736428
     155A      2.772105   156A      2.779388   157A      2.789933
     158A      2.809153   159A      2.837868   160A      2.850288
     161A      2.857796   162A      2.871849   163A      2.894583
     164A      2.925135   165A      2.958796   166A      2.965861
     167A      2.982490   168A      3.060756   169A      3.159153
     170A      3.235787   171A      3.467421   172A      3.784711

    Final Occupation by Irrep:
              A
    DOCC [    31 ]

  @RHF Final Energy:  -343.10473872606576

   => Energetics <=

    Nuclear Repulsion Energy =            357.8182783335821000
    One-Electron Energy =               -1173.0978519621608029
    Two-Electron Energy =                 472.1748349025128846
    Total Energy =                       -343.1047387260657615

Computation Completed

Properties will be evaluated at   0.000000,   0.000000,   0.000000 [a0]

Properties computed using the SCF density matrix

  Nuclear Dipole Moment: [e a0]
     X:    -9.3135      Y:    -7.8364      Z:    -2.8695

  Electronic Dipole Moment: [e a0]
     X:    10.1629      Y:     7.2773      Z:     2.0048

  Dipole Moment: [e a0]
     X:     0.8494      Y:    -0.5592      Z:    -0.8647     Total:     1.3349

  Dipole Moment: [D]
     X:     2.1590      Y:    -1.4213      Z:    -2.1977     Total:     3.3929

*** tstop() called on ds3 at Tue Apr 28 03:27:21 2020
Module time:
	user time   =      41.36 seconds =       0.69 minutes
	system time =      18.02 seconds =       0.30 minutes
	total time  =         58 seconds =       0.97 minutes
Total time:
	user time   =      41.36 seconds =       0.69 minutes
	system time =      18.02 seconds =       0.30 minutes
	total time  =         58 seconds =       0.97 minutes
                                     G D M A

                                 by Anthony Stone

                           version 2.2.06, 22 June 2011

               Distributed Multipoles from Gaussian wavefunctions

Starting at 3:27:21 on 28 Apr 2020

Using SCF density matrix from file ./SSI/SSI-024VAL-032HIE-1-dimer.test.9766.fchk

                         Distributed Multipole Analysis

Standard DMA

Positions and radii in angstrom
Multipole moments in atomic units, ea_0^k for rank k

C          x = -2.016157  y = -2.052241  z = -1.280331 angstrom
           Maximum rank =  0   Radius =  0.650 angstrom
                   Q00  =  -0.245554

C          x = -2.778157  y = -0.772241  z = -1.642331 angstrom
           Maximum rank =  0   Radius =  0.650 angstrom
                   Q00  =  -0.231259

H          x = -1.189157  y = -1.826241  z = -0.607331 angstrom
           Maximum rank =  0   Radius =  0.325 angstrom
                   Q00  =   0.091508

H          x = -2.697157  y = -2.738241  z = -0.779331 angstrom
           Maximum rank =  0   Radius =  0.325 angstrom
                   Q00  =   0.072743

H          x = -1.642157  y = -2.562241  z = -2.166331 angstrom
           Maximum rank =  0   Radius =  0.325 angstrom
                   Q00  =   0.073636

H          x = -3.540157  y = -1.019241  z = -2.377331 angstrom
           Maximum rank =  0   Radius =  0.325 angstrom
                   Q00  =   0.073671

H          x = -2.094020  y = -0.030791  z = -2.080751 angstrom
           Maximum rank =  0   Radius =  0.325 angstrom
                   Q00  =   0.081186

H          x = -3.277505  y = -0.362891  z = -0.751781 angstrom
           Maximum rank =  0   Radius =  0.325 angstrom
                   Q00  =   0.083102

C          x = -0.088157  y = -0.295241  z =  2.350669 angstrom
           Maximum rank =  0   Radius =  0.650 angstrom
                   Q00  =  -0.194137

C          x =  1.212843  y = -0.458241  z =  0.110669 angstrom
           Maximum rank =  0   Radius =  0.650 angstrom
                   Q00  =  -0.001413

C          x =  0.529843  y =  0.208759  z =  1.077669 angstrom
           Maximum rank =  0   Radius =  0.650 angstrom
                   Q00  =   0.222844

C          x =  1.302843  y =  1.690759  z = -0.350331 angstrom
           Maximum rank =  0   Radius =  0.650 angstrom
                   Q00  =   0.464670

N          x =  1.690843  y =  0.490759  z = -0.770331 angstrom
           Maximum rank =  0   Radius =  0.650 angstrom
                   Q00  =  -0.481949

N          x =  0.597843  y =  1.548759  z =  0.762669 angstrom
           Maximum rank =  0   Radius =  0.650 angstrom
                   Q00  =  -0.770407

H          x =  1.408843  y = -1.522241  z =  0.088669 angstrom
           Maximum rank =  0   Radius =  0.325 angstrom
                   Q00  =   0.101498

H          x =  2.351843  y =  0.335759  z = -1.524331 angstrom
           Maximum rank =  0   Radius =  0.325 angstrom
                   Q00  =   0.219929

H          x = -0.380157  y = -1.337241  z =  2.219669 angstrom
           Maximum rank =  0   Radius =  0.325 angstrom
                   Q00  =   0.092544

H          x = -0.991157  y =  0.282759  z =  2.544669 angstrom
           Maximum rank =  0   Radius =  0.325 angstrom
                   Q00  =   0.117505

H          x =  1.528843  y =  2.632759  z = -0.835331 angstrom
           Maximum rank =  0   Radius =  0.325 angstrom
                   Q00  =   0.123822

H          x =  0.594309  y = -0.204971  z =  3.208629 angstrom
           Maximum rank =  0   Radius =  0.325 angstrom
                   Q00  =   0.106060

Total multipoles referred to origin at
           x =   0.000000,  y =    0.000000,  z =    0.000000 angstrom
                   Q00  =  -0.000000

Finished at 3:27:21 on 28 Apr 2020

  DMA results are available in the Python driver through the
	  variable('DMA DISTRIBUTED MULTIPOLES')
  and
	  variable('DMA TOTAL MULTIPOLES')
  commands.

    Psi4 stopped on: Tuesday, 28 April 2020 03:27AM
    Psi4 wall time for execution: 0:00:57.96

*** Psi4 exiting successfully. Buy a developer a beer!
