                               Psi4 1.3.2 release

  ==> Input File <==

--------------------------------------------------------------------------
import numpy as np
set {scf_type pk
basis cc-pvdz
d_convergence 10
gdma_switch   0
gdma_limit    0
gdma_origin   [ 0.0,  0.0,  0.0 ]
}
molecule test {
    units Angstrom
    0 1
    --
    0 1
    C               -0.834590729519918     1.169207683165795    -0.588993444168437
    C               -1.786590729519918     1.203207683165795    -1.786993444168437
    C                0.136409270480082     0.049207683165795    -0.499993444168437
    C                1.397409270480082     0.023207683165795    -1.007993444168437
    C               -0.023590729519918    -1.168792316834205     0.246006555831563
    C                1.199409270480082    -1.887792316834205     0.152006555831563
    C               -1.074590729519918    -1.725792316834205     0.991006555831563
    C                1.393409270480082    -3.118792316834205     0.771006555831563
    C               -0.881590729519918    -2.965792316834206     1.610006555831563
    C                0.339409270480082    -3.648792316834205     1.499006555831563
    N                2.039409270480082    -1.128792316834205    -0.619993444168437
    H               -0.242590729519918     2.078207683165795    -0.589993444168437
    H               -1.411590729519918     1.162207683165795     0.337006555831563
    H               -2.253590729519918     0.228207683165795    -1.889993444168437
    H                1.837409270480082     0.820207683165795    -1.595993444168437
    H                2.988409270480082    -1.367792316834205    -0.872993444168437
    H               -2.020590729519918    -1.209792316834205     1.068006555831563
    H                2.327409270480082    -3.651792316834205     0.669006555831563
    H               -1.689590729519918    -3.441792316834206     2.143006555831563
    H                0.452409270480082    -4.612792316834205     1.973006555831563
    H               -1.260260729519918     1.473547683165795    -2.714303444168437
    H               -2.560700729519918     1.941727683165795    -1.531373444168437
    C               -0.543590729519918     4.936207683165796     0.199006555831563
    C               -0.993590729519918     6.197207683165794    -0.526993444168437
    H               -0.634590729519918     4.098207683165795    -0.479993444168437
    H                0.490409270480082     5.041207683165794     0.528006555831563
    H               -1.171590729519918     4.764207683165794     1.075006555831563
    H               -0.722590729519918     7.052207683165794     0.094006555831563
    H               -2.080490729519918     6.166197683165795    -0.693393444168437
    H               -0.474860729519918     6.304407683165794    -1.491063444168437

}
e, wfn = energy('scf', return_wfn=True)
gdma(wfn)
dmavals = variable('DMA DISTRIBUTED MULTIPOLES')
charges = np.array(dmavals)
print(charges)
np.save('SSI-071TRP-165ALA-1-dimer.npy', np.array(charges))--------------------------------------------------------------------------

*** tstart() called on ds3
*** at Sun Apr 26 20:53:16 2020

   => Loading Basis Set <=

    Name: CC-PVDZ
    Role: ORBITAL
    Keyword: BASIS
    atoms 1-10, 23-24  entry C          line   138 file /theoryfs2/ds/metcalf/miniconda2/envs/tf2gpu/share/psi4/basis/cc-pvdz.gbs
    atoms 11           entry N          line   168 file /theoryfs2/ds/metcalf/miniconda2/envs/tf2gpu/share/psi4/basis/cc-pvdz.gbs
    atoms 12-22, 25-30 entry H          line    22 file /theoryfs2/ds/metcalf/miniconda2/envs/tf2gpu/share/psi4/basis/cc-pvdz.gbs

         ---------------------------------------------------------
                                   SCF
               by Justin Turney, Rob Parrish, Andy Simmonett
                          and Daniel G. A. Smith
                              RHF Reference
                        1 Threads,    500 MiB Core
         ---------------------------------------------------------

  ==> Geometry <==

    Molecular point group: c1
    Full point group: C1

    Geometry (in Angstrom), charge = 0, multiplicity = 1:

       Center              X                  Y                   Z               Mass
    ------------   -----------------  -----------------  -----------------  -----------------
         C           -0.834590729520     1.169207683166    -0.588993444168    12.000000000000
         C           -1.786590729520     1.203207683166    -1.786993444168    12.000000000000
         C            0.136409270480     0.049207683166    -0.499993444168    12.000000000000
         C            1.397409270480     0.023207683166    -1.007993444168    12.000000000000
         C           -0.023590729520    -1.168792316834     0.246006555832    12.000000000000
         C            1.199409270480    -1.887792316834     0.152006555832    12.000000000000
         C           -1.074590729520    -1.725792316834     0.991006555832    12.000000000000
         C            1.393409270480    -3.118792316834     0.771006555832    12.000000000000
         C           -0.881590729520    -2.965792316834     1.610006555832    12.000000000000
         C            0.339409270480    -3.648792316834     1.499006555832    12.000000000000
         N            2.039409270480    -1.128792316834    -0.619993444168    14.003074004430
         H           -0.242590729520     2.078207683166    -0.589993444168     1.007825032230
         H           -1.411590729520     1.162207683166     0.337006555832     1.007825032230
         H           -2.253590729520     0.228207683166    -1.889993444168     1.007825032230
         H            1.837409270480     0.820207683166    -1.595993444168     1.007825032230
         H            2.988409270480    -1.367792316834    -0.872993444168     1.007825032230
         H           -2.020590729520    -1.209792316834     1.068006555832     1.007825032230
         H            2.327409270480    -3.651792316834     0.669006555832     1.007825032230
         H           -1.689590729520    -3.441792316834     2.143006555832     1.007825032230
         H            0.452409270480    -4.612792316834     1.973006555832     1.007825032230
         H           -1.260260729520     1.473547683166    -2.714303444168     1.007825032230
         H           -2.560700729520     1.941727683166    -1.531373444168     1.007825032230
         C           -0.543590729520     4.936207683166     0.199006555832    12.000000000000
         C           -0.993590729520     6.197207683166    -0.526993444168    12.000000000000
         H           -0.634590729520     4.098207683166    -0.479993444168     1.007825032230
         H            0.490409270480     5.041207683166     0.528006555832     1.007825032230
         H           -1.171590729520     4.764207683166     1.075006555832     1.007825032230
         H           -0.722590729520     7.052207683166     0.094006555832     1.007825032230
         H           -2.080490729520     6.166197683166    -0.693393444168     1.007825032230
         H           -0.474860729520     6.304407683166    -1.491063444168     1.007825032230

  Running in c1 symmetry.

  Rotational constants: A =      0.05020  B =      0.00965  C =      0.00906 [cm^-1]
  Rotational constants: A =   1505.02436  B =    289.30549  C =    271.60780 [MHz]
  Nuclear repulsion =  727.182846949968734

  Charge       = 0
  Multiplicity = 1
  Electrons    = 96
  Nalpha       = 48
  Nbeta        = 48

  ==> Algorithm <==

  SCF Algorithm Type is PK.
  DIIS enabled.
  MOM disabled.
  Fractional occupation disabled.
  Guess Type is SAD.
  Energy threshold   = 1.00e-06
  Density threshold  = 1.00e-10
  Integral threshold = 0.00e+00

  ==> Primary Basis <==

  Basis Set: CC-PVDZ
    Blend: CC-PVDZ
    Number of shells: 129
    Number of basis function: 267
    Number of Cartesian functions: 280
    Spherical Harmonics?: true
    Max angular momentum: 2

  ==> Pre-Iterations <==

   -------------------------------------------------------
    Irrep   Nso     Nmo     Nalpha   Nbeta   Ndocc  Nsocc
   -------------------------------------------------------
     A        267     267       0       0       0       0
   -------------------------------------------------------
    Total     267     267      48      48      48       0
   -------------------------------------------------------

  ==> Integral Setup <==

  Using integral reordering PK algorithm.
  Sizing the integral batches needed.
  Building batch lookup table.
   Calculation information:
      Number of atoms:                  30
      Number of AO shells:             129
      Number of primitives:            371
      Number of atomic orbitals:       280
      Number of basis functions:       267

      Integral cutoff                 1.00e-12
      Number of threads:                 1

	Batch   1 pq = [       0,    9405] index = [             0,44231715] size =     44231715
	Batch   2 pq = [    9405,   13301] index = [      44231715,88464951] size =     44233236
	Batch   3 pq = [   13301,   16290] index = [      88464951,132690195] size =     44225244
	Batch   4 pq = [   16290,   18810] index = [     132690195,176917455] size =     44227260
	Batch   5 pq = [   18810,   21030] index = [     176917455,221140965] size =     44223510
	Batch   6 pq = [   21030,   23037] index = [     221140965,265363203] size =     44222238
	Batch   7 pq = [   23037,   24883] index = [     265363203,309594286] size =     44231083
	Batch   8 pq = [   24883,   26601] index = [     309594286,353819901] size =     44225615
	Batch   9 pq = [   26601,   28214] index = [     353819901,398029005] size =     44209104
	Batch  10 pq = [   28214,   29740] index = [     398029005,442248670] size =     44219665
	Batch  11 pq = [   29740,   31191] index = [     442248670,486454836] size =     44206166
	Batch  12 pq = [   31191,   32578] index = [     486454836,530679331] size =     44224495
	Batch  13 pq = [   32578,   33908] index = [     530679331,574893186] size =     44213855
	Batch  14 pq = [   33908,   35188] index = [     574893186,619115266] size =     44222080
	Batch  15 pq = [   35188,   35778] index = [     619115266,640050531] size =     20935265
  Task number: 58
  Buffer size: 11059200
  Buffer per thread: 2
  We computed 28651807 shell quartets total.
  Whereas there are 35158305 unique shell quartets.

  ==> DiskJK: Disk-Based J/K Matrices <==

    J tasked:                  Yes
    K tasked:                  Yes
    wK tasked:                  No
    Memory [MiB]:              375
    Schwarz Cutoff:          1E-12

    OpenMP threads:              1

  Minimum eigenvalue in the overlap matrix is 2.3887148948E-04.
  Using Symmetric Orthogonalization.

  SCF Guess: Superposition of Atomic Densities via on-the-fly atomic UHF.

  ==> Iterations <==

                        Total Energy        Delta E     RMS |[F,P]|

   @RHF iter SAD:  -518.05460539745991   -5.18055e+02   0.00000e+00
   @RHF iter   1:  -518.49132484749884   -4.36719e-01   2.49654e-03 DIIS
   @RHF iter   2:  -518.74814752714042   -2.56823e-01   1.11585e-03 DIIS
   @RHF iter   3:  -518.79496916019957   -4.68216e-02   2.93520e-04 DIIS
   @RHF iter   4:  -518.79924413761762   -4.27498e-03   1.37628e-04 DIIS
   @RHF iter   5:  -518.79999995410833   -7.55816e-04   1.87715e-05 DIIS
   @RHF iter   6:  -518.80003135093534   -3.13968e-05   8.51244e-06 DIIS
   @RHF iter   7:  -518.80003742566498   -6.07473e-06   3.66027e-06 DIIS
   @RHF iter   8:  -518.80003921605294   -1.79039e-06   1.45634e-06 DIIS
   @RHF iter   9:  -518.80003960998829   -3.93935e-07   6.49150e-07 DIIS
   @RHF iter  10:  -518.80003968874746   -7.87592e-08   2.96594e-07 DIIS
   @RHF iter  11:  -518.80003970641360   -1.76661e-08   1.11397e-07 DIIS
   @RHF iter  12:  -518.80003970896189   -2.54829e-09   4.15859e-08 DIIS
   @RHF iter  13:  -518.80003970917892   -2.17028e-10   1.30853e-08 DIIS
   @RHF iter  14:  -518.80003970918244   -3.52429e-12   4.73059e-09 DIIS
   @RHF iter  15:  -518.80003970919540   -1.29603e-11   2.03631e-09 DIIS
   @RHF iter  16:  -518.80003970918995    5.45697e-12   9.05088e-10 DIIS
   @RHF iter  17:  -518.80003970918915    7.95808e-13   3.93953e-10 DIIS
   @RHF iter  18:  -518.80003970918972   -5.68434e-13   1.63276e-10 DIIS
   @RHF iter  19:  -518.80003970919347   -3.75167e-12   6.32394e-11 DIIS
  Energy and wave function converged.

  ==> Post-Iterations <==

    Orbital Energies [Eh]
    ---------------------

    Doubly Occupied:

       1A    -15.600731     2A    -11.263475     3A    -11.262754
       4A    -11.231476     5A    -11.230021     6A    -11.228299
       7A    -11.222126     8A    -11.221212     9A    -11.220234
      10A    -11.219061    11A    -11.218831    12A    -11.215566
      13A    -11.212105    14A     -1.294635    15A     -1.125929
      16A     -1.083662    17A     -1.020940    18A     -1.014078
      19A     -0.991220    20A     -0.967487    21A     -0.859524
      22A     -0.838468    23A     -0.835901    24A     -0.802546
      25A     -0.744806    26A     -0.717966    27A     -0.664355
      28A     -0.643009    29A     -0.618095    30A     -0.602486
      31A     -0.597741    32A     -0.593268    33A     -0.587590
      34A     -0.583710    35A     -0.576003    36A     -0.545538
      37A     -0.515915    38A     -0.507788    39A     -0.502351
      40A     -0.499054    41A     -0.487616    42A     -0.484866
      43A     -0.477238    44A     -0.460586    45A     -0.458048
      46A     -0.370898    47A     -0.293821    48A     -0.273531

    Virtual:

      49A      0.125351    50A      0.166455    51A      0.170095
      52A      0.181933    53A      0.194997    54A      0.203006
      55A      0.217122    56A      0.227448    57A      0.229248
      58A      0.241641    59A      0.244932    60A      0.254098
      61A      0.258895    62A      0.265916    63A      0.271368
      64A      0.281403    65A      0.290687    66A      0.294602
      67A      0.319023    68A      0.350436    69A      0.374859
      70A      0.382955    71A      0.398744    72A      0.405554
      73A      0.425225    74A      0.445087    75A      0.450577
      76A      0.476581    77A      0.483304    78A      0.511140
      79A      0.517447    80A      0.588186    81A      0.593524
      82A      0.606109    83A      0.607103    84A      0.614852
      85A      0.634541    86A      0.640372    87A      0.654814
      88A      0.664960    89A      0.670765    90A      0.692439
      91A      0.695506    92A      0.712453    93A      0.717593
      94A      0.722951    95A      0.737535    96A      0.742531
      97A      0.752801    98A      0.753334    99A      0.759219
     100A      0.776569   101A      0.789023   102A      0.797401
     103A      0.799411   104A      0.838505   105A      0.845349
     106A      0.848667   107A      0.858547   108A      0.873703
     109A      0.877205   110A      0.882305   111A      0.887971
     112A      0.893225   113A      0.894668   114A      0.902566
     115A      0.907451   116A      0.912598   117A      0.915932
     118A      0.920129   119A      0.933468   120A      0.953731
     121A      0.956981   122A      0.961140   123A      0.974480
     124A      0.983693   125A      0.991894   126A      1.010168
     127A      1.041774   128A      1.050513   129A      1.068202
     130A      1.076912   131A      1.086627   132A      1.121765
     133A      1.131289   134A      1.133909   135A      1.142110
     136A      1.151005   137A      1.158352   138A      1.168560
     139A      1.199724   140A      1.221326   141A      1.224316
     142A      1.238250   143A      1.250043   144A      1.260513
     145A      1.271473   146A      1.281665   147A      1.297254
     148A      1.327299   149A      1.331460   150A      1.360640
     151A      1.370087   152A      1.387219   153A      1.432832
     154A      1.449767   155A      1.471928   156A      1.478521
     157A      1.493227   158A      1.512826   159A      1.552098
     160A      1.576854   161A      1.596008   162A      1.607614
     163A      1.638729   164A      1.641708   165A      1.653166
     166A      1.678202   167A      1.683309   168A      1.695890
     169A      1.729038   170A      1.742960   171A      1.758174
     172A      1.773422   173A      1.783864   174A      1.793695
     175A      1.818575   176A      1.828990   177A      1.853867
     178A      1.871274   179A      1.874131   180A      1.877178
     181A      1.882985   182A      1.891987   183A      1.899266
     184A      1.910192   185A      1.916419   186A      1.922373
     187A      1.928072   188A      1.940710   189A      1.942878
     190A      1.946942   191A      1.953628   192A      1.961538
     193A      1.972246   194A      1.981074   195A      1.983167
     196A      1.988849   197A      2.001803   198A      2.003999
     199A      2.022402   200A      2.031186   201A      2.048797
     202A      2.057851   203A      2.086903   204A      2.095331
     205A      2.101277   206A      2.105641   207A      2.111691
     208A      2.116809   209A      2.136943   210A      2.151249
     211A      2.156857   212A      2.165982   213A      2.175083
     214A      2.216139   215A      2.226051   216A      2.265181
     217A      2.282548   218A      2.290784   219A      2.298832
     220A      2.307351   221A      2.311280   222A      2.319371
     223A      2.345584   224A      2.363330   225A      2.383916
     226A      2.415085   227A      2.453345   228A      2.456946
     229A      2.463987   230A      2.477182   231A      2.508205
     232A      2.547901   233A      2.564317   234A      2.574705
     235A      2.583051   236A      2.607019   237A      2.616252
     238A      2.650383   239A      2.668909   240A      2.698888
     241A      2.717974   242A      2.763754   243A      2.771591
     244A      2.776155   245A      2.788983   246A      2.795500
     247A      2.805834   248A      2.813639   249A      2.836033
     250A      2.841543   251A      2.852807   252A      2.876943
     253A      2.911941   254A      2.929552   255A      2.954722
     256A      2.965339   257A      2.987823   258A      2.995771
     259A      3.046676   260A      3.057150   261A      3.095930
     262A      3.132165   263A      3.212440   264A      3.308634
     265A      3.385410   266A      3.745797   267A      3.943324

    Final Occupation by Irrep:
              A
    DOCC [    48 ]

  @RHF Final Energy:  -518.80003970919347

   => Energetics <=

    Nuclear Repulsion Energy =            727.1828469499687344
    One-Electron Energy =               -2143.9926594543662759
    Two-Electron Energy =                 898.0097727952040714
    Total Energy =                       -518.8000397091934701

Computation Completed

Properties will be evaluated at   0.000000,   0.000000,   0.000000 [a0]

Properties computed using the SCF density matrix

  Nuclear Dipole Moment: [e a0]
     X:    -7.9060      Y:    25.1711      Z:    -3.7219

  Electronic Dipole Moment: [e a0]
     X:     8.5979      Y:   -24.9660      Z:     3.3612

  Dipole Moment: [e a0]
     X:     0.6919      Y:     0.2051      Z:    -0.3607     Total:     0.8068

  Dipole Moment: [D]
     X:     1.7587      Y:     0.5213      Z:    -0.9168     Total:     2.0507

*** tstop() called on ds3 at Sun Apr 26 21:03:47 2020
Module time:
	user time   =     240.31 seconds =       4.01 minutes
	system time =     107.97 seconds =       1.80 minutes
	total time  =        631 seconds =      10.52 minutes
Total time:
	user time   =     240.31 seconds =       4.01 minutes
	system time =     107.97 seconds =       1.80 minutes
	total time  =        631 seconds =      10.52 minutes
                                     G D M A

                                 by Anthony Stone

                           version 2.2.06, 22 June 2011

               Distributed Multipoles from Gaussian wavefunctions

Starting at 21:3:47 on 26 Apr 2020

Using SCF density matrix from file ./SSI/SSI-071TRP-165ALA-1-dimer.test.10570.fchk

                         Distributed Multipole Analysis

Standard DMA

Positions and radii in angstrom
Multipole moments in atomic units, ea_0^k for rank k

C          x = -0.834591  y =  1.169208  z = -0.588993 angstrom
           Maximum rank =  0   Radius =  0.650 angstrom
                   Q00  =  -0.049896

C          x = -1.786591  y =  1.203208  z = -1.786993 angstrom
           Maximum rank =  0   Radius =  0.650 angstrom
                   Q00  =  -0.249043

C          x =  0.136409  y =  0.049208  z = -0.499993 angstrom
           Maximum rank =  0   Radius =  0.650 angstrom
                   Q00  =  -0.116907

C          x =  1.397409  y =  0.023208  z = -1.007993 angstrom
           Maximum rank =  0   Radius =  0.650 angstrom
                   Q00  =   0.068981

C          x = -0.023591  y = -1.168792  z =  0.246007 angstrom
           Maximum rank =  0   Radius =  0.650 angstrom
                   Q00  =  -0.047522

C          x =  1.199409  y = -1.887792  z =  0.152007 angstrom
           Maximum rank =  0   Radius =  0.650 angstrom
                   Q00  =   0.291425

C          x = -1.074591  y = -1.725792  z =  0.991007 angstrom
           Maximum rank =  0   Radius =  0.650 angstrom
                   Q00  =  -0.104325

C          x =  1.393409  y = -3.118792  z =  0.771007 angstrom
           Maximum rank =  0   Radius =  0.650 angstrom
                   Q00  =  -0.119629

C          x = -0.881591  y = -2.965792  z =  1.610007 angstrom
           Maximum rank =  0   Radius =  0.650 angstrom
                   Q00  =  -0.088125

C          x =  0.339409  y = -3.648792  z =  1.499007 angstrom
           Maximum rank =  0   Radius =  0.650 angstrom
                   Q00  =  -0.068243

N          x =  2.039409  y = -1.128792  z = -0.619993 angstrom
           Maximum rank =  0   Radius =  0.650 angstrom
                   Q00  =  -0.494012

H          x = -0.242591  y =  2.078208  z = -0.589993 angstrom
           Maximum rank =  0   Radius =  0.325 angstrom
                   Q00  =   0.071481

H          x = -1.411591  y =  1.162208  z =  0.337007 angstrom
           Maximum rank =  0   Radius =  0.325 angstrom
                   Q00  =   0.072394

H          x = -2.253591  y =  0.228208  z = -1.889993 angstrom
           Maximum rank =  0   Radius =  0.325 angstrom
                   Q00  =   0.088918

H          x =  1.837409  y =  0.820208  z = -1.595993 angstrom
           Maximum rank =  0   Radius =  0.325 angstrom
                   Q00  =   0.101349

H          x =  2.988409  y = -1.367792  z = -0.872993 angstrom
           Maximum rank =  0   Radius =  0.325 angstrom
                   Q00  =   0.215022

H          x = -2.020591  y = -1.209792  z =  1.068007 angstrom
           Maximum rank =  0   Radius =  0.325 angstrom
                   Q00  =   0.070637

H          x =  2.327409  y = -3.651792  z =  0.669007 angstrom
           Maximum rank =  0   Radius =  0.325 angstrom
                   Q00  =   0.073026

H          x = -1.689591  y = -3.441792  z =  2.143007 angstrom
           Maximum rank =  0   Radius =  0.325 angstrom
                   Q00  =   0.060901

H          x =  0.452409  y = -4.612792  z =  1.973007 angstrom
           Maximum rank =  0   Radius =  0.325 angstrom
                   Q00  =   0.064733

H          x = -1.260261  y =  1.473548  z = -2.714303 angstrom
           Maximum rank =  0   Radius =  0.325 angstrom
                   Q00  =   0.079988

H          x = -2.560701  y =  1.941728  z = -1.531373 angstrom
           Maximum rank =  0   Radius =  0.325 angstrom
                   Q00  =   0.080071

C          x = -0.543591  y =  4.936208  z =  0.199007 angstrom
           Maximum rank =  0   Radius =  0.650 angstrom
                   Q00  =  -0.245005

C          x = -0.993591  y =  6.197208  z = -0.526993 angstrom
           Maximum rank =  0   Radius =  0.650 angstrom
                   Q00  =  -0.225267

H          x = -0.634591  y =  4.098208  z = -0.479993 angstrom
           Maximum rank =  0   Radius =  0.325 angstrom
                   Q00  =   0.078369

H          x =  0.490409  y =  5.041208  z =  0.528007 angstrom
           Maximum rank =  0   Radius =  0.325 angstrom
                   Q00  =   0.077737

H          x = -1.171591  y =  4.764208  z =  1.075007 angstrom
           Maximum rank =  0   Radius =  0.325 angstrom
                   Q00  =   0.080545

H          x = -0.722591  y =  7.052208  z =  0.094007 angstrom
           Maximum rank =  0   Radius =  0.325 angstrom
                   Q00  =   0.076364

H          x = -2.080491  y =  6.166198  z = -0.693393 angstrom
           Maximum rank =  0   Radius =  0.325 angstrom
                   Q00  =   0.079416

H          x = -0.474861  y =  6.304408  z = -1.491063 angstrom
           Maximum rank =  0   Radius =  0.325 angstrom
                   Q00  =   0.076617

Total multipoles referred to origin at
           x =   0.000000,  y =    0.000000,  z =    0.000000 angstrom
                   Q00  =  -0.000000

Finished at 21:3:47 on 26 Apr 2020

  DMA results are available in the Python driver through the
	  variable('DMA DISTRIBUTED MULTIPOLES')
  and
	  variable('DMA TOTAL MULTIPOLES')
  commands.

    Psi4 stopped on: Sunday, 26 April 2020 09:03PM
    Psi4 wall time for execution: 0:10:31.22

*** Psi4 exiting successfully. Buy a developer a beer!
