                               Psi4 1.3.2 release

  ==> Input File <==

--------------------------------------------------------------------------
import numpy as np
set {scf_type pk
basis cc-pvdz
d_convergence 10
gdma_switch   0
gdma_limit    0
gdma_origin   [ 0.0,  0.0,  0.0 ]
}
molecule test {
    units Angstrom
    0 1
    --
    0 1
    C                1.974408480160831    -0.901869095255873     0.209392171995695
    C                3.222408480160832    -1.404869095255873     0.941392171995695
    H                1.396408480160831    -1.751869095255873    -0.152607828004305
    H                1.347408480160831    -0.328869095255873     0.889392171995695
    H                2.265408480160831    -0.282869095255873    -0.639607828004305
    H                2.893408480160832    -1.985869095255873     1.804392171995695
    H                3.846794480160832    -0.567329095255873     1.285882171995695
    H                3.807563480160832    -2.081113095255872     0.300852171995695
    C               -1.335591519839169     0.434130904744127    -0.228607828004305
    C               -1.233591519839168     1.442130904744127    -1.358607828004305
    C               -2.717591519839169     0.460130904744127     0.409392171995695
    H               -1.086591519839168    -0.566869095255873    -0.582607828004305
    H               -0.631591519839169     0.708130904744127     0.557392171995695
    H               -1.705591519839169     2.372130904744127    -1.039607828004305
    H               -1.749591519839168     1.067130904744127    -2.243607828004305
    H               -2.700591519839168    -0.173869095255873     1.301392171995695
    H               -2.938591519839169     1.483130904744127     0.733392171995695
    H               -0.182731519839169     1.652880904744127    -1.606167828004305
    H               -3.490601519839168     0.102160904744127    -0.286537828004305

}
e, wfn = energy('scf', return_wfn=True)
gdma(wfn)
dmavals = variable('DMA DISTRIBUTED MULTIPOLES')
charges = np.array(dmavals)
print(charges)
np.save('SSI-011VAL-153LYS-1-dimer.npy', np.array(charges))--------------------------------------------------------------------------

*** tstart() called on ds3
*** at Tue Apr 28 11:31:30 2020

   => Loading Basis Set <=

    Name: CC-PVDZ
    Role: ORBITAL
    Keyword: BASIS
    atoms 1-2, 9-11  entry C          line   138 file /theoryfs2/ds/metcalf/miniconda2/envs/tf2gpu/share/psi4/basis/cc-pvdz.gbs
    atoms 3-8, 12-19 entry H          line    22 file /theoryfs2/ds/metcalf/miniconda2/envs/tf2gpu/share/psi4/basis/cc-pvdz.gbs

         ---------------------------------------------------------
                                   SCF
               by Justin Turney, Rob Parrish, Andy Simmonett
                          and Daniel G. A. Smith
                              RHF Reference
                        1 Threads,    500 MiB Core
         ---------------------------------------------------------

  ==> Geometry <==

    Molecular point group: c1
    Full point group: C1

    Geometry (in Angstrom), charge = 0, multiplicity = 1:

       Center              X                  Y                   Z               Mass
    ------------   -----------------  -----------------  -----------------  -----------------
         C            1.974408480161    -0.901869095256     0.209392171996    12.000000000000
         C            3.222408480161    -1.404869095256     0.941392171996    12.000000000000
         H            1.396408480161    -1.751869095256    -0.152607828004     1.007825032230
         H            1.347408480161    -0.328869095256     0.889392171996     1.007825032230
         H            2.265408480161    -0.282869095256    -0.639607828004     1.007825032230
         H            2.893408480161    -1.985869095256     1.804392171996     1.007825032230
         H            3.846794480161    -0.567329095256     1.285882171996     1.007825032230
         H            3.807563480161    -2.081113095256     0.300852171996     1.007825032230
         C           -1.335591519839     0.434130904744    -0.228607828004    12.000000000000
         C           -1.233591519839     1.442130904744    -1.358607828004    12.000000000000
         C           -2.717591519839     0.460130904744     0.409392171996    12.000000000000
         H           -1.086591519839    -0.566869095256    -0.582607828004     1.007825032230
         H           -0.631591519839     0.708130904744     0.557392171996     1.007825032230
         H           -1.705591519839     2.372130904744    -1.039607828004     1.007825032230
         H           -1.749591519839     1.067130904744    -2.243607828004     1.007825032230
         H           -2.700591519839    -0.173869095256     1.301392171996     1.007825032230
         H           -2.938591519839     1.483130904744     0.733392171996     1.007825032230
         H           -0.182731519839     1.652880904744    -1.606167828004     1.007825032230
         H           -3.490601519839     0.102160904744    -0.286537828004     1.007825032230

  Running in c1 symmetry.

  Rotational constants: A =      0.26269  B =      0.03594  C =      0.03271 [cm^-1]
  Rotational constants: A =   7875.12931  B =   1077.31243  C =    980.48862 [MHz]
  Nuclear repulsion =  176.583066126571879

  Charge       = 0
  Multiplicity = 1
  Electrons    = 44
  Nalpha       = 22
  Nbeta        = 22

  ==> Algorithm <==

  SCF Algorithm Type is PK.
  DIIS enabled.
  MOM disabled.
  Fractional occupation disabled.
  Guess Type is SAD.
  Energy threshold   = 1.00e-06
  Density threshold  = 1.00e-10
  Integral threshold = 0.00e+00

  ==> Primary Basis <==

  Basis Set: CC-PVDZ
    Blend: CC-PVDZ
    Number of shells: 72
    Number of basis function: 140
    Number of Cartesian functions: 145
    Spherical Harmonics?: true
    Max angular momentum: 2

  ==> Pre-Iterations <==

   -------------------------------------------------------
    Irrep   Nso     Nmo     Nalpha   Nbeta   Ndocc  Nsocc
   -------------------------------------------------------
     A        140     140       0       0       0       0
   -------------------------------------------------------
    Total     140     140      22      22      22       0
   -------------------------------------------------------

  ==> Integral Setup <==

  Using integral reordering PK algorithm.
  Sizing the integral batches needed.
  Building batch lookup table.
   Calculation information:
      Number of atoms:                  19
      Number of AO shells:              72
      Number of primitives:            180
      Number of atomic orbitals:       145
      Number of basis functions:       140

      Integral cutoff                 1.00e-12
      Number of threads:                 1

	Batch   1 pq = [       0,    9405] index = [             0,44231715] size =     44231715
	Batch   2 pq = [    9405,    9870] index = [      44231715,48713385] size =      4481670
  Task number: 5
  Buffer size: 11059200
  Buffer per thread: 2
  We computed 2760549 shell quartets total.
  Whereas there are 3454506 unique shell quartets.

  ==> DiskJK: Disk-Based J/K Matrices <==

    J tasked:                  Yes
    K tasked:                  Yes
    wK tasked:                  No
    Memory [MiB]:              375
    Schwarz Cutoff:          1E-12

    OpenMP threads:              1

  Minimum eigenvalue in the overlap matrix is 5.0427107305E-03.
  Using Symmetric Orthogonalization.

  SCF Guess: Superposition of Atomic Densities via on-the-fly atomic UHF.

  ==> Iterations <==

                        Total Energy        Delta E     RMS |[F,P]|

   @RHF iter SAD:  -196.39526991733123   -1.96395e+02   0.00000e+00
   @RHF iter   1:  -197.30881733199536   -9.13547e-01   3.82594e-03 DIIS
   @RHF iter   2:  -197.47020424568069   -1.61387e-01   1.65817e-03 DIIS
   @RHF iter   3:  -197.49917888489114   -2.89746e-02   3.27865e-04 DIIS
   @RHF iter   4:  -197.50141862654408   -2.23974e-03   4.90159e-05 DIIS
   @RHF iter   5:  -197.50145808180037   -3.94553e-05   1.48666e-05 DIIS
   @RHF iter   6:  -197.50146142893865   -3.34714e-06   2.52028e-06 DIIS
   @RHF iter   7:  -197.50146153955143   -1.10613e-07   4.48861e-07 DIIS
   @RHF iter   8:  -197.50146154371842   -4.16699e-09   1.10784e-07 DIIS
   @RHF iter   9:  -197.50146154396180   -2.43375e-10   3.60883e-08 DIIS
   @RHF iter  10:  -197.50146154399152   -2.97291e-11   7.93848e-09 DIIS
   @RHF iter  11:  -197.50146154399286   -1.33582e-12   1.48817e-09 DIIS
   @RHF iter  12:  -197.50146154399380   -9.37916e-13   2.68088e-10 DIIS
   @RHF iter  13:  -197.50146154399391   -1.13687e-13   5.68668e-11 DIIS
  Energy and wave function converged.

  ==> Post-Iterations <==

    Orbital Energies [Eh]
    ---------------------

    Doubly Occupied:

       1A    -11.219166     2A    -11.216605     3A    -11.216393
       4A    -11.215652     5A    -11.213940     6A     -1.056701
       7A     -1.017115     8A     -0.922227     9A     -0.837263
      10A     -0.794459    11A     -0.628902    12A     -0.598626
      13A     -0.597868    14A     -0.594126    15A     -0.546581
      16A     -0.530925    17A     -0.501250    18A     -0.488164
      19A     -0.485193    20A     -0.472721    21A     -0.467115
      22A     -0.461739

    Virtual:

      23A      0.173028    24A      0.193676    25A      0.216443
      26A      0.221965    27A      0.224973    28A      0.251518
      29A      0.256110    30A      0.271264    31A      0.276042
      32A      0.281134    33A      0.304377    34A      0.311731
      35A      0.313055    36A      0.351972    37A      0.368136
      38A      0.398239    39A      0.437696    40A      0.573085
      41A      0.579849    42A      0.594745    43A      0.599423
      44A      0.610990    45A      0.615899    46A      0.624917
      47A      0.676863    48A      0.699567    49A      0.757057
      50A      0.795957    51A      0.809007    52A      0.832622
      53A      0.873306    54A      0.886640    55A      0.890830
      56A      0.894584    57A      0.897199    58A      0.897788
      59A      0.905882    60A      0.906893    61A      0.916473
      62A      0.918700    63A      0.926393    64A      0.956311
      65A      0.962678    66A      0.972117    67A      0.986067
      68A      0.993749    69A      1.123244    70A      1.126142
      71A      1.129526    72A      1.156201    73A      1.194630
      74A      1.258820    75A      1.403243    76A      1.465738
      77A      1.468805    78A      1.476661    79A      1.492337
      80A      1.553471    81A      1.590036    82A      1.631686
      83A      1.670585    84A      1.681397    85A      1.690113
      86A      1.695075    87A      1.715600    88A      1.843677
      89A      1.860648    90A      1.868577    91A      1.877180
      92A      1.894241    93A      1.904531    94A      1.919918
      95A      1.932480    96A      1.938087    97A      1.943575
      98A      1.947359    99A      1.950988   100A      1.963374
     101A      1.973090   102A      1.975094   103A      1.983520
     104A      1.997389   105A      2.025200   106A      2.065991
     107A      2.086600   108A      2.095291   109A      2.119968
     110A      2.133390   111A      2.159001   112A      2.284979
     113A      2.298292   114A      2.305807   115A      2.309700
     116A      2.360719   117A      2.377886   118A      2.452743
     119A      2.467235   120A      2.495630   121A      2.536477
     122A      2.559420   123A      2.565772   124A      2.575636
     125A      2.617723   126A      2.636188   127A      2.754897
     128A      2.759673   129A      2.775201   130A      2.784658
     131A      2.791493   132A      2.825074   133A      2.850316
     134A      2.859604   135A      2.901690   136A      2.948558
     137A      2.954966   138A      2.968354   139A      2.969621
     140A      3.080958

    Final Occupation by Irrep:
              A
    DOCC [    22 ]

  @RHF Final Energy:  -197.50146154399391

   => Energetics <=

    Nuclear Repulsion Energy =            176.5830661265718788
    One-Electron Energy =                -614.0035918448629673
    Two-Electron Energy =                 239.9190641742971479
    Total Energy =                       -197.5014615439939121

Computation Completed

Properties will be evaluated at   0.000000,   0.000000,   0.000000 [a0]

Properties computed using the SCF density matrix

  Nuclear Dipole Moment: [e a0]
     X:     1.0041      Y:    -0.3310      Z:     0.3018

  Electronic Dipole Moment: [e a0]
     X:    -0.9862      Y:     0.3095      Z:    -0.2806

  Dipole Moment: [e a0]
     X:     0.0179      Y:    -0.0215      Z:     0.0212     Total:     0.0351

  Dipole Moment: [D]
     X:     0.0456      Y:    -0.0546      Z:     0.0540     Total:     0.0893

*** tstop() called on ds3 at Tue Apr 28 11:31:50 2020
Module time:
	user time   =      14.57 seconds =       0.24 minutes
	system time =       5.61 seconds =       0.09 minutes
	total time  =         20 seconds =       0.33 minutes
Total time:
	user time   =      14.57 seconds =       0.24 minutes
	system time =       5.61 seconds =       0.09 minutes
	total time  =         20 seconds =       0.33 minutes
                                     G D M A

                                 by Anthony Stone

                           version 2.2.06, 22 June 2011

               Distributed Multipoles from Gaussian wavefunctions

Starting at 11:31:50 on 28 Apr 2020

Using SCF density matrix from file ./SSI/SSI-011VAL-153LYS-1-dimer.test.22528.fchk

                         Distributed Multipole Analysis

Standard DMA

Positions and radii in angstrom
Multipole moments in atomic units, ea_0^k for rank k

C          x =  1.974408  y = -0.901869  z =  0.209392 angstrom
           Maximum rank =  0   Radius =  0.650 angstrom
                   Q00  =  -0.239852

C          x =  3.222408  y = -1.404869  z =  0.941392 angstrom
           Maximum rank =  0   Radius =  0.650 angstrom
                   Q00  =  -0.236915

H          x =  1.396408  y = -1.751869  z = -0.152608 angstrom
           Maximum rank =  0   Radius =  0.325 angstrom
                   Q00  =   0.079014

H          x =  1.347408  y = -0.328869  z =  0.889392 angstrom
           Maximum rank =  0   Radius =  0.325 angstrom
                   Q00  =   0.080741

H          x =  2.265408  y = -0.282869  z = -0.639608 angstrom
           Maximum rank =  0   Radius =  0.325 angstrom
                   Q00  =   0.079062

H          x =  2.893408  y = -1.985869  z =  1.804392 angstrom
           Maximum rank =  0   Radius =  0.325 angstrom
                   Q00  =   0.076884

H          x =  3.846794  y = -0.567329  z =  1.285882 angstrom
           Maximum rank =  0   Radius =  0.325 angstrom
                   Q00  =   0.080897

H          x =  3.807563  y = -2.081113  z =  0.300852 angstrom
           Maximum rank =  0   Radius =  0.325 angstrom
                   Q00  =   0.079460

C          x = -1.335592  y =  0.434131  z = -0.228608 angstrom
           Maximum rank =  0   Radius =  0.650 angstrom
                   Q00  =  -0.079984

C          x = -1.233592  y =  1.442131  z = -1.358608 angstrom
           Maximum rank =  0   Radius =  0.650 angstrom
                   Q00  =  -0.239516

C          x = -2.717592  y =  0.460131  z =  0.409392 angstrom
           Maximum rank =  0   Radius =  0.650 angstrom
                   Q00  =  -0.233067

H          x = -1.086592  y = -0.566869  z = -0.582608 angstrom
           Maximum rank =  0   Radius =  0.325 angstrom
                   Q00  =   0.051438

H          x = -0.631592  y =  0.708131  z =  0.557392 angstrom
           Maximum rank =  0   Radius =  0.325 angstrom
                   Q00  =   0.039238

H          x = -1.705592  y =  2.372131  z = -1.039608 angstrom
           Maximum rank =  0   Radius =  0.325 angstrom
                   Q00  =   0.071871

H          x = -1.749592  y =  1.067131  z = -2.243608 angstrom
           Maximum rank =  0   Radius =  0.325 angstrom
                   Q00  =   0.077721

H          x = -2.700592  y = -0.173869  z =  1.301392 angstrom
           Maximum rank =  0   Radius =  0.325 angstrom
                   Q00  =   0.079797

H          x = -2.938592  y =  1.483131  z =  0.733392 angstrom
           Maximum rank =  0   Radius =  0.325 angstrom
                   Q00  =   0.075100

H          x = -0.182732  y =  1.652881  z = -1.606168 angstrom
           Maximum rank =  0   Radius =  0.325 angstrom
                   Q00  =   0.081550

H          x = -3.490602  y =  0.102161  z = -0.286538 angstrom
           Maximum rank =  0   Radius =  0.325 angstrom
                   Q00  =   0.076562

Total multipoles referred to origin at
           x =   0.000000,  y =    0.000000,  z =    0.000000 angstrom
                   Q00  =  -0.000000

Finished at 11:31:50 on 28 Apr 2020

  DMA results are available in the Python driver through the
	  variable('DMA DISTRIBUTED MULTIPOLES')
  and
	  variable('DMA TOTAL MULTIPOLES')
  commands.

    Psi4 stopped on: Tuesday, 28 April 2020 11:31AM
    Psi4 wall time for execution: 0:00:19.82

*** Psi4 exiting successfully. Buy a developer a beer!
