                               Psi4 1.3.2 release

  ==> Input File <==

--------------------------------------------------------------------------
import numpy as np
set {scf_type pk
basis cc-pvdz
d_convergence 10
gdma_switch   0
gdma_limit    0
gdma_origin   [ 0.0,  0.0,  0.0 ]
}
molecule test {
    units Angstrom
    0 1
    --
    0 1
    C               -0.396073414275632    -2.917401059466640    -2.436843961421317
    C               -0.163073414275632     0.753598940533360    -0.124843961421317
    C                0.510926585724368     0.673598940533360    -1.357843961421317
    C               -0.870073414275632    -0.332401059466640     0.349156038578683
    C                0.459926585724368    -0.530401059466640    -2.109843961421317
    C               -0.921073414275632    -1.515401059466640    -0.398843961421317
    C               -0.266073414275632    -1.631401059466640    -1.624843961421317
    H               -0.136073414275632     1.662598940533360     0.459156038578683
    H                1.051926585724367     1.537598940533360    -1.715843961421317
    H               -1.380073414275633    -0.257401059466640     1.298156038578683
    H                0.973926585724367    -0.607401059466640    -3.059843961421317
    H               -1.480073414275632    -2.362401059466640    -0.024843961421317
    H               -0.564073414275632    -2.617401059466640    -3.468843961421317
    H               -1.286073414275632    -3.439401059466640    -2.077843961421317
    H                0.449086585724368    -3.617501059466639    -2.361813961421317
    C                0.867926585724368     1.784598940533360     3.254156038578683
    C                0.601926585724368     3.256598940533360     3.633156038578683
    H                0.020926585724368     1.385598940533360     2.696156038578683
    H                1.766926585724368     1.719598940533360     2.639156038578683
    H                1.011926585724367     1.188598940533360     4.158156038578683
    H                1.451926585724368     3.639598940533360     4.194156038578683
    H               -0.297583414275632     3.353398940533360     4.258866038578683
    H                0.508866585724368     3.875098940533360     2.728296038578683

}
e, wfn = energy('scf', return_wfn=True)
gdma(wfn)
dmavals = variable('DMA DISTRIBUTED MULTIPOLES')
charges = np.array(dmavals)
print(charges)
np.save('SSI-128PHE-252LEU-1-dimer.npy', np.array(charges))--------------------------------------------------------------------------

*** tstart() called on ds3
*** at Mon Apr 27 18:05:37 2020

   => Loading Basis Set <=

    Name: CC-PVDZ
    Role: ORBITAL
    Keyword: BASIS
    atoms 1-7, 16-17  entry C          line   138 file /theoryfs2/ds/metcalf/miniconda2/envs/tf2gpu/share/psi4/basis/cc-pvdz.gbs
    atoms 8-15, 18-23 entry H          line    22 file /theoryfs2/ds/metcalf/miniconda2/envs/tf2gpu/share/psi4/basis/cc-pvdz.gbs

         ---------------------------------------------------------
                                   SCF
               by Justin Turney, Rob Parrish, Andy Simmonett
                          and Daniel G. A. Smith
                              RHF Reference
                        1 Threads,    500 MiB Core
         ---------------------------------------------------------

  ==> Geometry <==

    Molecular point group: c1
    Full point group: C1

    Geometry (in Angstrom), charge = 0, multiplicity = 1:

       Center              X                  Y                   Z               Mass
    ------------   -----------------  -----------------  -----------------  -----------------
         C           -0.396073414276    -2.917401059467    -2.436843961421    12.000000000000
         C           -0.163073414276     0.753598940533    -0.124843961421    12.000000000000
         C            0.510926585724     0.673598940533    -1.357843961421    12.000000000000
         C           -0.870073414276    -0.332401059467     0.349156038579    12.000000000000
         C            0.459926585724    -0.530401059467    -2.109843961421    12.000000000000
         C           -0.921073414276    -1.515401059467    -0.398843961421    12.000000000000
         C           -0.266073414276    -1.631401059467    -1.624843961421    12.000000000000
         H           -0.136073414276     1.662598940533     0.459156038579     1.007825032230
         H            1.051926585724     1.537598940533    -1.715843961421     1.007825032230
         H           -1.380073414276    -0.257401059467     1.298156038579     1.007825032230
         H            0.973926585724    -0.607401059467    -3.059843961421     1.007825032230
         H           -1.480073414276    -2.362401059467    -0.024843961421     1.007825032230
         H           -0.564073414276    -2.617401059467    -3.468843961421     1.007825032230
         H           -1.286073414276    -3.439401059467    -2.077843961421     1.007825032230
         H            0.449086585724    -3.617501059467    -2.361813961421     1.007825032230
         C            0.867926585724     1.784598940533     3.254156038579    12.000000000000
         C            0.601926585724     3.256598940533     3.633156038579    12.000000000000
         H            0.020926585724     1.385598940533     2.696156038579     1.007825032230
         H            1.766926585724     1.719598940533     2.639156038579     1.007825032230
         H            1.011926585724     1.188598940533     4.158156038579     1.007825032230
         H            1.451926585724     3.639598940533     4.194156038579     1.007825032230
         H           -0.297583414276     3.353398940533     4.258866038579     1.007825032230
         H            0.508866585724     3.875098940533     2.728296038579     1.007825032230

  Running in c1 symmetry.

  Rotational constants: A =      0.13361  B =      0.01743  C =      0.01613 [cm^-1]
  Rotational constants: A =   4005.65798  B =    522.56399  C =    483.63242 [MHz]
  Nuclear repulsion =  396.086759497253240

  Charge       = 0
  Multiplicity = 1
  Electrons    = 68
  Nalpha       = 34
  Nbeta        = 34

  ==> Algorithm <==

  SCF Algorithm Type is PK.
  DIIS enabled.
  MOM disabled.
  Fractional occupation disabled.
  Guess Type is SAD.
  Energy threshold   = 1.00e-06
  Density threshold  = 1.00e-10
  Integral threshold = 0.00e+00

  ==> Primary Basis <==

  Basis Set: CC-PVDZ
    Blend: CC-PVDZ
    Number of shells: 96
    Number of basis function: 196
    Number of Cartesian functions: 205
    Spherical Harmonics?: true
    Max angular momentum: 2

  ==> Pre-Iterations <==

   -------------------------------------------------------
    Irrep   Nso     Nmo     Nalpha   Nbeta   Ndocc  Nsocc
   -------------------------------------------------------
     A        196     196       0       0       0       0
   -------------------------------------------------------
    Total     196     196      34      34      34       0
   -------------------------------------------------------

  ==> Integral Setup <==

  Using integral reordering PK algorithm.
  Sizing the integral batches needed.
  Building batch lookup table.
   Calculation information:
      Number of atoms:                  23
      Number of AO shells:              96
      Number of primitives:            268
      Number of atomic orbitals:       205
      Number of basis functions:       196

      Integral cutoff                 1.00e-12
      Number of threads:                 1

	Batch   1 pq = [       0,    9405] index = [             0,44231715] size =     44231715
	Batch   2 pq = [    9405,   13301] index = [      44231715,88464951] size =     44233236
	Batch   3 pq = [   13301,   16290] index = [      88464951,132690195] size =     44225244
	Batch   4 pq = [   16290,   18810] index = [     132690195,176917455] size =     44227260
	Batch   5 pq = [   18810,   19306] index = [     176917455,186370471] size =      9453016
  Task number: 17
  Buffer size: 11059200
  Buffer per thread: 2
  We computed 8265346 shell quartets total.
  Whereas there are 10841496 unique shell quartets.

  ==> DiskJK: Disk-Based J/K Matrices <==

    J tasked:                  Yes
    K tasked:                  Yes
    wK tasked:                  No
    Memory [MiB]:              375
    Schwarz Cutoff:          1E-12

    OpenMP threads:              1

  Minimum eigenvalue in the overlap matrix is 3.2275252706E-04.
  Using Symmetric Orthogonalization.

  SCF Guess: Superposition of Atomic Densities via on-the-fly atomic UHF.

  ==> Iterations <==

                        Total Energy        Delta E     RMS |[F,P]|

   @RHF iter SAD:  -347.72686466056018   -3.47727e+02   0.00000e+00
   @RHF iter   1:  -348.77007359882680   -1.04321e+00   2.84453e-03 DIIS
   @RHF iter   2:  -348.95853488613466   -1.88461e-01   1.16285e-03 DIIS
   @RHF iter   3:  -348.98706641422933   -2.85315e-02   2.55586e-04 DIIS
   @RHF iter   4:  -348.98950588166258   -2.43947e-03   5.13917e-05 DIIS
   @RHF iter   5:  -348.98957581282673   -6.99312e-05   1.76626e-05 DIIS
   @RHF iter   6:  -348.98958360802061   -7.79519e-06   4.65167e-06 DIIS
   @RHF iter   7:  -348.98958423973500   -6.31714e-07   1.26002e-06 DIIS
   @RHF iter   8:  -348.98958430142875   -6.16938e-08   3.69298e-07 DIIS
   @RHF iter   9:  -348.98958431262872   -1.12000e-08   1.85662e-07 DIIS
   @RHF iter  10:  -348.98958431570691   -3.07818e-09   9.12781e-08 DIIS
   @RHF iter  11:  -348.98958431676306   -1.05615e-09   3.39728e-08 DIIS
   @RHF iter  12:  -348.98958431689238   -1.29319e-10   1.53389e-08 DIIS
   @RHF iter  13:  -348.98958431690630   -1.39266e-11   4.21638e-09 DIIS
   @RHF iter  14:  -348.98958431690664   -3.41061e-13   1.32343e-09 DIIS
   @RHF iter  15:  -348.98958431690761   -9.66338e-13   5.97239e-10 DIIS
   @RHF iter  16:  -348.98958431690784   -2.27374e-13   2.65827e-10 DIIS
   @RHF iter  17:  -348.98958431690596    1.87583e-12   9.12314e-11 DIIS
  Energy and wave function converged.

  ==> Post-Iterations <==

    Orbital Energies [Eh]
    ---------------------

    Doubly Occupied:

       1A    -11.243222     2A    -11.240804     3A    -11.236508
       4A    -11.234516     5A    -11.231536     6A    -11.231374
       7A    -11.231123     8A    -11.220708     9A    -11.218235
      10A     -1.146448    11A     -1.041451    12A     -1.014803
      13A     -1.005114    14A     -0.929943    15A     -0.838831
      16A     -0.825600    17A     -0.790979    18A     -0.689177
      19A     -0.631477    20A     -0.627192    21A     -0.597019
      22A     -0.596439    23A     -0.579122    24A     -0.576674
      25A     -0.558225    26A     -0.535233    27A     -0.498127
      28A     -0.489167    29A     -0.488192    30A     -0.484117
      31A     -0.481622    32A     -0.478349    33A     -0.327892
      34A     -0.322394

    Virtual:

      35A      0.132389    36A      0.141142    37A      0.171727
      38A      0.191563    39A      0.211976    40A      0.214581
      41A      0.233941    42A      0.243376    43A      0.246635
      44A      0.259339    45A      0.267041    46A      0.275394
      47A      0.277618    48A      0.286287    49A      0.318502
      50A      0.347502    51A      0.363045    52A      0.373406
      53A      0.391587    54A      0.451555    55A      0.462435
      56A      0.481709    57A      0.497556    58A      0.572408
      59A      0.589088    60A      0.598765    61A      0.604746
      62A      0.619426    63A      0.637525    64A      0.667215
      65A      0.669522    66A      0.686302    67A      0.700872
      68A      0.716855    69A      0.721056    70A      0.734218
      71A      0.741638    72A      0.749429    73A      0.754117
      74A      0.768102    75A      0.776358    76A      0.813923
      77A      0.827598    78A      0.855079    79A      0.864317
      80A      0.868158    81A      0.873023    82A      0.886382
      83A      0.890712    84A      0.892325    85A      0.894934
      86A      0.901424    87A      0.908705    88A      0.917247
      89A      0.926071    90A      0.938718    91A      0.940739
      92A      0.960863    93A      0.993924    94A      0.999690
      95A      1.028521    96A      1.055984    97A      1.108403
      98A      1.122103    99A      1.131859   100A      1.145482
     101A      1.153533   102A      1.160723   103A      1.188916
     104A      1.237209   105A      1.239130   106A      1.246564
     107A      1.251672   108A      1.278601   109A      1.297697
     110A      1.302463   111A      1.321286   112A      1.326446
     113A      1.413371   114A      1.470595   115A      1.477290
     116A      1.502632   117A      1.512223   118A      1.541710
     119A      1.585387   120A      1.607503   121A      1.680083
     122A      1.684408   123A      1.689255   124A      1.700340
     125A      1.733100   126A      1.745733   127A      1.761184
     128A      1.786343   129A      1.802797   130A      1.854656
     131A      1.866420   132A      1.872978   133A      1.880802
     134A      1.886362   135A      1.891666   136A      1.900110
     137A      1.916629   138A      1.926529   139A      1.934080
     140A      1.941181   141A      1.946669   142A      1.948285
     143A      1.952293   144A      1.957181   145A      1.967496
     146A      1.980872   147A      1.983889   148A      1.997203
     149A      2.037594   150A      2.050608   151A      2.062478
     152A      2.092237   153A      2.105057   154A      2.114557
     155A      2.135906   156A      2.155075   157A      2.161488
     158A      2.176681   159A      2.188475   160A      2.244643
     161A      2.270159   162A      2.286446   163A      2.294641
     164A      2.296127   165A      2.308499   166A      2.314451
     167A      2.335217   168A      2.450501   169A      2.461066
     170A      2.462719   171A      2.472531   172A      2.497796
     173A      2.533204   174A      2.561075   175A      2.569185
     176A      2.608992   177A      2.734784   178A      2.741999
     179A      2.757387   180A      2.768741   181A      2.782826
     182A      2.797411   183A      2.804296   184A      2.848554
     185A      2.850676   186A      2.860682   187A      2.864000
     188A      2.946329   189A      2.955164   190A      2.974373
     191A      2.988012   192A      3.027567   193A      3.136558
     194A      3.173035   195A      3.283020   196A      3.931561

    Final Occupation by Irrep:
              A
    DOCC [    34 ]

  @RHF Final Energy:  -348.98958431690596

   => Energetics <=

    Nuclear Repulsion Energy =            396.0867594972532402
    One-Electron Energy =               -1254.8694627566590043
    Two-Electron Energy =                 509.7931189424997456
    Total Energy =                       -348.9895843169059617

Computation Completed

Properties will be evaluated at   0.000000,   0.000000,   0.000000 [a0]

Properties computed using the SCF density matrix

  Nuclear Dipole Moment: [e a0]
     X:     1.9608      Y:     5.1191      Z:     9.1151

  Electronic Dipole Moment: [e a0]
     X:    -1.9574      Y:    -5.2318      Z:    -9.1810

  Dipole Moment: [e a0]
     X:     0.0034      Y:    -0.1127      Z:    -0.0659     Total:     0.1306

  Dipole Moment: [D]
     X:     0.0087      Y:    -0.2864      Z:    -0.1675     Total:     0.3319

*** tstop() called on ds3 at Mon Apr 27 18:08:02 2020
Module time:
	user time   =      58.68 seconds =       0.98 minutes
	system time =      26.17 seconds =       0.44 minutes
	total time  =        145 seconds =       2.42 minutes
Total time:
	user time   =      58.68 seconds =       0.98 minutes
	system time =      26.17 seconds =       0.44 minutes
	total time  =        145 seconds =       2.42 minutes
                                     G D M A

                                 by Anthony Stone

                           version 2.2.06, 22 June 2011

               Distributed Multipoles from Gaussian wavefunctions

Starting at 18:8:2 on 27 Apr 2020

Using SCF density matrix from file ./SSI/SSI-128PHE-252LEU-1-dimer.test.18829.fchk

                         Distributed Multipole Analysis

Standard DMA

Positions and radii in angstrom
Multipole moments in atomic units, ea_0^k for rank k

C          x = -0.396073  y = -2.917401  z = -2.436844 angstrom
           Maximum rank =  0   Radius =  0.650 angstrom
                   Q00  =  -0.199891

C          x = -0.163073  y =  0.753599  z = -0.124844 angstrom
           Maximum rank =  0   Radius =  0.650 angstrom
                   Q00  =  -0.078104

C          x =  0.510927  y =  0.673599  z = -1.357844 angstrom
           Maximum rank =  0   Radius =  0.650 angstrom
                   Q00  =  -0.062797

C          x = -0.870073  y = -0.332401  z =  0.349156 angstrom
           Maximum rank =  0   Radius =  0.650 angstrom
                   Q00  =  -0.078281

C          x =  0.459927  y = -0.530401  z = -2.109844 angstrom
           Maximum rank =  0   Radius =  0.650 angstrom
                   Q00  =  -0.094813

C          x = -0.921073  y = -1.515401  z = -0.398844 angstrom
           Maximum rank =  0   Radius =  0.650 angstrom
                   Q00  =   0.009450

C          x = -0.266073  y = -1.631401  z = -1.624844 angstrom
           Maximum rank =  0   Radius =  0.650 angstrom
                   Q00  =  -0.112985

H          x = -0.136073  y =  1.662599  z =  0.459156 angstrom
           Maximum rank =  0   Radius =  0.325 angstrom
                   Q00  =   0.063357

H          x =  1.051927  y =  1.537599  z = -1.715844 angstrom
           Maximum rank =  0   Radius =  0.325 angstrom
                   Q00  =   0.068622

H          x = -1.380073  y = -0.257401  z =  1.298156 angstrom
           Maximum rank =  0   Radius =  0.325 angstrom
                   Q00  =   0.063538

H          x =  0.973927  y = -0.607401  z = -3.059844 angstrom
           Maximum rank =  0   Radius =  0.325 angstrom
                   Q00  =   0.061884

H          x = -1.480073  y = -2.362401  z = -0.024844 angstrom
           Maximum rank =  0   Radius =  0.325 angstrom
                   Q00  =   0.057866

H          x = -0.564073  y = -2.617401  z = -3.468844 angstrom
           Maximum rank =  0   Radius =  0.325 angstrom
                   Q00  =   0.100693

H          x = -1.286073  y = -3.439401  z = -2.077844 angstrom
           Maximum rank =  0   Radius =  0.325 angstrom
                   Q00  =   0.096109

H          x =  0.449087  y = -3.617501  z = -2.361814 angstrom
           Maximum rank =  0   Radius =  0.325 angstrom
                   Q00  =   0.106593

C          x =  0.867927  y =  1.784599  z =  3.254156 angstrom
           Maximum rank =  0   Radius =  0.650 angstrom
                   Q00  =  -0.234714

C          x =  0.601927  y =  3.256599  z =  3.633156 angstrom
           Maximum rank =  0   Radius =  0.650 angstrom
                   Q00  =  -0.246663

H          x =  0.020927  y =  1.385599  z =  2.696156 angstrom
           Maximum rank =  0   Radius =  0.325 angstrom
                   Q00  =   0.076288

H          x =  1.766927  y =  1.719599  z =  2.639156 angstrom
           Maximum rank =  0   Radius =  0.325 angstrom
                   Q00  =   0.083427

H          x =  1.011927  y =  1.188599  z =  4.158156 angstrom
           Maximum rank =  0   Radius =  0.325 angstrom
                   Q00  =   0.081701

H          x =  1.451927  y =  3.639599  z =  4.194156 angstrom
           Maximum rank =  0   Radius =  0.325 angstrom
                   Q00  =   0.080925

H          x = -0.297583  y =  3.353399  z =  4.258866 angstrom
           Maximum rank =  0   Radius =  0.325 angstrom
                   Q00  =   0.081060

H          x =  0.508867  y =  3.875099  z =  2.728296 angstrom
           Maximum rank =  0   Radius =  0.325 angstrom
                   Q00  =   0.076734

Total multipoles referred to origin at
           x =   0.000000,  y =    0.000000,  z =    0.000000 angstrom
                   Q00  =  -0.000000

Finished at 18:8:2 on 27 Apr 2020

  DMA results are available in the Python driver through the
	  variable('DMA DISTRIBUTED MULTIPOLES')
  and
	  variable('DMA TOTAL MULTIPOLES')
  commands.

    Psi4 stopped on: Monday, 27 April 2020 06:08PM
    Psi4 wall time for execution: 0:02:25.59

*** Psi4 exiting successfully. Buy a developer a beer!
