                               Psi4 1.3.2 release

  ==> Input File <==

--------------------------------------------------------------------------
import numpy as np
set {scf_type pk
basis cc-pvdz
d_convergence 10
gdma_switch   0
gdma_limit    0
gdma_origin   [ 0.0,  0.0,  0.0 ]
}
molecule test {
    units Angstrom
    0 1
    --
    0 1
    C               -1.692550367957776    -1.092194842841908     1.182968153385990
    C               -2.003550367957776    -1.117194842841908     2.661968153385990
    C               -2.083550367957776    -2.386194842841908     0.500968153385990
    H               -2.233550367957777    -0.254194842841908     0.738968153385990
    H               -0.628550367957776    -0.905194842841908     1.028968153385990
    H               -1.642550367957776    -2.058194842841908     3.080968153385990
    H               -3.043550367957776    -2.755194842841908     0.858968153385990
    H               -3.090460367957776    -1.058709842841908     2.820718153385990
    H               -1.432940367957776    -0.328007842841908     3.173428153385990
    H               -2.167010367957777    -2.165055842841908    -0.573341846614010
    H               -1.295700367957776    -3.123492842841908     0.714718153385990
    C                2.370449632042224    -1.007194842841908    -1.613031846614010
    C               -0.449550367957776     1.563805157158092    -1.249031846614010
    C                0.391449632042224     0.546805157158092    -1.811031846614010
    C               -0.176550367957776     2.070805157158092     0.043968153385990
    C                1.506449632042224     0.085805157158092    -1.093031846614010
    C                0.927449632042224     1.568805157158092     0.743968153385990
    C                1.722449632042224     0.569805157158092     0.208968153385990
    H               -1.310550367957776     1.922805157158092    -1.794031846614010
    H                0.168449632042224     0.149805157158092    -2.792031846614010
    H               -0.807550367957776     2.827805157158092     0.487968153385990
    H                1.141449632042224     1.939805157158092     1.737968153385990
    H                1.875449632042224    -1.464194842841908    -2.471031846614010
    H                2.457449632042223    -1.780194842841908    -0.849031846614010
    H                2.531449632042223     0.173805157158092     0.796968153385990
    H                3.375959632042223    -0.683387842841908    -1.919791846614010

}
e, wfn = energy('scf', return_wfn=True)
gdma(wfn)
dmavals = variable('DMA DISTRIBUTED MULTIPOLES')
charges = np.array(dmavals)
print(charges)
np.save('SSI-029LEU-036PHE-2-dimer.npy', np.array(charges))--------------------------------------------------------------------------

*** tstart() called on ds3
*** at Mon Apr 27 13:06:34 2020

   => Loading Basis Set <=

    Name: CC-PVDZ
    Role: ORBITAL
    Keyword: BASIS
    atoms 1-3, 12-18  entry C          line   138 file /theoryfs2/ds/metcalf/miniconda2/envs/tf2gpu/share/psi4/basis/cc-pvdz.gbs
    atoms 4-11, 19-26 entry H          line    22 file /theoryfs2/ds/metcalf/miniconda2/envs/tf2gpu/share/psi4/basis/cc-pvdz.gbs

         ---------------------------------------------------------
                                   SCF
               by Justin Turney, Rob Parrish, Andy Simmonett
                          and Daniel G. A. Smith
                              RHF Reference
                        1 Threads,    500 MiB Core
         ---------------------------------------------------------

  ==> Geometry <==

    Molecular point group: c1
    Full point group: C1

    Geometry (in Angstrom), charge = 0, multiplicity = 1:

       Center              X                  Y                   Z               Mass
    ------------   -----------------  -----------------  -----------------  -----------------
         C           -1.692550367958    -1.092194842842     1.182968153386    12.000000000000
         C           -2.003550367958    -1.117194842842     2.661968153386    12.000000000000
         C           -2.083550367958    -2.386194842842     0.500968153386    12.000000000000
         H           -2.233550367958    -0.254194842842     0.738968153386     1.007825032230
         H           -0.628550367958    -0.905194842842     1.028968153386     1.007825032230
         H           -1.642550367958    -2.058194842842     3.080968153386     1.007825032230
         H           -3.043550367958    -2.755194842842     0.858968153386     1.007825032230
         H           -3.090460367958    -1.058709842842     2.820718153386     1.007825032230
         H           -1.432940367958    -0.328007842842     3.173428153386     1.007825032230
         H           -2.167010367958    -2.165055842842    -0.573341846614     1.007825032230
         H           -1.295700367958    -3.123492842842     0.714718153386     1.007825032230
         C            2.370449632042    -1.007194842842    -1.613031846614    12.000000000000
         C           -0.449550367958     1.563805157158    -1.249031846614    12.000000000000
         C            0.391449632042     0.546805157158    -1.811031846614    12.000000000000
         C           -0.176550367958     2.070805157158     0.043968153386    12.000000000000
         C            1.506449632042     0.085805157158    -1.093031846614    12.000000000000
         C            0.927449632042     1.568805157158     0.743968153386    12.000000000000
         C            1.722449632042     0.569805157158     0.208968153386    12.000000000000
         H           -1.310550367958     1.922805157158    -1.794031846614     1.007825032230
         H            0.168449632042     0.149805157158    -2.792031846614     1.007825032230
         H           -0.807550367958     2.827805157158     0.487968153386     1.007825032230
         H            1.141449632042     1.939805157158     1.737968153386     1.007825032230
         H            1.875449632042    -1.464194842842    -2.471031846614     1.007825032230
         H            2.457449632042    -1.780194842842    -0.849031846614     1.007825032230
         H            2.531449632042     0.173805157158     0.796968153386     1.007825032230
         H            3.375959632042    -0.683387842842    -1.919791846614     1.007825032230

  Running in c1 symmetry.

  Rotational constants: A =      0.05059  B =      0.02476  C =      0.02163 [cm^-1]
  Rotational constants: A =   1516.58121  B =    742.35968  C =    648.32693 [MHz]
  Nuclear repulsion =  499.611344692570071

  Charge       = 0
  Multiplicity = 1
  Electrons    = 76
  Nalpha       = 38
  Nbeta        = 38

  ==> Algorithm <==

  SCF Algorithm Type is PK.
  DIIS enabled.
  MOM disabled.
  Fractional occupation disabled.
  Guess Type is SAD.
  Energy threshold   = 1.00e-06
  Density threshold  = 1.00e-10
  Integral threshold = 0.00e+00

  ==> Primary Basis <==

  Basis Set: CC-PVDZ
    Blend: CC-PVDZ
    Number of shells: 108
    Number of basis function: 220
    Number of Cartesian functions: 230
    Spherical Harmonics?: true
    Max angular momentum: 2

  ==> Pre-Iterations <==

   -------------------------------------------------------
    Irrep   Nso     Nmo     Nalpha   Nbeta   Ndocc  Nsocc
   -------------------------------------------------------
     A        220     220       0       0       0       0
   -------------------------------------------------------
    Total     220     220      38      38      38       0
   -------------------------------------------------------

  ==> Integral Setup <==

  Using integral reordering PK algorithm.
  Sizing the integral batches needed.
  Building batch lookup table.
   Calculation information:
      Number of atoms:                  26
      Number of AO shells:             108
      Number of primitives:            300
      Number of atomic orbitals:       230
      Number of basis functions:       220

      Integral cutoff                 1.00e-12
      Number of threads:                 1

	Batch   1 pq = [       0,    9405] index = [             0,44231715] size =     44231715
	Batch   2 pq = [    9405,   13301] index = [      44231715,88464951] size =     44233236
	Batch   3 pq = [   13301,   16290] index = [      88464951,132690195] size =     44225244
	Batch   4 pq = [   16290,   18810] index = [     132690195,176917455] size =     44227260
	Batch   5 pq = [   18810,   21030] index = [     176917455,221140965] size =     44223510
	Batch   6 pq = [   21030,   23037] index = [     221140965,265363203] size =     44222238
	Batch   7 pq = [   23037,   24310] index = [     265363203,295500205] size =     30137002
  Task number: 27
  Buffer size: 11059200
  Buffer per thread: 2
  We computed 17156239 shell quartets total.
  Whereas there are 17325441 unique shell quartets.

  ==> DiskJK: Disk-Based J/K Matrices <==

    J tasked:                  Yes
    K tasked:                  Yes
    wK tasked:                  No
    Memory [MiB]:              375
    Schwarz Cutoff:          1E-12

    OpenMP threads:              1

  Minimum eigenvalue in the overlap matrix is 3.5694483935E-04.
  Using Symmetric Orthogonalization.

  SCF Guess: Superposition of Atomic Densities via on-the-fly atomic UHF.

  ==> Iterations <==

                        Total Energy        Delta E     RMS |[F,P]|

   @RHF iter SAD:  -386.81679324945105   -3.86817e+02   0.00000e+00
   @RHF iter   1:  -387.76336500161170   -9.46572e-01   2.75493e-03 DIIS
   @RHF iter   2:  -387.98244641964720   -2.19081e-01   1.16465e-03 DIIS
   @RHF iter   3:  -388.01811382149873   -3.56674e-02   2.52680e-04 DIIS
   @RHF iter   4:  -388.02102646283089   -2.91264e-03   6.01047e-05 DIIS
   @RHF iter   5:  -388.02113866575161   -1.12203e-04   1.88807e-05 DIIS
   @RHF iter   6:  -388.02115018875395   -1.15230e-05   5.35642e-06 DIIS
   @RHF iter   7:  -388.02115130220852   -1.11345e-06   1.25888e-06 DIIS
   @RHF iter   8:  -388.02115141973161   -1.17523e-07   4.70709e-07 DIIS
   @RHF iter   9:  -388.02115145203908   -3.23075e-08   2.44297e-07 DIIS
   @RHF iter  10:  -388.02115146110157   -9.06249e-09   1.15475e-07 DIIS
   @RHF iter  11:  -388.02115146324104   -2.13947e-09   3.33866e-08 DIIS
   @RHF iter  12:  -388.02115146339361   -1.52568e-10   1.35164e-08 DIIS
   @RHF iter  13:  -388.02115146340304   -9.43601e-12   4.15869e-09 DIIS
   @RHF iter  14:  -388.02115146340566   -2.61480e-12   1.09300e-09 DIIS
   @RHF iter  15:  -388.02115146340594   -2.84217e-13   3.10545e-10 DIIS
   @RHF iter  16:  -388.02115146340645   -5.11591e-13   9.04652e-11 DIIS
  Energy and wave function converged.

  ==> Post-Iterations <==

    Orbital Energies [Eh]
    ---------------------

    Doubly Occupied:

       1A    -11.245304     2A    -11.244868     3A    -11.239522
       4A    -11.237860     5A    -11.236727     6A    -11.231474
       7A    -11.229815     8A    -11.207717     9A    -11.207399
      10A    -11.202217    11A     -1.147216    12A     -1.049712
      13A     -1.045594    14A     -1.007238    15A     -0.931655
      16A     -0.915398    17A     -0.824704    18A     -0.794354
      19A     -0.783252    20A     -0.689577    21A     -0.635194
      22A     -0.628645    23A     -0.620428    24A     -0.587722
      25A     -0.580756    26A     -0.579215    27A     -0.566679
      28A     -0.542648    29A     -0.534080    30A     -0.527258
      31A     -0.488786    32A     -0.486772    33A     -0.483261
      34A     -0.457981    35A     -0.454926    36A     -0.452518
      37A     -0.330223    38A     -0.320746

    Virtual:

      39A      0.128314    40A      0.136726    41A      0.172352
      42A      0.194537    43A      0.200339    44A      0.207138
      45A      0.238994    46A      0.240768    47A      0.249351
      48A      0.252188    49A      0.255263    50A      0.262586
      51A      0.274856    52A      0.287045    53A      0.291320
      54A      0.293109    55A      0.309353    56A      0.332405
      57A      0.359850    58A      0.375675    59A      0.386603
      60A      0.431361    61A      0.443888    62A      0.457163
      63A      0.468227    64A      0.499677    65A      0.563665
      66A      0.583902    67A      0.597149    68A      0.598068
      69A      0.606387    70A      0.616676    71A      0.639278
      72A      0.644047    73A      0.676016    74A      0.695241
      75A      0.701123    76A      0.734713    77A      0.736252
      78A      0.739603    79A      0.751847    80A      0.755462
      81A      0.772219    82A      0.775008    83A      0.807739
      84A      0.819026    85A      0.825836    86A      0.845847
      87A      0.852111    88A      0.857582    89A      0.867912
      90A      0.880793    91A      0.891649    92A      0.893940
      93A      0.896353    94A      0.899686    95A      0.905902
      96A      0.912097    97A      0.917604    98A      0.924536
      99A      0.932438   100A      0.937829   101A      0.940875
     102A      0.948413   103A      0.967421   104A      0.978522
     105A      0.983967   106A      0.990414   107A      1.035019
     108A      1.091318   109A      1.106672   110A      1.123795
     111A      1.131730   112A      1.147654   113A      1.153270
     114A      1.162905   115A      1.186256   116A      1.213432
     117A      1.231280   118A      1.233450   119A      1.252547
     120A      1.281372   121A      1.289811   122A      1.309601
     123A      1.313518   124A      1.327836   125A      1.418860
     126A      1.423426   127A      1.479635   128A      1.486072
     129A      1.507495   130A      1.520697   131A      1.546906
     132A      1.564535   133A      1.600614   134A      1.655839
     135A      1.682504   136A      1.687416   137A      1.689943
     138A      1.690554   139A      1.721214   140A      1.724413
     141A      1.741880   142A      1.755142   143A      1.788750
     144A      1.816832   145A      1.842905   146A      1.859461
     147A      1.866933   148A      1.870423   149A      1.884461
     150A      1.894891   151A      1.899060   152A      1.911247
     153A      1.918973   154A      1.925853   155A      1.937584
     156A      1.946994   157A      1.953742   158A      1.956912
     159A      1.967730   160A      1.973196   161A      1.984975
     162A      1.999978   163A      2.004369   164A      2.012623
     165A      2.016312   166A      2.027884   167A      2.045832
     168A      2.051353   169A      2.061872   170A      2.085836
     171A      2.099893   172A      2.121864   173A      2.135659
     174A      2.161109   175A      2.176582   176A      2.186021
     177A      2.194552   178A      2.199867   179A      2.242138
     180A      2.263935   181A      2.278318   182A      2.288337
     183A      2.294712   184A      2.307668   185A      2.313426
     186A      2.331178   187A      2.338645   188A      2.380358
     189A      2.437030   190A      2.476088   191A      2.492061
     192A      2.505398   193A      2.519877   194A      2.530977
     195A      2.590394   196A      2.622010   197A      2.637584
     198A      2.656998   199A      2.726315   200A      2.741681
     201A      2.760467   202A      2.768004   203A      2.770175
     204A      2.776173   205A      2.792475   206A      2.801265
     207A      2.831524   208A      2.847833   209A      2.852213
     210A      2.911605   211A      2.944998   212A      2.958432
     213A      2.971458   214A      2.990769   215A      3.007163
     216A      3.107345   217A      3.137581   218A      3.174714
     219A      3.270801   220A      3.914524

    Final Occupation by Irrep:
              A
    DOCC [    38 ]

  @RHF Final Energy:  -388.02115146340645

   => Energetics <=

    Nuclear Repulsion Energy =            499.6113446925700714
    One-Electron Energy =               -1513.7661106343186930
    Two-Electron Energy =                 626.1336144783421105
    Total Energy =                       -388.0211514634064542

Computation Completed

Properties will be evaluated at   0.000000,   0.000000,   0.000000 [a0]

Properties computed using the SCF density matrix

  Nuclear Dipole Moment: [e a0]
     X:    -5.7206      Y:    -8.9639      Z:     4.7252

  Electronic Dipole Moment: [e a0]
     X:     5.8773      Y:     8.9498      Z:    -4.8289

  Dipole Moment: [e a0]
     X:     0.1567      Y:    -0.0141      Z:    -0.1037     Total:     0.1884

  Dipole Moment: [D]
     X:     0.3982      Y:    -0.0358      Z:    -0.2636     Total:     0.4789

*** tstop() called on ds3 at Mon Apr 27 13:09:21 2020
Module time:
	user time   =     127.36 seconds =       2.12 minutes
	system time =      47.12 seconds =       0.79 minutes
	total time  =        167 seconds =       2.78 minutes
Total time:
	user time   =     127.36 seconds =       2.12 minutes
	system time =      47.12 seconds =       0.79 minutes
	total time  =        167 seconds =       2.78 minutes
                                     G D M A

                                 by Anthony Stone

                           version 2.2.06, 22 June 2011

               Distributed Multipoles from Gaussian wavefunctions

Starting at 13:9:21 on 27 Apr 2020

Using SCF density matrix from file ./SSI/SSI-029LEU-036PHE-2-dimer.test.5395.fchk

                         Distributed Multipole Analysis

Standard DMA

Positions and radii in angstrom
Multipole moments in atomic units, ea_0^k for rank k

C          x = -1.692550  y = -1.092195  z =  1.182968 angstrom
           Maximum rank =  0   Radius =  0.650 angstrom
                   Q00  =  -0.049873

C          x = -2.003550  y = -1.117195  z =  2.661968 angstrom
           Maximum rank =  0   Radius =  0.650 angstrom
                   Q00  =  -0.245532

C          x = -2.083550  y = -2.386195  z =  0.500968 angstrom
           Maximum rank =  0   Radius =  0.650 angstrom
                   Q00  =  -0.247384

H          x = -2.233550  y = -0.254195  z =  0.738968 angstrom
           Maximum rank =  0   Radius =  0.325 angstrom
                   Q00  =   0.038426

H          x = -0.628550  y = -0.905195  z =  1.028968 angstrom
           Maximum rank =  0   Radius =  0.325 angstrom
                   Q00  =   0.058205

H          x = -1.642550  y = -2.058195  z =  3.080968 angstrom
           Maximum rank =  0   Radius =  0.325 angstrom
                   Q00  =   0.063852

H          x = -3.043550  y = -2.755195  z =  0.858968 angstrom
           Maximum rank =  0   Radius =  0.325 angstrom
                   Q00  =   0.071259

H          x = -3.090460  y = -1.058710  z =  2.820718 angstrom
           Maximum rank =  0   Radius =  0.325 angstrom
                   Q00  =   0.074619

H          x = -1.432940  y = -0.328008  z =  3.173428 angstrom
           Maximum rank =  0   Radius =  0.325 angstrom
                   Q00  =   0.075201

H          x = -2.167010  y = -2.165056  z = -0.573342 angstrom
           Maximum rank =  0   Radius =  0.325 angstrom
                   Q00  =   0.080315

H          x = -1.295700  y = -3.123493  z =  0.714718 angstrom
           Maximum rank =  0   Radius =  0.325 angstrom
                   Q00  =   0.077122

C          x =  2.370450  y = -1.007195  z = -1.613032 angstrom
           Maximum rank =  0   Radius =  0.650 angstrom
                   Q00  =  -0.203867

C          x = -0.449550  y =  1.563805  z = -1.249032 angstrom
           Maximum rank =  0   Radius =  0.650 angstrom
                   Q00  =  -0.083945

C          x =  0.391450  y =  0.546805  z = -1.811032 angstrom
           Maximum rank =  0   Radius =  0.650 angstrom
                   Q00  =  -0.100254

C          x = -0.176550  y =  2.070805  z =  0.043968 angstrom
           Maximum rank =  0   Radius =  0.650 angstrom
                   Q00  =  -0.090810

C          x =  1.506450  y =  0.085805  z = -1.093032 angstrom
           Maximum rank =  0   Radius =  0.650 angstrom
                   Q00  =  -0.086014

C          x =  0.927450  y =  1.568805  z =  0.743968 angstrom
           Maximum rank =  0   Radius =  0.650 angstrom
                   Q00  =  -0.029115

C          x =  1.722450  y =  0.569805  z =  0.208968 angstrom
           Maximum rank =  0   Radius =  0.650 angstrom
                   Q00  =  -0.028527

H          x = -1.310550  y =  1.922805  z = -1.794032 angstrom
           Maximum rank =  0   Radius =  0.325 angstrom
                   Q00  =   0.072137

H          x =  0.168450  y =  0.149805  z = -2.792032 angstrom
           Maximum rank =  0   Radius =  0.325 angstrom
                   Q00  =   0.067207

H          x = -0.807550  y =  2.827805  z =  0.487968 angstrom
           Maximum rank =  0   Radius =  0.325 angstrom
                   Q00  =   0.067988

H          x =  1.141450  y =  1.939805  z =  1.737968 angstrom
           Maximum rank =  0   Radius =  0.325 angstrom
                   Q00  =   0.064128

H          x =  1.875450  y = -1.464195  z = -2.471032 angstrom
           Maximum rank =  0   Radius =  0.325 angstrom
                   Q00  =   0.095974

H          x =  2.457450  y = -1.780195  z = -0.849032 angstrom
           Maximum rank =  0   Radius =  0.325 angstrom
                   Q00  =   0.098443

H          x =  2.531450  y =  0.173805  z =  0.796968 angstrom
           Maximum rank =  0   Radius =  0.325 angstrom
                   Q00  =   0.056015

H          x =  3.375960  y = -0.683388  z = -1.919792 angstrom
           Maximum rank =  0   Radius =  0.325 angstrom
                   Q00  =   0.104431

Total multipoles referred to origin at
           x =   0.000000,  y =    0.000000,  z =    0.000000 angstrom
                   Q00  =  -0.000000

Finished at 13:9:21 on 27 Apr 2020

  DMA results are available in the Python driver through the
	  variable('DMA DISTRIBUTED MULTIPOLES')
  and
	  variable('DMA TOTAL MULTIPOLES')
  commands.

    Psi4 stopped on: Monday, 27 April 2020 01:09PM
    Psi4 wall time for execution: 0:02:47.57

*** Psi4 exiting successfully. Buy a developer a beer!
