                               Psi4 1.3.2 release

  ==> Input File <==

--------------------------------------------------------------------------
import numpy as np
set {scf_type pk
basis cc-pvdz
d_convergence 10
gdma_switch   0
gdma_limit    0
gdma_origin   [ 0.0,  0.0,  0.0 ]
}
molecule test {
    units Angstrom
    0 1
    --
    0 1
    C                0.481583551776014     1.757881224362588     1.127276620313815
    C                0.179583551776014     2.644881224362588     2.294276620313815
    C                0.732583551776015     2.519881224362588    -0.186723379686185
    H                1.363583551776015     1.156881224362589     1.352276620313815
    H               -0.363416448223986     1.085881224362588     0.976276620313815
    H               -0.603416448223986     3.348881224362588     2.003276620313815
    H                1.067583551776014     3.220881224362588     2.561276620313815
    H                1.591583551776015     3.172881224362588    -0.073723379686185
    H                1.024583551776014     1.780881224362588    -0.936723379686185
    H               -0.181936448223986     2.084029224362588     3.168776620313815
    H               -0.149726448223986     3.048671224362588    -0.576473379686185
    C               -0.400416448223986    -1.384118775637412    -0.832723379686185
    C               -1.647416448223986    -2.006118775637412    -0.146723379686185
    C                0.873583551776014    -1.716118775637412    -0.018723379686185
    C               -0.246416448223986    -1.885118775637412    -2.264723379686185
    H               -0.509416448223986    -0.302118775637412    -0.861723379686185
    H               -1.715416448223986    -1.610118775637412     0.869276620313815
    H                1.077583551776014    -2.787118775637412    -0.043723379686185
    H                1.728583551776014    -1.188118775637412    -0.443723379686185
    H                0.742583551776014    -1.399118775637412     1.017276620313815
    H               -1.100416448223986    -1.588118775637412    -2.875723379686185
    H                0.650583551776014    -1.442118775637412    -2.698723379686184
    H               -0.141416448223986    -2.971118775637412    -2.290723379686185
    H               -1.607516448223985    -3.105280775637412    -0.130913379686185
    H               -2.553516448223986    -1.686192775637412    -0.682113379686185

}
e, wfn = energy('scf', return_wfn=True)
gdma(wfn)
dmavals = variable('DMA DISTRIBUTED MULTIPOLES')
charges = np.array(dmavals)
print(charges)
np.save('SSI-057ARG-067VAL-1-dimer.npy', np.array(charges))--------------------------------------------------------------------------

*** tstart() called on ds3
*** at Mon Apr 27 16:47:53 2020

   => Loading Basis Set <=

    Name: CC-PVDZ
    Role: ORBITAL
    Keyword: BASIS
    atoms 1-3, 12-15  entry C          line   138 file /theoryfs2/ds/metcalf/miniconda2/envs/tf2gpu/share/psi4/basis/cc-pvdz.gbs
    atoms 4-11, 16-25 entry H          line    22 file /theoryfs2/ds/metcalf/miniconda2/envs/tf2gpu/share/psi4/basis/cc-pvdz.gbs

         ---------------------------------------------------------
                                   SCF
               by Justin Turney, Rob Parrish, Andy Simmonett
                          and Daniel G. A. Smith
                              RHF Reference
                        1 Threads,    500 MiB Core
         ---------------------------------------------------------

  ==> Geometry <==

    Molecular point group: c1
    Full point group: C1

    Geometry (in Angstrom), charge = 0, multiplicity = 1:

       Center              X                  Y                   Z               Mass
    ------------   -----------------  -----------------  -----------------  -----------------
         C            0.481583551776     1.757881224363     1.127276620314    12.000000000000
         C            0.179583551776     2.644881224363     2.294276620314    12.000000000000
         C            0.732583551776     2.519881224363    -0.186723379686    12.000000000000
         H            1.363583551776     1.156881224363     1.352276620314     1.007825032230
         H           -0.363416448224     1.085881224363     0.976276620314     1.007825032230
         H           -0.603416448224     3.348881224363     2.003276620314     1.007825032230
         H            1.067583551776     3.220881224363     2.561276620314     1.007825032230
         H            1.591583551776     3.172881224363    -0.073723379686     1.007825032230
         H            1.024583551776     1.780881224363    -0.936723379686     1.007825032230
         H           -0.181936448224     2.084029224363     3.168776620314     1.007825032230
         H           -0.149726448224     3.048671224363    -0.576473379686     1.007825032230
         C           -0.400416448224    -1.384118775637    -0.832723379686    12.000000000000
         C           -1.647416448224    -2.006118775637    -0.146723379686    12.000000000000
         C            0.873583551776    -1.716118775637    -0.018723379686    12.000000000000
         C           -0.246416448224    -1.885118775637    -2.264723379686    12.000000000000
         H           -0.509416448224    -0.302118775637    -0.861723379686     1.007825032230
         H           -1.715416448224    -1.610118775637     0.869276620314     1.007825032230
         H            1.077583551776    -2.787118775637    -0.043723379686     1.007825032230
         H            1.728583551776    -1.188118775637    -0.443723379686     1.007825032230
         H            0.742583551776    -1.399118775637     1.017276620314     1.007825032230
         H           -1.100416448224    -1.588118775637    -2.875723379686     1.007825032230
         H            0.650583551776    -1.442118775637    -2.698723379686     1.007825032230
         H           -0.141416448224    -2.971118775637    -2.290723379686     1.007825032230
         H           -1.607516448224    -3.105280775637    -0.130913379686     1.007825032230
         H           -2.553516448224    -1.686192775637    -0.682113379686     1.007825032230

  Running in c1 symmetry.

  Rotational constants: A =      0.11117  B =      0.02731  C =      0.02544 [cm^-1]
  Rotational constants: A =   3332.93292  B =    818.60427  C =    762.54273 [MHz]
  Nuclear repulsion =  315.878979260999188

  Charge       = 0
  Multiplicity = 1
  Electrons    = 60
  Nalpha       = 30
  Nbeta        = 30

  ==> Algorithm <==

  SCF Algorithm Type is PK.
  DIIS enabled.
  MOM disabled.
  Fractional occupation disabled.
  Guess Type is SAD.
  Energy threshold   = 1.00e-06
  Density threshold  = 1.00e-10
  Integral threshold = 0.00e+00

  ==> Primary Basis <==

  Basis Set: CC-PVDZ
    Blend: CC-PVDZ
    Number of shells: 96
    Number of basis function: 188
    Number of Cartesian functions: 195
    Spherical Harmonics?: true
    Max angular momentum: 2

  ==> Pre-Iterations <==

   -------------------------------------------------------
    Irrep   Nso     Nmo     Nalpha   Nbeta   Ndocc  Nsocc
   -------------------------------------------------------
     A        188     188       0       0       0       0
   -------------------------------------------------------
    Total     188     188      30      30      30       0
   -------------------------------------------------------

  ==> Integral Setup <==

  Using integral reordering PK algorithm.
  Sizing the integral batches needed.
  Building batch lookup table.
   Calculation information:
      Number of atoms:                  25
      Number of AO shells:              96
      Number of primitives:            244
      Number of atomic orbitals:       195
      Number of basis functions:       188

      Integral cutoff                 1.00e-12
      Number of threads:                 1

	Batch   1 pq = [       0,    9405] index = [             0,44231715] size =     44231715
	Batch   2 pq = [    9405,   13301] index = [      44231715,88464951] size =     44233236
	Batch   3 pq = [   13301,   16290] index = [      88464951,132690195] size =     44225244
	Batch   4 pq = [   16290,   17766] index = [     132690195,157824261] size =     25134066
  Task number: 15
  Buffer size: 11059200
  Buffer per thread: 2
  We computed 9949002 shell quartets total.
  Whereas there are 10841496 unique shell quartets.

  ==> DiskJK: Disk-Based J/K Matrices <==

    J tasked:                  Yes
    K tasked:                  Yes
    wK tasked:                  No
    Memory [MiB]:              375
    Schwarz Cutoff:          1E-12

    OpenMP threads:              1

  Minimum eigenvalue in the overlap matrix is 4.5902621014E-03.
  Using Symmetric Orthogonalization.

  SCF Guess: Superposition of Atomic Densities via on-the-fly atomic UHF.

  ==> Iterations <==

                        Total Energy        Delta E     RMS |[F,P]|

   @RHF iter SAD:  -274.40780569713382   -2.74408e+02   0.00000e+00
   @RHF iter   1:  -275.31683347311673   -9.09028e-01   3.27528e-03 DIIS
   @RHF iter   2:  -275.53395327238439   -2.17120e-01   1.42465e-03 DIIS
   @RHF iter   3:  -275.57249384023976   -3.85406e-02   2.93380e-04 DIIS
   @RHF iter   4:  -275.57551150158326   -3.01766e-03   6.17469e-05 DIIS
   @RHF iter   5:  -275.57560145967420   -8.99581e-05   1.41789e-05 DIIS
   @RHF iter   6:  -275.57560732853460   -5.86886e-06   2.55564e-06 DIIS
   @RHF iter   7:  -275.57560752932125   -2.00787e-07   6.19033e-07 DIIS
   @RHF iter   8:  -275.57560754288653   -1.35653e-08   1.69267e-07 DIIS
   @RHF iter   9:  -275.57560754380631   -9.19783e-10   4.44644e-08 DIIS
   @RHF iter  10:  -275.57560754389272   -8.64020e-11   8.80914e-09 DIIS
   @RHF iter  11:  -275.57560754389777   -5.05906e-12   1.97506e-09 DIIS
   @RHF iter  12:  -275.57560754389857   -7.95808e-13   4.87894e-10 DIIS
   @RHF iter  13:  -275.57560754389726    1.30740e-12   1.06991e-10 DIIS
   @RHF iter  14:  -275.57560754389812   -8.52651e-13   3.15892e-11 DIIS
  Energy and wave function converged.

  ==> Post-Iterations <==

    Orbital Energies [Eh]
    ---------------------

    Doubly Occupied:

       1A    -11.225555     2A    -11.218652     3A    -11.217739
       4A    -11.217588     5A    -11.214043     6A    -11.213678
       7A    -11.213105     8A     -1.076159     9A     -1.057616
      10A     -0.927444    11A     -0.925469    12A     -0.922747
      13A     -0.796363    14A     -0.763986    15A     -0.631976
      16A     -0.626839    17A     -0.594664    18A     -0.587764
      19A     -0.583610    20A     -0.548347    21A     -0.537537
      22A     -0.536534    23A     -0.533058    24A     -0.507786
      25A     -0.473896    26A     -0.472422    27A     -0.466686
      28A     -0.459829    29A     -0.454881    30A     -0.449650

    Virtual:

      31A      0.164424    32A      0.193507    33A      0.200701
      34A      0.216533    35A      0.225273    36A      0.237465
      37A      0.239795    38A      0.257388    39A      0.260124
      40A      0.269633    41A      0.280488    42A      0.286964
      43A      0.298052    44A      0.304870    45A      0.311703
      46A      0.323586    47A      0.324635    48A      0.357619
      49A      0.364394    50A      0.373701    51A      0.403773
      52A      0.412959    53A      0.429766    54A      0.553582
      55A      0.571035    56A      0.578378    57A      0.597385
      58A      0.609937    59A      0.611434    60A      0.620421
      61A      0.640937    62A      0.655031    63A      0.736298
      64A      0.770621    65A      0.780085    66A      0.783779
      67A      0.797264    68A      0.810048    69A      0.828537
      70A      0.844659    71A      0.857399    72A      0.864650
      73A      0.879079    74A      0.887317    75A      0.893047
      76A      0.898566    77A      0.901052    78A      0.903963
      79A      0.910462    80A      0.912211    81A      0.916509
      82A      0.924612    83A      0.935092    84A      0.943746
      85A      0.951409    86A      0.958953    87A      0.969783
      88A      0.972181    89A      0.999075    90A      1.006644
      91A      1.036811    92A      1.053588    93A      1.123486
      94A      1.132359    95A      1.135351    96A      1.147723
      97A      1.180495    98A      1.216759    99A      1.372356
     100A      1.386454   101A      1.404935   102A      1.409785
     103A      1.454809   104A      1.484781   105A      1.528148
     106A      1.551158   107A      1.558111   108A      1.638972
     109A      1.668078   110A      1.671493   111A      1.682952
     112A      1.690058   113A      1.693178   114A      1.694691
     115A      1.696247   116A      1.706693   117A      1.722169
     118A      1.724693   119A      1.834375   120A      1.840518
     121A      1.858171   122A      1.867431   123A      1.882956
     124A      1.901168   125A      1.904320   126A      1.923021
     127A      1.931526   128A      1.938518   129A      1.951821
     130A      1.961660   131A      1.963862   132A      1.965507
     133A      1.972561   134A      1.983139   135A      1.988689
     136A      1.991775   137A      2.001618   138A      2.015405
     139A      2.025694   140A      2.044253   141A      2.048762
     142A      2.065900   143A      2.084176   144A      2.117348
     145A      2.126566   146A      2.139192   147A      2.145600
     148A      2.171037   149A      2.245193   150A      2.250029
     151A      2.288129   152A      2.305714   153A      2.311316
     154A      2.322288   155A      2.330901   156A      2.341092
     157A      2.355840   158A      2.374569   159A      2.386226
     160A      2.481638   161A      2.496888   162A      2.538353
     163A      2.565962   164A      2.583855   165A      2.601801
     166A      2.607867   167A      2.616243   168A      2.639549
     169A      2.710996   170A      2.722151   171A      2.756280
     172A      2.760683   173A      2.771546   174A      2.777108
     175A      2.788798   176A      2.792998   177A      2.807066
     178A      2.828527   179A      2.833456   180A      2.844518
     181A      2.861972   182A      2.914019   183A      2.977908
     184A      2.999044   185A      3.017237   186A      3.020026
     187A      3.067792   188A      3.122158

    Final Occupation by Irrep:
              A
    DOCC [    30 ]

  @RHF Final Energy:  -275.57560754389812

   => Energetics <=

    Nuclear Repulsion Energy =            315.8789792609991878
    One-Electron Energy =                -995.9979266661853217
    Two-Electron Energy =                 404.5433398612880751
    Total Energy =                       -275.5756075438981156

Computation Completed

Properties will be evaluated at   0.000000,   0.000000,   0.000000 [a0]

Properties computed using the SCF density matrix

  Nuclear Dipole Moment: [e a0]
     X:     0.3004      Y:     0.7683      Z:     0.3133

  Electronic Dipole Moment: [e a0]
     X:    -0.2908      Y:    -0.7441      Z:    -0.3179

  Dipole Moment: [e a0]
     X:     0.0097      Y:     0.0242      Z:    -0.0047     Total:     0.0265

  Dipole Moment: [D]
     X:     0.0246      Y:     0.0616      Z:    -0.0119     Total:     0.0674

*** tstop() called on ds3 at Mon Apr 27 16:49:29 2020
Module time:
	user time   =      74.22 seconds =       1.24 minutes
	system time =      24.62 seconds =       0.41 minutes
	total time  =         96 seconds =       1.60 minutes
Total time:
	user time   =      74.22 seconds =       1.24 minutes
	system time =      24.62 seconds =       0.41 minutes
	total time  =         96 seconds =       1.60 minutes
                                     G D M A

                                 by Anthony Stone

                           version 2.2.06, 22 June 2011

               Distributed Multipoles from Gaussian wavefunctions

Starting at 16:49:29 on 27 Apr 2020

Using SCF density matrix from file ./SSI/SSI-057ARG-067VAL-1-dimer.test.28106.fchk

                         Distributed Multipole Analysis

Standard DMA

Positions and radii in angstrom
Multipole moments in atomic units, ea_0^k for rank k

C          x =  0.481584  y =  1.757881  z =  1.127277 angstrom
           Maximum rank =  0   Radius =  0.650 angstrom
                   Q00  =  -0.071023

C          x =  0.179584  y =  2.644881  z =  2.294277 angstrom
           Maximum rank =  0   Radius =  0.650 angstrom
                   Q00  =  -0.222744

C          x =  0.732584  y =  2.519881  z = -0.186723 angstrom
           Maximum rank =  0   Radius =  0.650 angstrom
                   Q00  =  -0.263513

H          x =  1.363584  y =  1.156881  z =  1.352277 angstrom
           Maximum rank =  0   Radius =  0.325 angstrom
                   Q00  =   0.047274

H          x = -0.363416  y =  1.085881  z =  0.976277 angstrom
           Maximum rank =  0   Radius =  0.325 angstrom
                   Q00  =   0.041750

H          x = -0.603416  y =  3.348881  z =  2.003277 angstrom
           Maximum rank =  0   Radius =  0.325 angstrom
                   Q00  =   0.070663

H          x =  1.067584  y =  3.220881  z =  2.561277 angstrom
           Maximum rank =  0   Radius =  0.325 angstrom
                   Q00  =   0.073813

H          x =  1.591584  y =  3.172881  z = -0.073723 angstrom
           Maximum rank =  0   Radius =  0.325 angstrom
                   Q00  =   0.080347

H          x =  1.024584  y =  1.780881  z = -0.936723 angstrom
           Maximum rank =  0   Radius =  0.325 angstrom
                   Q00  =   0.079828

H          x = -0.181936  y =  2.084029  z =  3.168777 angstrom
           Maximum rank =  0   Radius =  0.325 angstrom
                   Q00  =   0.082073

H          x = -0.149726  y =  3.048671  z = -0.576473 angstrom
           Maximum rank =  0   Radius =  0.325 angstrom
                   Q00  =   0.082698

C          x = -0.400416  y = -1.384119  z = -0.832723 angstrom
           Maximum rank =  0   Radius =  0.650 angstrom
                   Q00  =   0.014183

C          x = -1.647416  y = -2.006119  z = -0.146723 angstrom
           Maximum rank =  0   Radius =  0.650 angstrom
                   Q00  =  -0.265471

C          x =  0.873584  y = -1.716119  z = -0.018723 angstrom
           Maximum rank =  0   Radius =  0.650 angstrom
                   Q00  =  -0.246414

C          x = -0.246416  y = -1.885119  z = -2.264723 angstrom
           Maximum rank =  0   Radius =  0.650 angstrom
                   Q00  =  -0.241794

H          x = -0.509416  y = -0.302119  z = -0.861723 angstrom
           Maximum rank =  0   Radius =  0.325 angstrom
                   Q00  =   0.019454

H          x = -1.715416  y = -1.610119  z =  0.869277 angstrom
           Maximum rank =  0   Radius =  0.325 angstrom
                   Q00  =   0.081217

H          x =  1.077584  y = -2.787119  z = -0.043723 angstrom
           Maximum rank =  0   Radius =  0.325 angstrom
                   Q00  =   0.078025

H          x =  1.728584  y = -1.188119  z = -0.443723 angstrom
           Maximum rank =  0   Radius =  0.325 angstrom
                   Q00  =   0.079859

H          x =  0.742584  y = -1.399119  z =  1.017277 angstrom
           Maximum rank =  0   Radius =  0.325 angstrom
                   Q00  =   0.083208

H          x = -1.100416  y = -1.588119  z = -2.875723 angstrom
           Maximum rank =  0   Radius =  0.325 angstrom
                   Q00  =   0.080901

H          x =  0.650584  y = -1.442119  z = -2.698723 angstrom
           Maximum rank =  0   Radius =  0.325 angstrom
                   Q00  =   0.077755

H          x = -0.141416  y = -2.971119  z = -2.290723 angstrom
           Maximum rank =  0   Radius =  0.325 angstrom
                   Q00  =   0.076779

H          x = -1.607516  y = -3.105281  z = -0.130913 angstrom
           Maximum rank =  0   Radius =  0.325 angstrom
                   Q00  =   0.081466

H          x = -2.553516  y = -1.686193  z = -0.682113 angstrom
           Maximum rank =  0   Radius =  0.325 angstrom
                   Q00  =   0.079666

Total multipoles referred to origin at
           x =   0.000000,  y =    0.000000,  z =    0.000000 angstrom
                   Q00  =  -0.000000

Finished at 16:49:29 on 27 Apr 2020

  DMA results are available in the Python driver through the
	  variable('DMA DISTRIBUTED MULTIPOLES')
  and
	  variable('DMA TOTAL MULTIPOLES')
  commands.

    Psi4 stopped on: Monday, 27 April 2020 04:49PM
    Psi4 wall time for execution: 0:01:35.28

*** Psi4 exiting successfully. Buy a developer a beer!
