                               Psi4 1.3.2 release

  ==> Input File <==

--------------------------------------------------------------------------
import numpy as np
set {scf_type pk
basis cc-pvdz
d_convergence 10
gdma_switch   0
gdma_limit    0
gdma_origin   [ 0.0,  0.0,  0.0 ]
}
molecule test {
    units Angstrom
    0 1
    --
    0 1
    C                0.723388811968475     1.502059176753904    -2.079806593865725
    C                0.970388811968475     2.933059176753903    -1.603806593865725
    H                1.548388811968475     0.837059176753903    -1.834806593865725
    H               -0.189611188031525     1.122059176753903    -1.620806593865725
    H                0.595388811968475     1.466059176753904    -3.156806593865725
    H                0.810388811968475     2.950059176753903    -0.527806593865725
    H                2.003402811968475     3.244899176753903    -1.817436593865725
    H                0.251503811968475     3.620219176753903    -2.073926593865725
    C                0.999388811968475    -0.557940823246097     0.782193406134275
    C               -1.187611188031525    -1.906940823246096     1.880193406134275
    S               -0.729611188031525    -0.909940823246097     0.444193406134275
    H                1.589388811968475    -1.466940823246097     0.670193406134275
    H                1.379388811968475     0.208059176753903     0.118193406134275
    H                1.066388811968475    -0.189940823246097     1.799193406134275
    H               -0.377611188031525    -2.605940823246096     2.082193406134275
    H               -2.090611188031525    -2.467940823246097     1.643193406134275
    H               -1.366732188031525    -1.310112823246097     2.786673406134275

}
e, wfn = energy('scf', return_wfn=True)
gdma(wfn)
dmavals = variable('DMA DISTRIBUTED MULTIPOLES')
charges = np.array(dmavals)
print(charges)
np.save('SSI-007VAL-248MET-1-dimer.npy', np.array(charges))--------------------------------------------------------------------------

*** tstart() called on ds3
*** at Mon Apr 27 14:13:54 2020

   => Loading Basis Set <=

    Name: CC-PVDZ
    Role: ORBITAL
    Keyword: BASIS
    atoms 1-2, 9-10  entry C          line   138 file /theoryfs2/ds/metcalf/miniconda2/envs/tf2gpu/share/psi4/basis/cc-pvdz.gbs
    atoms 3-8, 12-17 entry H          line    22 file /theoryfs2/ds/metcalf/miniconda2/envs/tf2gpu/share/psi4/basis/cc-pvdz.gbs
    atoms 11         entry S          line   598 file /theoryfs2/ds/metcalf/miniconda2/envs/tf2gpu/share/psi4/basis/cc-pvdz.gbs

         ---------------------------------------------------------
                                   SCF
               by Justin Turney, Rob Parrish, Andy Simmonett
                          and Daniel G. A. Smith
                              RHF Reference
                        1 Threads,    500 MiB Core
         ---------------------------------------------------------

  ==> Geometry <==

    Molecular point group: c1
    Full point group: C1

    Geometry (in Angstrom), charge = 0, multiplicity = 1:

       Center              X                  Y                   Z               Mass
    ------------   -----------------  -----------------  -----------------  -----------------
         C            0.723388811968     1.502059176754    -2.079806593866    12.000000000000
         C            0.970388811968     2.933059176754    -1.603806593866    12.000000000000
         H            1.548388811968     0.837059176754    -1.834806593866     1.007825032230
         H           -0.189611188032     1.122059176754    -1.620806593866     1.007825032230
         H            0.595388811968     1.466059176754    -3.156806593866     1.007825032230
         H            0.810388811968     2.950059176754    -0.527806593866     1.007825032230
         H            2.003402811968     3.244899176754    -1.817436593866     1.007825032230
         H            0.251503811968     3.620219176754    -2.073926593866     1.007825032230
         C            0.999388811968    -0.557940823246     0.782193406134    12.000000000000
         C           -1.187611188032    -1.906940823246     1.880193406134    12.000000000000
         S           -0.729611188032    -0.909940823246     0.444193406134    31.972071174400
         H            1.589388811968    -1.466940823246     0.670193406134     1.007825032230
         H            1.379388811968     0.208059176754     0.118193406134     1.007825032230
         H            1.066388811968    -0.189940823246     1.799193406134     1.007825032230
         H           -0.377611188032    -2.605940823246     2.082193406134     1.007825032230
         H           -2.090611188032    -2.467940823246     1.643193406134     1.007825032230
         H           -1.366732188032    -1.310112823246     2.786673406134     1.007825032230

  Running in c1 symmetry.

  Rotational constants: A =      0.27988  B =      0.03492  C =      0.03358 [cm^-1]
  Rotational constants: A =   8390.53367  B =   1046.73652  C =   1006.83384 [MHz]
  Nuclear repulsion =  226.241582203236703

  Charge       = 0
  Multiplicity = 1
  Electrons    = 52
  Nalpha       = 26
  Nbeta        = 26

  ==> Algorithm <==

  SCF Algorithm Type is PK.
  DIIS enabled.
  MOM disabled.
  Fractional occupation disabled.
  Guess Type is SAD.
  Energy threshold   = 1.00e-06
  Density threshold  = 1.00e-10
  Integral threshold = 0.00e+00

  ==> Primary Basis <==

  Basis Set: CC-PVDZ
    Blend: CC-PVDZ
    Number of shells: 68
    Number of basis function: 134
    Number of Cartesian functions: 139
    Spherical Harmonics?: true
    Max angular momentum: 2

  ==> Pre-Iterations <==

   -------------------------------------------------------
    Irrep   Nso     Nmo     Nalpha   Nbeta   Ndocc  Nsocc
   -------------------------------------------------------
     A        134     134       0       0       0       0
   -------------------------------------------------------
    Total     134     134      26      26      26       0
   -------------------------------------------------------

  ==> Integral Setup <==

  Using integral reordering PK algorithm.
  Sizing the integral batches needed.
  Building batch lookup table.
   Calculation information:
      Number of atoms:                  17
      Number of AO shells:              68
      Number of primitives:            198
      Number of atomic orbitals:       139
      Number of basis functions:       134

      Integral cutoff                 1.00e-12
      Number of threads:                 1

	Batch   1 pq = [       0,    9045] index = [             0,40910535] size =     40910535
  Task number: 4
  Buffer size: 11059200
  Buffer per thread: 2
  We computed 2243736 shell quartets total.
  Whereas there are 2753031 unique shell quartets.

  ==> DiskJK: Disk-Based J/K Matrices <==

    J tasked:                  Yes
    K tasked:                  Yes
    wK tasked:                  No
    Memory [MiB]:              375
    Schwarz Cutoff:          1E-12

    OpenMP threads:              1

  Minimum eigenvalue in the overlap matrix is 7.6048738721E-03.
  Using Symmetric Orthogonalization.

  SCF Guess: Superposition of Atomic Densities via on-the-fly atomic UHF.

  ==> Iterations <==

                        Total Energy        Delta E     RMS |[F,P]|

   @RHF iter SAD:  -554.94106327482655   -5.54941e+02   0.00000e+00
   @RHF iter   1:  -555.84283458847756   -9.01771e-01   3.36515e-03 DIIS
   @RHF iter   2:  -555.96620515790676   -1.23371e-01   1.31914e-03 DIIS
   @RHF iter   3:  -555.98380886484608   -1.76037e-02   3.15058e-04 DIIS
   @RHF iter   4:  -555.98567028839932   -1.86142e-03   4.76346e-05 DIIS
   @RHF iter   5:  -555.98570869011292   -3.84017e-05   1.02263e-05 DIIS
   @RHF iter   6:  -555.98571060803874   -1.91793e-06   2.20289e-06 DIIS
   @RHF iter   7:  -555.98571069548325   -8.74445e-08   6.77694e-07 DIIS
   @RHF iter   8:  -555.98571070372759   -8.24434e-09   1.76947e-07 DIIS
   @RHF iter   9:  -555.98571070464129   -9.13701e-10   5.77977e-08 DIIS
   @RHF iter  10:  -555.98571070473770   -9.64064e-11   1.60415e-08 DIIS
   @RHF iter  11:  -555.98571070474566   -7.95808e-12   4.82619e-09 DIIS
   @RHF iter  12:  -555.98571070474588   -2.27374e-13   1.90758e-09 DIIS
   @RHF iter  13:  -555.98571070474452    1.36424e-12   6.90045e-10 DIIS
   @RHF iter  14:  -555.98571070474497   -4.54747e-13   1.82277e-10 DIIS
   @RHF iter  15:  -555.98571070474554   -5.68434e-13   4.47996e-11 DIIS
  Energy and wave function converged.

  ==> Post-Iterations <==

    Orbital Energies [Eh]
    ---------------------

    Doubly Occupied:

       1A    -91.934278     2A    -11.257042     3A    -11.252024
       4A    -11.218425     5A    -11.212930     6A     -8.938151
       7A     -6.620221     8A     -6.618678     9A     -6.616417
      10A     -1.061956    11A     -1.017558    12A     -0.952795
      13A     -0.837172    14A     -0.805298    15A     -0.613327
      16A     -0.600674    17A     -0.597626    18A     -0.591370
      19A     -0.569937    20A     -0.562734    21A     -0.504415
      22A     -0.499496    23A     -0.484978    24A     -0.480768
      25A     -0.421984    26A     -0.330268

    Virtual:

      27A      0.173328    28A      0.181610    29A      0.205605
      30A      0.229765    31A      0.237977    32A      0.238729
      33A      0.250734    34A      0.253388    35A      0.270301
      36A      0.272338    37A      0.292376    38A      0.294420
      39A      0.328166    40A      0.360767    41A      0.396931
      42A      0.522846    43A      0.565132    44A      0.575027
      45A      0.599169    46A      0.606566    47A      0.617878
      48A      0.621790    49A      0.647047    50A      0.696294
      51A      0.718496    52A      0.731426    53A      0.769259
      54A      0.780866    55A      0.821508    56A      0.842033
      57A      0.852241    58A      0.869508    59A      0.873031
      60A      0.874942    61A      0.876240    62A      0.887258
      63A      0.893788    64A      0.900619    65A      0.909681
      66A      0.913739    67A      0.923332    68A      0.943696
      69A      0.955851    70A      0.965702    71A      0.995094
      72A      1.038920    73A      1.122630    74A      1.141096
      75A      1.193907    76A      1.231192    77A      1.272706
      78A      1.304333    79A      1.319749    80A      1.357537
      81A      1.388638    82A      1.466293    83A      1.489811
      84A      1.497507    85A      1.504177    86A      1.594447
      87A      1.669114    88A      1.675571    89A      1.686450
      90A      1.729586    91A      1.869509    92A      1.873915
      93A      1.876764    94A      1.886117    95A      1.896506
      96A      1.903407    97A      1.907714    98A      1.927745
      99A      1.933445   100A      1.944230   101A      1.950118
     102A      1.969526   103A      1.982014   104A      1.988195
     105A      1.996299   106A      2.021531   107A      2.055248
     108A      2.083970   109A      2.124363   110A      2.149385
     111A      2.227101   112A      2.244909   113A      2.294169
     114A      2.332650   115A      2.402532   116A      2.420865
     117A      2.438068   118A      2.453235   119A      2.459299
     120A      2.476942   121A      2.578215   122A      2.601889
     123A      2.733905   124A      2.758946   125A      2.767208
     126A      2.775196   127A      2.790003   128A      2.793010
     129A      2.818665   130A      2.847377   131A      2.863146
     132A      2.873211   133A      2.965327   134A      2.991910

    Final Occupation by Irrep:
              A
    DOCC [    26 ]

  @RHF Final Energy:  -555.98571070474554

   => Energetics <=

    Nuclear Repulsion Energy =            226.2415822032367032
    One-Electron Energy =               -1211.2535392339611917
    Two-Electron Energy =                 429.0262463259789456
    Total Energy =                       -555.9857107047455429

Computation Completed

Properties will be evaluated at   0.000000,   0.000000,   0.000000 [a0]

Properties computed using the SCF density matrix

  Nuclear Dipole Moment: [e a0]
     X:     4.8740      Y:     5.0454      Z:    -1.7994

  Electronic Dipole Moment: [e a0]
     X:    -4.5228      Y:    -5.2426      Z:     2.3052

  Dipole Moment: [e a0]
     X:     0.3512      Y:    -0.1973      Z:     0.5058     Total:     0.6466

  Dipole Moment: [D]
     X:     0.8926      Y:    -0.5014      Z:     1.2855     Total:     1.6434

*** tstop() called on ds3 at Mon Apr 27 14:14:18 2020
Module time:
	user time   =      18.15 seconds =       0.30 minutes
	system time =       5.97 seconds =       0.10 minutes
	total time  =         24 seconds =       0.40 minutes
Total time:
	user time   =      18.15 seconds =       0.30 minutes
	system time =       5.97 seconds =       0.10 minutes
	total time  =         24 seconds =       0.40 minutes
                                     G D M A

                                 by Anthony Stone

                           version 2.2.06, 22 June 2011

               Distributed Multipoles from Gaussian wavefunctions

Starting at 14:14:18 on 27 Apr 2020

Using SCF density matrix from file ./SSI/SSI-007VAL-248MET-1-dimer.test.9060.fchk

                         Distributed Multipole Analysis

Standard DMA

Positions and radii in angstrom
Multipole moments in atomic units, ea_0^k for rank k

C          x =  0.723389  y =  1.502059  z = -2.079807 angstrom
           Maximum rank =  0   Radius =  0.650 angstrom
                   Q00  =  -0.236827

C          x =  0.970389  y =  2.933059  z = -1.603807 angstrom
           Maximum rank =  0   Radius =  0.650 angstrom
                   Q00  =  -0.239957

H          x =  1.548389  y =  0.837059  z = -1.834807 angstrom
           Maximum rank =  0   Radius =  0.325 angstrom
                   Q00  =   0.069827

H          x = -0.189611  y =  1.122059  z = -1.620807 angstrom
           Maximum rank =  0   Radius =  0.325 angstrom
                   Q00  =   0.088585

H          x =  0.595389  y =  1.466059  z = -3.156807 angstrom
           Maximum rank =  0   Radius =  0.325 angstrom
                   Q00  =   0.081290

H          x =  0.810389  y =  2.950059  z = -0.527807 angstrom
           Maximum rank =  0   Radius =  0.325 angstrom
                   Q00  =   0.075376

H          x =  2.003403  y =  3.244899  z = -1.817437 angstrom
           Maximum rank =  0   Radius =  0.325 angstrom
                   Q00  =   0.077302

H          x =  0.251504  y =  3.620219  z = -2.073927 angstrom
           Maximum rank =  0   Radius =  0.325 angstrom
                   Q00  =   0.083811

C          x =  0.999389  y = -0.557941  z =  0.782193 angstrom
           Maximum rank =  0   Radius =  0.650 angstrom
                   Q00  =  -0.352268

C          x = -1.187611  y = -1.906941  z =  1.880193 angstrom
           Maximum rank =  0   Radius =  0.650 angstrom
                   Q00  =  -0.354480

S          x = -0.729611  y = -0.909941  z =  0.444193 angstrom
           Maximum rank =  0   Radius =  0.650 angstrom
                   Q00  =   0.104059

H          x =  1.589389  y = -1.466941  z =  0.670193 angstrom
           Maximum rank =  0   Radius =  0.325 angstrom
                   Q00  =   0.084681

H          x =  1.379389  y =  0.208059  z =  0.118193 angstrom
           Maximum rank =  0   Radius =  0.325 angstrom
                   Q00  =   0.133152

H          x =  1.066389  y = -0.189941  z =  1.799193 angstrom
           Maximum rank =  0   Radius =  0.325 angstrom
                   Q00  =   0.084524

H          x = -0.377611  y = -2.605941  z =  2.082193 angstrom
           Maximum rank =  0   Radius =  0.325 angstrom
                   Q00  =   0.090063

H          x = -2.090611  y = -2.467941  z =  1.643193 angstrom
           Maximum rank =  0   Radius =  0.325 angstrom
                   Q00  =   0.120240

H          x = -1.366732  y = -1.310113  z =  2.786673 angstrom
           Maximum rank =  0   Radius =  0.325 angstrom
                   Q00  =   0.090623

Total multipoles referred to origin at
           x =   0.000000,  y =    0.000000,  z =    0.000000 angstrom
                   Q00  =   0.000000

Finished at 14:14:18 on 27 Apr 2020

  DMA results are available in the Python driver through the
	  variable('DMA DISTRIBUTED MULTIPOLES')
  and
	  variable('DMA TOTAL MULTIPOLES')
  commands.

    Psi4 stopped on: Monday, 27 April 2020 02:14PM
    Psi4 wall time for execution: 0:00:23.92

*** Psi4 exiting successfully. Buy a developer a beer!
