                               Psi4 1.3.2 release

  ==> Input File <==

--------------------------------------------------------------------------
import numpy as np
set {scf_type pk
basis cc-pvdz
d_convergence 10
gdma_switch   0
gdma_limit    0
gdma_origin   [ 0.0,  0.0,  0.0 ]
}
molecule test {
    units Angstrom
    -1 1
    --
    -1 1
    C                1.547067439940245    -0.381322558023068    -0.724592948530760
    C                2.744067439940245    -0.961322558023068    -1.492592948530760
    C                2.021067439940245     0.229677441976932     0.615407051469240
    O                0.884067439940245     0.596677441976932    -1.522592948530760
    H                0.847067439940245    -1.187322558023068    -0.500592948530760
    H                3.232067439940245    -1.674322558023068    -0.828592948530760
    H                1.155067439940245     0.546677441976932     1.196407051469240
    H                2.573067439940245    -0.517322558023068     1.185407051469240
    H                2.662067439940245     1.093677441976932     0.437407051469240
    H               -0.036932560059755     0.578677441976932    -1.176592948530760
    H                3.445471439940245    -0.170922558023068    -1.798042948530759
    H                2.424554439940245    -1.539488558023068    -2.372158948530759
    C               -1.948932560059755     1.277677441976932     1.639407051469240
    C               -1.789932560059755     0.038677441976932     0.781407051469240
    O               -1.937932560059755    -1.132322558023068     1.198407051469240
    O               -1.526932560059755     0.260677441976931    -0.397592948530760
    H               -2.699932560059755     1.935677441976932     1.216407051469240
    H               -0.999932560059755     1.818677441976932     1.679407051469240
    H               -2.283718560059755     1.058231441976932     2.663987051469240

}
e, wfn = energy('scf', return_wfn=True)
gdma(wfn)
dmavals = variable('DMA DISTRIBUTED MULTIPOLES')
charges = np.array(dmavals)
print(charges)
np.save('SSI-115THR-142GLU-1-dimer.npy', np.array(charges))--------------------------------------------------------------------------

*** tstart() called on ds3
*** at Mon Apr 27 23:22:14 2020

   => Loading Basis Set <=

    Name: CC-PVDZ
    Role: ORBITAL
    Keyword: BASIS
    atoms 1-3, 13-14  entry C          line   138 file /theoryfs2/ds/metcalf/miniconda2/envs/tf2gpu/share/psi4/basis/cc-pvdz.gbs
    atoms 4, 15-16    entry O          line   198 file /theoryfs2/ds/metcalf/miniconda2/envs/tf2gpu/share/psi4/basis/cc-pvdz.gbs
    atoms 5-12, 17-19 entry H          line    22 file /theoryfs2/ds/metcalf/miniconda2/envs/tf2gpu/share/psi4/basis/cc-pvdz.gbs

         ---------------------------------------------------------
                                   SCF
               by Justin Turney, Rob Parrish, Andy Simmonett
                          and Daniel G. A. Smith
                              RHF Reference
                        1 Threads,    500 MiB Core
         ---------------------------------------------------------

  ==> Geometry <==

    Molecular point group: c1
    Full point group: C1

    Geometry (in Angstrom), charge = -1, multiplicity = 1:

       Center              X                  Y                   Z               Mass
    ------------   -----------------  -----------------  -----------------  -----------------
         C            1.547067439940    -0.381322558023    -0.724592948531    12.000000000000
         C            2.744067439940    -0.961322558023    -1.492592948531    12.000000000000
         C            2.021067439940     0.229677441977     0.615407051469    12.000000000000
         O            0.884067439940     0.596677441977    -1.522592948531    15.994914619570
         H            0.847067439940    -1.187322558023    -0.500592948531     1.007825032230
         H            3.232067439940    -1.674322558023    -0.828592948531     1.007825032230
         H            1.155067439940     0.546677441977     1.196407051469     1.007825032230
         H            2.573067439940    -0.517322558023     1.185407051469     1.007825032230
         H            2.662067439940     1.093677441977     0.437407051469     1.007825032230
         H           -0.036932560060     0.578677441977    -1.176592948531     1.007825032230
         H            3.445471439940    -0.170922558023    -1.798042948531     1.007825032230
         H            2.424554439940    -1.539488558023    -2.372158948531     1.007825032230
         C           -1.948932560060     1.277677441977     1.639407051469    12.000000000000
         C           -1.789932560060     0.038677441977     0.781407051469    12.000000000000
         O           -1.937932560060    -1.132322558023     1.198407051469    15.994914619570
         O           -1.526932560060     0.260677441977    -0.397592948531    15.994914619570
         H           -2.699932560060     1.935677441977     1.216407051469     1.007825032230
         H           -0.999932560060     1.818677441977     1.679407051469     1.007825032230
         H           -2.283718560060     1.058231441977     2.663987051469     1.007825032230

  Running in c1 symmetry.

  Rotational constants: A =      0.11242  B =      0.02886  C =      0.02850 [cm^-1]
  Rotational constants: A =   3370.35504  B =    865.17039  C =    854.31299 [MHz]
  Nuclear repulsion =  384.230002718672324

  Charge       = -1
  Multiplicity = 1
  Electrons    = 66
  Nalpha       = 33
  Nbeta        = 33

  ==> Algorithm <==

  SCF Algorithm Type is PK.
  DIIS enabled.
  MOM disabled.
  Fractional occupation disabled.
  Guess Type is SAD.
  Energy threshold   = 1.00e-06
  Density threshold  = 1.00e-10
  Integral threshold = 0.00e+00

  ==> Primary Basis <==

  Basis Set: CC-PVDZ
    Blend: CC-PVDZ
    Number of shells: 81
    Number of basis function: 167
    Number of Cartesian functions: 175
    Spherical Harmonics?: true
    Max angular momentum: 2

  ==> Pre-Iterations <==

   -------------------------------------------------------
    Irrep   Nso     Nmo     Nalpha   Nbeta   Ndocc  Nsocc
   -------------------------------------------------------
     A        167     167       0       0       0       0
   -------------------------------------------------------
    Total     167     167      33      33      33       0
   -------------------------------------------------------

  ==> Integral Setup <==

  Using integral reordering PK algorithm.
  Sizing the integral batches needed.
  Building batch lookup table.
   Calculation information:
      Number of atoms:                  19
      Number of AO shells:              81
      Number of primitives:            231
      Number of atomic orbitals:       175
      Number of basis functions:       167

      Integral cutoff                 1.00e-12
      Number of threads:                 1

	Batch   1 pq = [       0,    9405] index = [             0,44231715] size =     44231715
	Batch   2 pq = [    9405,   13301] index = [      44231715,88464951] size =     44233236
	Batch   3 pq = [   13301,   14028] index = [      88464951,98399406] size =      9934455
  Task number: 9
  Buffer size: 11059200
  Buffer per thread: 2
  We computed 4912093 shell quartets total.
  Whereas there are 5516181 unique shell quartets.

  ==> DiskJK: Disk-Based J/K Matrices <==

    J tasked:                  Yes
    K tasked:                  Yes
    wK tasked:                  No
    Memory [MiB]:              375
    Schwarz Cutoff:          1E-12

    OpenMP threads:              1

  Minimum eigenvalue in the overlap matrix is 4.6959760121E-03.
  Using Symmetric Orthogonalization.

  SCF Guess: Superposition of Atomic Densities via on-the-fly atomic UHF.

  ==> Iterations <==

                        Total Energy        Delta E     RMS |[F,P]|

   @RHF iter SAD:  -418.69591083841289   -4.18696e+02   0.00000e+00
   @RHF iter   1:  -420.08555779886422   -1.38965e+00   4.70064e-03 DIIS
   @RHF iter   2:  -420.32621173048005   -2.40654e-01   2.54157e-03 DIIS
   @RHF iter   3:  -420.39157828436981   -6.53666e-02   4.05729e-04 DIIS
   @RHF iter   4:  -420.39462211335194   -3.04383e-03   1.57404e-04 DIIS
   @RHF iter   5:  -420.39505662204971   -4.34509e-04   3.04653e-05 DIIS
   @RHF iter   6:  -420.39507253423915   -1.59122e-05   1.30491e-05 DIIS
   @RHF iter   7:  -420.39507511577585   -2.58154e-06   2.63395e-06 DIIS
   @RHF iter   8:  -420.39507533565870   -2.19883e-07   1.09574e-06 DIIS
   @RHF iter   9:  -420.39507537092516   -3.52665e-08   4.42729e-07 DIIS
   @RHF iter  10:  -420.39507537859549   -7.67034e-09   1.65555e-07 DIIS
   @RHF iter  11:  -420.39507537969479   -1.09929e-09   5.82080e-08 DIIS
   @RHF iter  12:  -420.39507537980541   -1.10617e-10   1.92489e-08 DIIS
   @RHF iter  13:  -420.39507537981802   -1.26192e-11   4.80663e-09 DIIS
   @RHF iter  14:  -420.39507537981768    3.41061e-13   1.25552e-09 DIIS
   @RHF iter  15:  -420.39507537981842   -7.38964e-13   3.41239e-10 DIIS
   @RHF iter  16:  -420.39507537981626    2.16005e-12   1.06160e-10 DIIS
   @RHF iter  17:  -420.39507537981768   -1.42109e-12   3.89066e-11 DIIS
  Energy and wave function converged.

  ==> Post-Iterations <==

    Orbital Energies [Eh]
    ---------------------

    Doubly Occupied:

       1A    -20.369146     2A    -20.285164     3A    -20.279261
       4A    -11.138038     5A    -11.131702     6A    -11.098134
       7A    -11.085874     8A    -11.066854     9A     -1.189327
      10A     -1.174883    11A     -1.062431    12A     -0.898565
      13A     -0.816328    14A     -0.803023    15A     -0.648309
      16A     -0.552727    17A     -0.518995    18A     -0.470835
      19A     -0.458614    20A     -0.435977    21A     -0.431602
      22A     -0.427174    23A     -0.415682    24A     -0.404853
      25A     -0.374308    26A     -0.368953    27A     -0.362195
      28A     -0.331976    29A     -0.314504    30A     -0.267116
      31A     -0.211927    32A     -0.193892    33A     -0.186924

    Virtual:

      34A      0.304053    35A      0.334626    36A      0.353695
      37A      0.356080    38A      0.375436    39A      0.387730
      40A      0.402118    41A      0.416560    42A      0.421316
      43A      0.435292    44A      0.482593    45A      0.499174
      46A      0.516193    47A      0.548925    48A      0.570717
      49A      0.593352    50A      0.673309    51A      0.700962
      52A      0.712860    53A      0.750787    54A      0.798883
      55A      0.818663    56A      0.831367    57A      0.838989
      58A      0.861135    59A      0.901719    60A      0.929848
      61A      0.948497    62A      0.962740    63A      0.968904
      64A      1.000464    65A      1.007458    66A      1.012424
      67A      1.018806    68A      1.026865    69A      1.031410
      70A      1.044875    71A      1.048965    72A      1.057740
      73A      1.079640    74A      1.091705    75A      1.104422
      76A      1.143618    77A      1.145007    78A      1.238985
      79A      1.256834    80A      1.277872    81A      1.301926
      82A      1.336203    83A      1.353386    84A      1.388155
      85A      1.451107    86A      1.503592    87A      1.522126
      88A      1.547114    89A      1.567029    90A      1.573089
      91A      1.590370    92A      1.623241    93A      1.630726
      94A      1.667946    95A      1.696708    96A      1.710651
      97A      1.730135    98A      1.780048    99A      1.802657
     100A      1.810722   101A      1.821128   102A      1.828250
     103A      1.836352   104A      1.855194   105A      1.897697
     106A      1.973782   107A      1.992863   108A      2.013177
     109A      2.020038   110A      2.033556   111A      2.061559
     112A      2.063911   113A      2.090220   114A      2.093354
     115A      2.113671   116A      2.126826   117A      2.136414
     118A      2.144761   119A      2.168772   120A      2.190236
     121A      2.210358   122A      2.239091   123A      2.266814
     124A      2.287079   125A      2.316794   126A      2.348984
     127A      2.392078   128A      2.433453   129A      2.440491
     130A      2.467172   131A      2.473982   132A      2.524541
     133A      2.578398   134A      2.622003   135A      2.636198
     136A      2.650986   137A      2.683552   138A      2.693358
     139A      2.735437   140A      2.774513   141A      2.792307
     142A      2.872282   143A      2.890229   144A      2.906408
     145A      2.910055   146A      2.918246   147A      2.950188
     148A      2.974386   149A      3.006415   150A      3.019478
     151A      3.039159   152A      3.119042   153A      3.223704
     154A      3.273379   155A      3.294191   156A      3.386005
     157A      3.516009   158A      3.571597   159A      3.652433
     160A      3.682401   161A      3.758786   162A      3.787189
     163A      3.829774   164A      4.053818   165A      4.103033
     166A      4.199054   167A      4.355796

    Final Occupation by Irrep:
              A
    DOCC [    33 ]

  @RHF Final Energy:  -420.39507537981768

   => Energetics <=

    Nuclear Repulsion Energy =            384.2300027186723241
    One-Electron Energy =               -1349.6995653752792350
    Two-Electron Energy =                 545.0744872767893412
    Total Energy =                       -420.3950753798176265

Computation Completed

Properties will be evaluated at   0.000000,   0.000000,   0.000000 [a0]

Properties computed using the SCF density matrix

  Nuclear Dipole Moment: [e a0]
     X:     9.6612      Y:     1.8195      Z:     1.5931

  Electronic Dipole Moment: [e a0]
     X:    -7.6900      Y:    -1.1671      Z:    -1.3835

  Dipole Moment: [e a0]
     X:     1.9712      Y:     0.6524      Z:     0.2096     Total:     2.0869

  Dipole Moment: [D]
     X:     5.0103      Y:     1.6582      Z:     0.5327     Total:     5.3044

*** tstop() called on ds3 at Mon Apr 27 23:23:11 2020
Module time:
	user time   =      40.77 seconds =       0.68 minutes
	system time =      18.22 seconds =       0.30 minutes
	total time  =         57 seconds =       0.95 minutes
Total time:
	user time   =      40.77 seconds =       0.68 minutes
	system time =      18.22 seconds =       0.30 minutes
	total time  =         57 seconds =       0.95 minutes
                                     G D M A

                                 by Anthony Stone

                           version 2.2.06, 22 June 2011

               Distributed Multipoles from Gaussian wavefunctions

Starting at 23:23:11 on 27 Apr 2020

Using SCF density matrix from file ./SSI/SSI-115THR-142GLU-1-dimer.test.2535.fchk

                         Distributed Multipole Analysis

Standard DMA

Positions and radii in angstrom
Multipole moments in atomic units, ea_0^k for rank k

C          x =  1.547067  y = -0.381323  z = -0.724593 angstrom
           Maximum rank =  0   Radius =  0.650 angstrom
                   Q00  =   0.250724

C          x =  2.744067  y = -0.961323  z = -1.492593 angstrom
           Maximum rank =  0   Radius =  0.650 angstrom
                   Q00  =  -0.255498

C          x =  2.021067  y =  0.229677  z =  0.615407 angstrom
           Maximum rank =  0   Radius =  0.650 angstrom
                   Q00  =  -0.272014

O          x =  0.884067  y =  0.596677  z = -1.522593 angstrom
           Maximum rank =  0   Radius =  0.650 angstrom
                   Q00  =  -0.709498

H          x =  0.847067  y = -1.187323  z = -0.500593 angstrom
           Maximum rank =  0   Radius =  0.325 angstrom
                   Q00  =   0.028067

H          x =  3.232067  y = -1.674323  z = -0.828593 angstrom
           Maximum rank =  0   Radius =  0.325 angstrom
                   Q00  =   0.050276

H          x =  1.155067  y =  0.546677  z =  1.196407 angstrom
           Maximum rank =  0   Radius =  0.325 angstrom
                   Q00  =   0.104835

H          x =  2.573067  y = -0.517323  z =  1.185407 angstrom
           Maximum rank =  0   Radius =  0.325 angstrom
                   Q00  =   0.047511

H          x =  2.662067  y =  1.093677  z =  0.437407 angstrom
           Maximum rank =  0   Radius =  0.325 angstrom
                   Q00  =   0.059120

H          x = -0.036933  y =  0.578677  z = -1.176593 angstrom
           Maximum rank =  0   Radius =  0.325 angstrom
                   Q00  =   0.534271

H          x =  3.445471  y = -0.170923  z = -1.798043 angstrom
           Maximum rank =  0   Radius =  0.325 angstrom
                   Q00  =   0.067435

H          x =  2.424554  y = -1.539489  z = -2.372159 angstrom
           Maximum rank =  0   Radius =  0.325 angstrom
                   Q00  =   0.076448

C          x = -1.948933  y =  1.277677  z =  1.639407 angstrom
           Maximum rank =  0   Radius =  0.650 angstrom
                   Q00  =  -0.282785

C          x = -1.789933  y =  0.038677  z =  0.781407 angstrom
           Maximum rank =  0   Radius =  0.650 angstrom
                   Q00  =   0.947781

O          x = -1.937933  y = -1.132323  z =  1.198407 angstrom
           Maximum rank =  0   Radius =  0.650 angstrom
                   Q00  =  -0.911517

O          x = -1.526933  y =  0.260677  z = -0.397593 angstrom
           Maximum rank =  0   Radius =  0.650 angstrom
                   Q00  =  -0.944617

H          x = -2.699933  y =  1.935677  z =  1.216407 angstrom
           Maximum rank =  0   Radius =  0.325 angstrom
                   Q00  =   0.081609

H          x = -0.999933  y =  1.818677  z =  1.679407 angstrom
           Maximum rank =  0   Radius =  0.325 angstrom
                   Q00  =   0.080646

H          x = -2.283719  y =  1.058231  z =  2.663987 angstrom
           Maximum rank =  0   Radius =  0.325 angstrom
                   Q00  =   0.047208

Total multipoles referred to origin at
           x =   0.000000,  y =    0.000000,  z =    0.000000 angstrom
                   Q00  =  -1.000000

Finished at 23:23:11 on 27 Apr 2020

  DMA results are available in the Python driver through the
	  variable('DMA DISTRIBUTED MULTIPOLES')
  and
	  variable('DMA TOTAL MULTIPOLES')
  commands.

    Psi4 stopped on: Monday, 27 April 2020 11:23PM
    Psi4 wall time for execution: 0:00:57.99

*** Psi4 exiting successfully. Buy a developer a beer!
