                               Psi4 1.3.2 release

  ==> Input File <==

--------------------------------------------------------------------------
import numpy as np
set {scf_type pk
basis cc-pvdz
d_convergence 10
gdma_switch   0
gdma_limit    0
gdma_origin   [ 0.0,  0.0,  0.0 ]
}
molecule test {
    units Angstrom
    0 1
    --
    0 1
    C                1.086994766164710    -3.682083978253111     1.836982533082513
    C                1.014994766164710    -4.796083978253111     0.798982533082514
    H                0.266994766164710    -2.980083978253111     1.706982533082513
    H                1.006994766164710    -4.121083978253111     2.825982533082513
    H                2.032994766164710    -3.148083978253111     1.764982533082513
    H                0.011994766164710    -5.224083978253112     0.823982533082514
    H                1.711994766164710    -5.568083978253111     1.105982533082513
    H                1.249894766164710    -4.482879978253111    -0.228987466917486
    C               -1.854005233835290     2.043916021746889    -2.547017466917487
    C               -0.300005233835290     0.840916021746889     0.647982533082513
    C               -0.235005233835290     1.049916021746889    -0.755017466917487
    C               -1.478005233835290     1.658916021746889    -1.156017466917487
    C               -2.221005233835290     1.792916021746889    -0.025017466917486
    C                1.882994766164710    -0.120083978253111     0.666982533082514
    C                0.747994766164710     0.261916021746889     1.365982533082513
    C                1.975994766164710     0.071916021746889    -0.724017466917486
    C                0.922994766164710     0.648916021746889    -1.442017466917487
    N               -1.521005233835290     1.308916021746889     1.056982533082514
    H                2.701994766164710    -0.579083978253111     1.201982533082513
    H                0.669994766164710     0.111916021746889     2.432982533082514
    H                2.875994766164710    -0.228083978253111    -1.245017466917486
    H                1.000994766164710     0.796916021746889    -2.509017466917487
    H               -1.875005233835290     1.303916021746889     2.007982533082513
    H               -3.223005233835290     2.207916021746889     0.020982533082514
    H               -1.846005233835290     1.156916021746889    -3.170017466917487
    H               -1.046005233835290     2.683916021746889    -2.895017466917487
    H               -2.789905233835290     2.609190021746889    -2.667687466917486

}
e, wfn = energy('scf', return_wfn=True)
gdma(wfn)
dmavals = variable('DMA DISTRIBUTED MULTIPOLES')
charges = np.array(dmavals)
print(charges)
np.save('SSI-095ILE-120TRP-2-dimer.npy', np.array(charges))--------------------------------------------------------------------------

*** tstart() called on ds3
*** at Mon Apr 27 16:20:23 2020

   => Loading Basis Set <=

    Name: CC-PVDZ
    Role: ORBITAL
    Keyword: BASIS
    atoms 1-2, 9-17  entry C          line   138 file /theoryfs2/ds/metcalf/miniconda2/envs/tf2gpu/share/psi4/basis/cc-pvdz.gbs
    atoms 3-8, 19-27 entry H          line    22 file /theoryfs2/ds/metcalf/miniconda2/envs/tf2gpu/share/psi4/basis/cc-pvdz.gbs
    atoms 18         entry N          line   168 file /theoryfs2/ds/metcalf/miniconda2/envs/tf2gpu/share/psi4/basis/cc-pvdz.gbs

         ---------------------------------------------------------
                                   SCF
               by Justin Turney, Rob Parrish, Andy Simmonett
                          and Daniel G. A. Smith
                              RHF Reference
                        1 Threads,    500 MiB Core
         ---------------------------------------------------------

  ==> Geometry <==

    Molecular point group: c1
    Full point group: C1

    Geometry (in Angstrom), charge = 0, multiplicity = 1:

       Center              X                  Y                   Z               Mass
    ------------   -----------------  -----------------  -----------------  -----------------
         C            1.086994766165    -3.682083978253     1.836982533083    12.000000000000
         C            1.014994766165    -4.796083978253     0.798982533083    12.000000000000
         H            0.266994766165    -2.980083978253     1.706982533083     1.007825032230
         H            1.006994766165    -4.121083978253     2.825982533083     1.007825032230
         H            2.032994766165    -3.148083978253     1.764982533083     1.007825032230
         H            0.011994766165    -5.224083978253     0.823982533083     1.007825032230
         H            1.711994766165    -5.568083978253     1.105982533083     1.007825032230
         H            1.249894766165    -4.482879978253    -0.228987466917     1.007825032230
         C           -1.854005233835     2.043916021747    -2.547017466917    12.000000000000
         C           -0.300005233835     0.840916021747     0.647982533083    12.000000000000
         C           -0.235005233835     1.049916021747    -0.755017466917    12.000000000000
         C           -1.478005233835     1.658916021747    -1.156017466917    12.000000000000
         C           -2.221005233835     1.792916021747    -0.025017466917    12.000000000000
         C            1.882994766165    -0.120083978253     0.666982533083    12.000000000000
         C            0.747994766165     0.261916021747     1.365982533083    12.000000000000
         C            1.975994766165     0.071916021747    -0.724017466917    12.000000000000
         C            0.922994766165     0.648916021747    -1.442017466917    12.000000000000
         N           -1.521005233835     1.308916021747     1.056982533083    14.003074004430
         H            2.701994766165    -0.579083978253     1.201982533083     1.007825032230
         H            0.669994766165     0.111916021747     2.432982533083     1.007825032230
         H            2.875994766165    -0.228083978253    -1.245017466917     1.007825032230
         H            1.000994766165     0.796916021747    -2.509017466917     1.007825032230
         H           -1.875005233835     1.303916021747     2.007982533083     1.007825032230
         H           -3.223005233835     2.207916021747     0.020982533083     1.007825032230
         H           -1.846005233835     1.156916021747    -3.170017466917     1.007825032230
         H           -1.046005233835     2.683916021747    -2.895017466917     1.007825032230
         H           -2.789905233835     2.609190021747    -2.667687466917     1.007825032230

  Running in c1 symmetry.

  Rotational constants: A =      0.04554  B =      0.01436  C =      0.01370 [cm^-1]
  Rotational constants: A =   1365.31250  B =    430.49219  C =    410.74437 [MHz]
  Nuclear repulsion =  643.836784300582508

  Charge       = 0
  Multiplicity = 1
  Electrons    = 88
  Nalpha       = 44
  Nbeta        = 44

  ==> Algorithm <==

  SCF Algorithm Type is PK.
  DIIS enabled.
  MOM disabled.
  Fractional occupation disabled.
  Guess Type is SAD.
  Energy threshold   = 1.00e-06
  Density threshold  = 1.00e-10
  Integral threshold = 0.00e+00

  ==> Primary Basis <==

  Basis Set: CC-PVDZ
    Blend: CC-PVDZ
    Number of shells: 117
    Number of basis function: 243
    Number of Cartesian functions: 255
    Spherical Harmonics?: true
    Max angular momentum: 2

  ==> Pre-Iterations <==

   -------------------------------------------------------
    Irrep   Nso     Nmo     Nalpha   Nbeta   Ndocc  Nsocc
   -------------------------------------------------------
     A        243     243       0       0       0       0
   -------------------------------------------------------
    Total     243     243      44      44      44       0
   -------------------------------------------------------

  ==> Integral Setup <==

  Using integral reordering PK algorithm.
  Sizing the integral batches needed.
  Building batch lookup table.
   Calculation information:
      Number of atoms:                  27
      Number of AO shells:             117
      Number of primitives:            339
      Number of atomic orbitals:       255
      Number of basis functions:       243

      Integral cutoff                 1.00e-12
      Number of threads:                 1

	Batch   1 pq = [       0,    9405] index = [             0,44231715] size =     44231715
	Batch   2 pq = [    9405,   13301] index = [      44231715,88464951] size =     44233236
	Batch   3 pq = [   13301,   16290] index = [      88464951,132690195] size =     44225244
	Batch   4 pq = [   16290,   18810] index = [     132690195,176917455] size =     44227260
	Batch   5 pq = [   18810,   21030] index = [     176917455,221140965] size =     44223510
	Batch   6 pq = [   21030,   23037] index = [     221140965,265363203] size =     44222238
	Batch   7 pq = [   23037,   24883] index = [     265363203,309594286] size =     44231083
	Batch   8 pq = [   24883,   26601] index = [     309594286,353819901] size =     44225615
	Batch   9 pq = [   26601,   28214] index = [     353819901,398029005] size =     44209104
	Batch  10 pq = [   28214,   29646] index = [     398029005,439457481] size =     41428476
  Task number: 40
  Buffer size: 11059200
  Buffer per thread: 2
  We computed 21104715 shell quartets total.
  Whereas there are 23829156 unique shell quartets.

  ==> DiskJK: Disk-Based J/K Matrices <==

    J tasked:                  Yes
    K tasked:                  Yes
    wK tasked:                  No
    Memory [MiB]:              375
    Schwarz Cutoff:          1E-12

    OpenMP threads:              1

  Minimum eigenvalue in the overlap matrix is 2.4856980286E-04.
  Using Symmetric Orthogonalization.

  SCF Guess: Superposition of Atomic Densities via on-the-fly atomic UHF.

  ==> Iterations <==

                        Total Energy        Delta E     RMS |[F,P]|

   @RHF iter SAD:  -478.99676983457164   -4.78997e+02   0.00000e+00
   @RHF iter   1:  -479.48912028237044   -4.92350e-01   2.60589e-03 DIIS
   @RHF iter   2:  -479.72144589348989   -2.32326e-01   1.15533e-03 DIIS
   @RHF iter   3:  -479.76310304338165   -4.16571e-02   2.99323e-04 DIIS
   @RHF iter   4:  -479.76684117669413   -3.73813e-03   1.38694e-04 DIIS
   @RHF iter   5:  -479.76748160540734   -6.40429e-04   1.99960e-05 DIIS
   @RHF iter   6:  -479.76751109018682   -2.94848e-05   9.14083e-06 DIIS
   @RHF iter   7:  -479.76751716866158   -6.07847e-06   3.88952e-06 DIIS
   @RHF iter   8:  -479.76751896727325   -1.79861e-06   1.54099e-06 DIIS
   @RHF iter   9:  -479.76751932522461   -3.57951e-07   6.86146e-07 DIIS
   @RHF iter  10:  -479.76751939740484   -7.21802e-08   3.18356e-07 DIIS
   @RHF iter  11:  -479.76751941470729   -1.73025e-08   1.17758e-07 DIIS
   @RHF iter  12:  -479.76751941705362   -2.34633e-09   3.89159e-08 DIIS
   @RHF iter  13:  -479.76751941721290   -1.59275e-10   1.12694e-08 DIIS
   @RHF iter  14:  -479.76751941722762   -1.47224e-11   5.08580e-09 DIIS
   @RHF iter  15:  -479.76751941722557    2.04636e-12   2.36684e-09 DIIS
   @RHF iter  16:  -479.76751941723069   -5.11591e-12   9.90242e-10 DIIS
   @RHF iter  17:  -479.76751941723018    5.11591e-13   4.21456e-10 DIIS
   @RHF iter  18:  -479.76751941722483    5.34328e-12   1.61920e-10 DIIS
   @RHF iter  19:  -479.76751941722722   -2.38742e-12   5.82373e-11 DIIS
  Energy and wave function converged.

  ==> Post-Iterations <==

    Orbital Energies [Eh]
    ---------------------

    Doubly Occupied:

       1A    -15.599846     2A    -11.265151     3A    -11.262637
       4A    -11.232674     5A    -11.231427     6A    -11.230182
       7A    -11.225412     8A    -11.222987     9A    -11.221463
      10A    -11.218109    11A    -11.211123    12A    -11.208703
      13A     -1.293526    14A     -1.125728    15A     -1.073276
      16A     -1.013772    17A     -0.995485    18A     -0.986667
      19A     -0.932812    20A     -0.838907    21A     -0.832043
      22A     -0.802477    23A     -0.751393    24A     -0.718532
      25A     -0.662419    26A     -0.641264    27A     -0.602381
      28A     -0.593437    29A     -0.592548    30A     -0.591302
      31A     -0.589447    32A     -0.570050    33A     -0.551857
      34A     -0.537578    35A     -0.525688    36A     -0.497095
      37A     -0.494526    38A     -0.479964    39A     -0.478611
      40A     -0.472694    41A     -0.459213    42A     -0.370112
      43A     -0.294151    44A     -0.275307

    Virtual:

      45A      0.124859    46A      0.166746    47A      0.178423
      48A      0.185495    49A      0.191846    50A      0.207229
      51A      0.224307    52A      0.227763    53A      0.233606
      54A      0.250619    55A      0.253105    56A      0.265582
      57A      0.274572    58A      0.281694    59A      0.284371
      60A      0.286600    61A      0.298204    62A      0.330712
      63A      0.372550    64A      0.383733    65A      0.398428
      66A      0.406819    67A      0.424415    68A      0.442080
      69A      0.471003    70A      0.479674    71A      0.498634
      72A      0.506399    73A      0.585764    74A      0.595891
      75A      0.605995    76A      0.614314    77A      0.615361
      78A      0.621423    79A      0.636770    80A      0.659664
      81A      0.662003    82A      0.685225    83A      0.702447
      84A      0.712721    85A      0.719089    86A      0.732748
      87A      0.737092    88A      0.739473    89A      0.745797
      90A      0.759908    91A      0.778981    92A      0.784959
      93A      0.790764    94A      0.801363    95A      0.821664
      96A      0.843081    97A      0.854030    98A      0.869065
      99A      0.882900   100A      0.884033   101A      0.888153
     102A      0.892285   103A      0.896040   104A      0.901932
     105A      0.904136   106A      0.911048   107A      0.917469
     108A      0.932568   109A      0.947996   110A      0.950286
     111A      0.958909   112A      0.963299   113A      0.973885
     114A      0.992038   115A      1.000180   116A      1.017225
     117A      1.061443   118A      1.071116   119A      1.085238
     120A      1.120385   121A      1.125014   122A      1.132719
     123A      1.141014   124A      1.144895   125A      1.158869
     126A      1.171481   127A      1.208659   128A      1.219644
     129A      1.227060   130A      1.234166   131A      1.246549
     132A      1.248082   133A      1.272085   134A      1.294080
     135A      1.300769   136A      1.325295   137A      1.329342
     138A      1.360945   139A      1.371515   140A      1.392890
     141A      1.442848   142A      1.471972   143A      1.495400
     144A      1.523015   145A      1.567230   146A      1.579450
     147A      1.587354   148A      1.591733   149A      1.634760
     150A      1.643083   151A      1.655453   152A      1.687569
     153A      1.688854   154A      1.692786   155A      1.703487
     156A      1.743013   157A      1.770811   158A      1.776969
     159A      1.782354   160A      1.810915   161A      1.818837
     162A      1.833657   163A      1.869449   164A      1.873463
     165A      1.880733   166A      1.884221   167A      1.893515
     168A      1.903387   169A      1.915418   170A      1.921407
     171A      1.934504   172A      1.941825   173A      1.947889
     174A      1.959580   175A      1.961840   176A      1.969127
     177A      1.977282   178A      1.979263   179A      1.984733
     180A      1.991644   181A      2.004588   182A      2.033419
     183A      2.037232   184A      2.073355   185A      2.082402
     186A      2.096969   187A      2.103857   188A      2.106784
     189A      2.111562   190A      2.134095   191A      2.139808
     192A      2.145365   193A      2.157500   194A      2.166204
     195A      2.173865   196A      2.217371   197A      2.223800
     198A      2.294557   199A      2.299063   200A      2.312574
     201A      2.318719   202A      2.325234   203A      2.328410
     204A      2.351226   205A      2.391843   206A      2.444161
     207A      2.445903   208A      2.453683   209A      2.463522
     210A      2.476908   211A      2.532778   212A      2.570469
     213A      2.577397   214A      2.595993   215A      2.599628
     216A      2.644072   217A      2.656730   218A      2.671784
     219A      2.704021   220A      2.767525   221A      2.779600
     222A      2.781330   223A      2.790257   224A      2.792989
     225A      2.803495   226A      2.805911   227A      2.861310
     228A      2.864336   229A      2.873509   230A      2.878108
     231A      2.901886   232A      2.955898   233A      2.973257
     234A      2.986557   235A      3.039662   236A      3.049101
     237A      3.078924   238A      3.121027   239A      3.202656
     240A      3.300411   241A      3.378107   242A      3.738187
     243A      3.937200

    Final Occupation by Irrep:
              A
    DOCC [    44 ]

  @RHF Final Energy:  -479.76751941722722

   => Energetics <=

    Nuclear Repulsion Energy =            643.8367843005825080
    One-Electron Energy =               -1925.6606460721270651
    Two-Electron Energy =                 802.0563423543175077
    Total Energy =                       -479.7675194172271631

Computation Completed

Properties will be evaluated at   0.000000,   0.000000,   0.000000 [a0]

Properties computed using the SCF density matrix

  Nuclear Dipole Moment: [e a0]
     X:     2.5824      Y:   -14.4978      Z:     1.0995

  Electronic Dipole Moment: [e a0]
     X:    -3.1866      Y:    14.7158      Z:    -0.6296

  Dipole Moment: [e a0]
     X:    -0.6042      Y:     0.2180      Z:     0.4698     Total:     0.7958

  Dipole Moment: [D]
     X:    -1.5357      Y:     0.5540      Z:     1.1942     Total:     2.0227

*** tstop() called on ds3 at Mon Apr 27 16:24:47 2020
Module time:
	user time   =     183.13 seconds =       3.05 minutes
	system time =      89.90 seconds =       1.50 minutes
	total time  =        264 seconds =       4.40 minutes
Total time:
	user time   =     183.13 seconds =       3.05 minutes
	system time =      89.90 seconds =       1.50 minutes
	total time  =        264 seconds =       4.40 minutes
                                     G D M A

                                 by Anthony Stone

                           version 2.2.06, 22 June 2011

               Distributed Multipoles from Gaussian wavefunctions

Starting at 16:24:47 on 27 Apr 2020

Using SCF density matrix from file ./SSI/SSI-095ILE-120TRP-2-dimer.test.26479.fchk

                         Distributed Multipole Analysis

Standard DMA

Positions and radii in angstrom
Multipole moments in atomic units, ea_0^k for rank k

C          x =  1.086995  y = -3.682084  z =  1.836983 angstrom
           Maximum rank =  0   Radius =  0.650 angstrom
                   Q00  =  -0.228710

C          x =  1.014995  y = -4.796084  z =  0.798983 angstrom
           Maximum rank =  0   Radius =  0.650 angstrom
                   Q00  =  -0.236018

H          x =  0.266995  y = -2.980084  z =  1.706983 angstrom
           Maximum rank =  0   Radius =  0.325 angstrom
                   Q00  =   0.085563

H          x =  1.006995  y = -4.121084  z =  2.825983 angstrom
           Maximum rank =  0   Radius =  0.325 angstrom
                   Q00  =   0.071358

H          x =  2.032995  y = -3.148084  z =  1.764983 angstrom
           Maximum rank =  0   Radius =  0.325 angstrom
                   Q00  =   0.077370

H          x =  0.011995  y = -5.224084  z =  0.823983 angstrom
           Maximum rank =  0   Radius =  0.325 angstrom
                   Q00  =   0.075036

H          x =  1.711995  y = -5.568084  z =  1.105983 angstrom
           Maximum rank =  0   Radius =  0.325 angstrom
                   Q00  =   0.071849

H          x =  1.249895  y = -4.482880  z = -0.228987 angstrom
           Maximum rank =  0   Radius =  0.325 angstrom
                   Q00  =   0.084530

C          x = -1.854005  y =  2.043916  z = -2.547017 angstrom
           Maximum rank =  0   Radius =  0.650 angstrom
                   Q00  =  -0.202555

C          x = -0.300005  y =  0.840916  z =  0.647983 angstrom
           Maximum rank =  0   Radius =  0.650 angstrom
                   Q00  =   0.295630

C          x = -0.235005  y =  1.049916  z = -0.755017 angstrom
           Maximum rank =  0   Radius =  0.650 angstrom
                   Q00  =  -0.062683

C          x = -1.478005  y =  1.658916  z = -1.156017 angstrom
           Maximum rank =  0   Radius =  0.650 angstrom
                   Q00  =  -0.117648

C          x = -2.221005  y =  1.792916  z = -0.025017 angstrom
           Maximum rank =  0   Radius =  0.650 angstrom
                   Q00  =   0.070623

C          x =  1.882995  y = -0.120084  z =  0.666983 angstrom
           Maximum rank =  0   Radius =  0.650 angstrom
                   Q00  =  -0.066374

C          x =  0.747995  y =  0.261916  z =  1.365983 angstrom
           Maximum rank =  0   Radius =  0.650 angstrom
                   Q00  =  -0.122426

C          x =  1.975995  y =  0.071916  z = -0.724017 angstrom
           Maximum rank =  0   Radius =  0.650 angstrom
                   Q00  =  -0.091579

C          x =  0.922995  y =  0.648916  z = -1.442017 angstrom
           Maximum rank =  0   Radius =  0.650 angstrom
                   Q00  =  -0.097631

N          x = -1.521005  y =  1.308916  z =  1.056983 angstrom
           Maximum rank =  0   Radius =  0.650 angstrom
                   Q00  =  -0.500209

H          x =  2.701995  y = -0.579084  z =  1.201983 angstrom
           Maximum rank =  0   Radius =  0.325 angstrom
                   Q00  =   0.067167

H          x =  0.669995  y =  0.111916  z =  2.432983 angstrom
           Maximum rank =  0   Radius =  0.325 angstrom
                   Q00  =   0.074020

H          x =  2.875995  y = -0.228084  z = -1.245017 angstrom
           Maximum rank =  0   Radius =  0.325 angstrom
                   Q00  =   0.061609

H          x =  1.000995  y =  0.796916  z = -2.509017 angstrom
           Maximum rank =  0   Radius =  0.325 angstrom
                   Q00  =   0.071622

H          x = -1.875005  y =  1.303916  z =  2.007983 angstrom
           Maximum rank =  0   Radius =  0.325 angstrom
                   Q00  =   0.215378

H          x = -3.223005  y =  2.207916  z =  0.020983 angstrom
           Maximum rank =  0   Radius =  0.325 angstrom
                   Q00  =   0.102837

H          x = -1.846005  y =  1.156916  z = -3.170017 angstrom
           Maximum rank =  0   Radius =  0.325 angstrom
                   Q00  =   0.099952

H          x = -1.046005  y =  2.683916  z = -2.895017 angstrom
           Maximum rank =  0   Radius =  0.325 angstrom
                   Q00  =   0.094483

H          x = -2.789905  y =  2.609190  z = -2.667687 angstrom
           Maximum rank =  0   Radius =  0.325 angstrom
                   Q00  =   0.106807

Total multipoles referred to origin at
           x =   0.000000,  y =    0.000000,  z =    0.000000 angstrom
                   Q00  =  -0.000000

Finished at 16:24:47 on 27 Apr 2020

  DMA results are available in the Python driver through the
	  variable('DMA DISTRIBUTED MULTIPOLES')
  and
	  variable('DMA TOTAL MULTIPOLES')
  commands.

    Psi4 stopped on: Monday, 27 April 2020 04:24PM
    Psi4 wall time for execution: 0:04:24.50

*** Psi4 exiting successfully. Buy a developer a beer!
