                               Psi4 1.3.2 release

  ==> Input File <==

--------------------------------------------------------------------------
import numpy as np
set {scf_type pk
basis cc-pvdz
d_convergence 10
gdma_switch   0
gdma_limit    0
gdma_origin   [ 0.0,  0.0,  0.0 ]
}
molecule test {
    units Angstrom
    0 1
    --
    0 1
    C                3.353258812070185    -1.582444128288712    -0.140676664871848
    C                4.289258812070184    -2.765444128288712     0.101323335128152
    H                2.335258812070184    -1.844444128288712     0.148323335128152
    H                3.681258812070184    -0.744444128288712     0.461323335128152
    H                3.376258812070184    -1.270444128288712    -1.181676664871848
    H                5.306258812070184    -2.492444128288712    -0.186676664871848
    H                3.960598812070184    -3.638782128288713    -0.481136664871848
    H                4.252188812070185    -3.012076128288713     1.172673335128152
    C               -2.066741187929816     2.501555871711288     1.799323335128152
    C               -0.027741187929816     0.267555871711288    -0.412676664871848
    C               -1.250741187929816     0.648555871711288     0.194323335128152
    C               -1.023741187929815     1.824555871711288     0.960323335128151
    C                0.299258812070184     2.113555871711288     0.825323335128152
    C                0.083258812070184    -0.845444128288712    -1.235676664871848
    C               -1.062741187929815    -1.601444128288712    -1.454676664871848
    C               -2.384741187929815    -0.141444128288712    -0.023676664871848
    C               -2.279741187929816    -1.263444128288712    -0.843676664871848
    N                0.898258812070185     1.189555871711288    -0.009676664871848
    H                1.906258812070184     1.111555871711288    -0.102676664871848
    H                1.023258812070184    -1.113444128288712    -1.689676664871848
    H                0.826258812070184     2.920555871711288     1.313323335128151
    H               -1.009741187929815    -2.482444128288712    -2.075676664871848
    H               -3.311741187929816     0.106555871711288     0.464323335128152
    H               -2.103741187929816     1.908555871711288     2.695323335128152
    H               -3.022741187929816     2.402555871711288     1.284323335128151
    H               -3.147741187929816    -1.886444128288712    -1.006676664871848
    H               -1.891751187929815     3.555080871711288     2.062883335128152

}
e, wfn = energy('scf', return_wfn=True)
gdma(wfn)
dmavals = variable('DMA DISTRIBUTED MULTIPOLES')
charges = np.array(dmavals)
print(charges)
np.save('SSI-008ILE-035TRP-1-dimer.npy', np.array(charges))--------------------------------------------------------------------------

*** tstart() called on ds3
*** at Mon Apr 27 23:26:26 2020

   => Loading Basis Set <=

    Name: CC-PVDZ
    Role: ORBITAL
    Keyword: BASIS
    atoms 1-2, 9-17  entry C          line   138 file /theoryfs2/ds/metcalf/miniconda2/envs/tf2gpu/share/psi4/basis/cc-pvdz.gbs
    atoms 3-8, 19-27 entry H          line    22 file /theoryfs2/ds/metcalf/miniconda2/envs/tf2gpu/share/psi4/basis/cc-pvdz.gbs
    atoms 18         entry N          line   168 file /theoryfs2/ds/metcalf/miniconda2/envs/tf2gpu/share/psi4/basis/cc-pvdz.gbs

         ---------------------------------------------------------
                                   SCF
               by Justin Turney, Rob Parrish, Andy Simmonett
                          and Daniel G. A. Smith
                              RHF Reference
                        1 Threads,    500 MiB Core
         ---------------------------------------------------------

  ==> Geometry <==

    Molecular point group: c1
    Full point group: C1

    Geometry (in Angstrom), charge = 0, multiplicity = 1:

       Center              X                  Y                   Z               Mass
    ------------   -----------------  -----------------  -----------------  -----------------
         C            3.353258812070    -1.582444128289    -0.140676664872    12.000000000000
         C            4.289258812070    -2.765444128289     0.101323335128    12.000000000000
         H            2.335258812070    -1.844444128289     0.148323335128     1.007825032230
         H            3.681258812070    -0.744444128289     0.461323335128     1.007825032230
         H            3.376258812070    -1.270444128289    -1.181676664872     1.007825032230
         H            5.306258812070    -2.492444128289    -0.186676664872     1.007825032230
         H            3.960598812070    -3.638782128289    -0.481136664872     1.007825032230
         H            4.252188812070    -3.012076128289     1.172673335128     1.007825032230
         C           -2.066741187930     2.501555871711     1.799323335128    12.000000000000
         C           -0.027741187930     0.267555871711    -0.412676664872    12.000000000000
         C           -1.250741187930     0.648555871711     0.194323335128    12.000000000000
         C           -1.023741187930     1.824555871711     0.960323335128    12.000000000000
         C            0.299258812070     2.113555871711     0.825323335128    12.000000000000
         C            0.083258812070    -0.845444128289    -1.235676664872    12.000000000000
         C           -1.062741187930    -1.601444128289    -1.454676664872    12.000000000000
         C           -2.384741187930    -0.141444128289    -0.023676664872    12.000000000000
         C           -2.279741187930    -1.263444128289    -0.843676664872    12.000000000000
         N            0.898258812070     1.189555871711    -0.009676664872    14.003074004430
         H            1.906258812070     1.111555871711    -0.102676664872     1.007825032230
         H            1.023258812070    -1.113444128289    -1.689676664872     1.007825032230
         H            0.826258812070     2.920555871711     1.313323335128     1.007825032230
         H           -1.009741187930    -2.482444128289    -2.075676664872     1.007825032230
         H           -3.311741187930     0.106555871711     0.464323335128     1.007825032230
         H           -2.103741187930     1.908555871711     2.695323335128     1.007825032230
         H           -3.022741187930     2.402555871711     1.284323335128     1.007825032230
         H           -3.147741187930    -1.886444128289    -1.006676664872     1.007825032230
         H           -1.891751187930     3.555080871711     2.062883335128     1.007825032230

  Running in c1 symmetry.

  Rotational constants: A =      0.04179  B =      0.01743  C =      0.01317 [cm^-1]
  Rotational constants: A =   1252.82191  B =    522.57563  C =    394.87975 [MHz]
  Nuclear repulsion =  651.801048561844368

  Charge       = 0
  Multiplicity = 1
  Electrons    = 88
  Nalpha       = 44
  Nbeta        = 44

  ==> Algorithm <==

  SCF Algorithm Type is PK.
  DIIS enabled.
  MOM disabled.
  Fractional occupation disabled.
  Guess Type is SAD.
  Energy threshold   = 1.00e-06
  Density threshold  = 1.00e-10
  Integral threshold = 0.00e+00

  ==> Primary Basis <==

  Basis Set: CC-PVDZ
    Blend: CC-PVDZ
    Number of shells: 117
    Number of basis function: 243
    Number of Cartesian functions: 255
    Spherical Harmonics?: true
    Max angular momentum: 2

  ==> Pre-Iterations <==

   -------------------------------------------------------
    Irrep   Nso     Nmo     Nalpha   Nbeta   Ndocc  Nsocc
   -------------------------------------------------------
     A        243     243       0       0       0       0
   -------------------------------------------------------
    Total     243     243      44      44      44       0
   -------------------------------------------------------

  ==> Integral Setup <==

  Using integral reordering PK algorithm.
  Sizing the integral batches needed.
  Building batch lookup table.
   Calculation information:
      Number of atoms:                  27
      Number of AO shells:             117
      Number of primitives:            339
      Number of atomic orbitals:       255
      Number of basis functions:       243

      Integral cutoff                 1.00e-12
      Number of threads:                 1

	Batch   1 pq = [       0,    9405] index = [             0,44231715] size =     44231715
	Batch   2 pq = [    9405,   13301] index = [      44231715,88464951] size =     44233236
	Batch   3 pq = [   13301,   16290] index = [      88464951,132690195] size =     44225244
	Batch   4 pq = [   16290,   18810] index = [     132690195,176917455] size =     44227260
	Batch   5 pq = [   18810,   21030] index = [     176917455,221140965] size =     44223510
	Batch   6 pq = [   21030,   23037] index = [     221140965,265363203] size =     44222238
	Batch   7 pq = [   23037,   24883] index = [     265363203,309594286] size =     44231083
	Batch   8 pq = [   24883,   26601] index = [     309594286,353819901] size =     44225615
	Batch   9 pq = [   26601,   28214] index = [     353819901,398029005] size =     44209104
	Batch  10 pq = [   28214,   29646] index = [     398029005,439457481] size =     41428476
  Task number: 40
  Buffer size: 11059200
  Buffer per thread: 2
  We computed 21937496 shell quartets total.
  Whereas there are 23829156 unique shell quartets.

  ==> DiskJK: Disk-Based J/K Matrices <==

    J tasked:                  Yes
    K tasked:                  Yes
    wK tasked:                  No
    Memory [MiB]:              375
    Schwarz Cutoff:          1E-12

    OpenMP threads:              1

  Minimum eigenvalue in the overlap matrix is 2.4113901829E-04.
  Using Symmetric Orthogonalization.

  SCF Guess: Superposition of Atomic Densities via on-the-fly atomic UHF.

  ==> Iterations <==

                        Total Energy        Delta E     RMS |[F,P]|

   @RHF iter SAD:  -479.09765743882355   -4.79098e+02   0.00000e+00
   @RHF iter   1:  -479.48603249278153   -3.88375e-01   2.60240e-03 DIIS
   @RHF iter   2:  -479.71773505883698   -2.31703e-01   1.15867e-03 DIIS
   @RHF iter   3:  -479.75956526942088   -4.18302e-02   3.08610e-04 DIIS
   @RHF iter   4:  -479.76347666327433   -3.91139e-03   1.41378e-04 DIIS
   @RHF iter   5:  -479.76414700194516   -6.70339e-04   2.02122e-05 DIIS
   @RHF iter   6:  -479.76417697488989   -2.99729e-05   9.33633e-06 DIIS
   @RHF iter   7:  -479.76418312795863   -6.15307e-06   3.85427e-06 DIIS
   @RHF iter   8:  -479.76418480905602   -1.68110e-06   1.51149e-06 DIIS
   @RHF iter   9:  -479.76418513848773   -3.29432e-07   6.72211e-07 DIIS
   @RHF iter  10:  -479.76418520463943   -6.61517e-08   3.06726e-07 DIIS
   @RHF iter  11:  -479.76418522120684   -1.65674e-08   1.16784e-07 DIIS
   @RHF iter  12:  -479.76418522360012   -2.39328e-09   3.87723e-08 DIIS
   @RHF iter  13:  -479.76418522377594   -1.75817e-10   9.98648e-09 DIIS
   @RHF iter  14:  -479.76418522378685   -1.09139e-11   3.84087e-09 DIIS
   @RHF iter  15:  -479.76418522379504   -8.18545e-12   1.88909e-09 DIIS
   @RHF iter  16:  -479.76418522379936   -4.32010e-12   9.40703e-10 DIIS
   @RHF iter  17:  -479.76418522379862    7.38964e-13   3.35265e-10 DIIS
   @RHF iter  18:  -479.76418522379419    4.43379e-12   1.60167e-10 DIIS
   @RHF iter  19:  -479.76418522379430   -1.13687e-13   5.33552e-11 DIIS
  Energy and wave function converged.

  ==> Post-Iterations <==

    Orbital Energies [Eh]
    ---------------------

    Doubly Occupied:

       1A    -15.597261     2A    -11.261536     3A    -11.260538
       4A    -11.228605     5A    -11.228415     6A    -11.227318
       7A    -11.225445     8A    -11.224699     9A    -11.222611
      10A    -11.219976    11A    -11.217036    12A    -11.215980
      13A     -1.292339    14A     -1.126123    15A     -1.074538
      16A     -1.025885    17A     -0.995023    18A     -0.984690
      19A     -0.933304    20A     -0.845500    21A     -0.837500
      22A     -0.802526    23A     -0.750943    24A     -0.716351
      25A     -0.660315    26A     -0.640837    27A     -0.608214
      28A     -0.606456    29A     -0.602015    30A     -0.593204
      31A     -0.586840    32A     -0.569059    33A     -0.554493
      34A     -0.533046    35A     -0.525276    36A     -0.505728
      37A     -0.495169    38A     -0.493807    39A     -0.490756
      40A     -0.471979    41A     -0.458545    42A     -0.371326
      43A     -0.293331    44A     -0.273034

    Virtual:

      45A      0.125725    46A      0.167024    47A      0.174543
      48A      0.189179    49A      0.191621    50A      0.207523
      51A      0.224223    52A      0.228163    53A      0.231886
      54A      0.250357    55A      0.259003    56A      0.264522
      57A      0.272423    58A      0.279363    59A      0.287550
      60A      0.292893    61A      0.303407    62A      0.325673
      63A      0.370226    64A      0.383724    65A      0.386168
      66A      0.405604    67A      0.435609    68A      0.445981
      69A      0.473815    70A      0.483276    71A      0.504641
      72A      0.510576    73A      0.591693    74A      0.593846
      75A      0.598149    76A      0.617156    77A      0.625554
      78A      0.631669    79A      0.649075    80A      0.672230
      81A      0.679499    82A      0.689852    83A      0.703072
      84A      0.711456    85A      0.719961    86A      0.733209
      87A      0.737330    88A      0.743062    89A      0.754304
      90A      0.763531    91A      0.775020    92A      0.787159
      93A      0.790061    94A      0.802211    95A      0.810239
      96A      0.838925    97A      0.857334    98A      0.866209
      99A      0.875231   100A      0.885733   101A      0.887324
     102A      0.891168   103A      0.895462   104A      0.897107
     105A      0.905821   106A      0.909683   107A      0.922986
     108A      0.929181   109A      0.940466   110A      0.949989
     111A      0.963253   112A      0.967663   113A      0.979429
     114A      1.003799   115A      1.014009   116A      1.032991
     117A      1.054557   118A      1.091133   119A      1.104428
     120A      1.120598   121A      1.131817   122A      1.137579
     123A      1.144227   124A      1.154004   125A      1.176104
     126A      1.188865   127A      1.206803   128A      1.215096
     129A      1.225984   130A      1.231455   131A      1.241090
     132A      1.268273   133A      1.274325   134A      1.296020
     135A      1.313234   136A      1.327340   137A      1.332658
     138A      1.362810   139A      1.383222   140A      1.415056
     141A      1.442159   142A      1.472005   143A      1.480596
     144A      1.538635   145A      1.556493   146A      1.568368
     147A      1.587599   148A      1.597945   149A      1.634107
     150A      1.645085   151A      1.668838   152A      1.674144
     153A      1.691188   154A      1.701470   155A      1.709456
     156A      1.742167   157A      1.760724   158A      1.767172
     159A      1.795033   160A      1.804667   161A      1.824148
     162A      1.832693   163A      1.855310   164A      1.868886
     165A      1.871193   166A      1.884767   167A      1.900475
     168A      1.909753   169A      1.911746   170A      1.924247
     171A      1.936547   172A      1.939551   173A      1.943207
     174A      1.951791   175A      1.956624   176A      1.967935
     177A      1.971358   178A      1.977876   179A      1.987051
     180A      2.001891   181A      2.023351   182A      2.041955
     183A      2.061051   184A      2.073588   185A      2.091597
     186A      2.094908   187A      2.104652   188A      2.109214
     189A      2.114333   190A      2.129050   191A      2.144197
     192A      2.151129   193A      2.171643   194A      2.173160
     195A      2.182959   196A      2.229643   197A      2.247604
     198A      2.279949   199A      2.289415   200A      2.297711
     201A      2.313814   202A      2.320238   203A      2.343234
     204A      2.379243   205A      2.393022   206A      2.446586
     207A      2.451524   208A      2.460364   209A      2.465621
     210A      2.474689   211A      2.547524   212A      2.562340
     213A      2.572967   214A      2.582883   215A      2.604582
     216A      2.649905   217A      2.662499   218A      2.690006
     219A      2.733536   220A      2.757773   221A      2.771936
     222A      2.778980   223A      2.790506   224A      2.791396
     225A      2.810087   226A      2.835403   227A      2.837460
     228A      2.851503   229A      2.861851   230A      2.883765
     231A      2.925286   232A      2.954624   233A      2.964921
     234A      2.999559   235A      3.040014   236A      3.061230
     237A      3.084518   238A      3.134586   239A      3.212333
     240A      3.319191   241A      3.385379   242A      3.727579
     243A      3.958452

    Final Occupation by Irrep:
              A
    DOCC [    44 ]

  @RHF Final Energy:  -479.76418522379430

   => Energetics <=

    Nuclear Repulsion Energy =            651.8010485618443681
    One-Electron Energy =               -1941.4353194089089811
    Two-Electron Energy =                 809.8700856232703700
    Total Energy =                       -479.7641852237943567

Computation Completed

Properties will be evaluated at   0.000000,   0.000000,   0.000000 [a0]

Properties computed using the SCF density matrix

  Nuclear Dipole Moment: [e a0]
     X:    11.4159      Y:    -6.0784      Z:     2.6983

  Electronic Dipole Moment: [e a0]
     X:   -10.7004      Y:     6.3063      Z:    -2.4452

  Dipole Moment: [e a0]
     X:     0.7155      Y:     0.2280      Z:     0.2532     Total:     0.7925

  Dipole Moment: [D]
     X:     1.8186      Y:     0.5794      Z:     0.6435     Total:     2.0143

*** tstop() called on ds3 at Mon Apr 27 23:31:01 2020
Module time:
	user time   =     196.15 seconds =       3.27 minutes
	system time =      90.94 seconds =       1.52 minutes
	total time  =        275 seconds =       4.58 minutes
Total time:
	user time   =     196.15 seconds =       3.27 minutes
	system time =      90.94 seconds =       1.52 minutes
	total time  =        275 seconds =       4.58 minutes
                                     G D M A

                                 by Anthony Stone

                           version 2.2.06, 22 June 2011

               Distributed Multipoles from Gaussian wavefunctions

Starting at 23:31:1 on 27 Apr 2020

Using SCF density matrix from file ./SSI/SSI-008ILE-035TRP-1-dimer.test.2819.fchk

                         Distributed Multipole Analysis

Standard DMA

Positions and radii in angstrom
Multipole moments in atomic units, ea_0^k for rank k

C          x =  3.353259  y = -1.582444  z = -0.140677 angstrom
           Maximum rank =  0   Radius =  0.650 angstrom
                   Q00  =  -0.260153

C          x =  4.289259  y = -2.765444  z =  0.101323 angstrom
           Maximum rank =  0   Radius =  0.650 angstrom
                   Q00  =  -0.224190

H          x =  2.335259  y = -1.844444  z =  0.148323 angstrom
           Maximum rank =  0   Radius =  0.325 angstrom
                   Q00  =   0.096167

H          x =  3.681259  y = -0.744444  z =  0.461323 angstrom
           Maximum rank =  0   Radius =  0.325 angstrom
                   Q00  =   0.070524

H          x =  3.376259  y = -1.270444  z = -1.181677 angstrom
           Maximum rank =  0   Radius =  0.325 angstrom
                   Q00  =   0.073310

H          x =  5.306259  y = -2.492444  z = -0.186677 angstrom
           Maximum rank =  0   Radius =  0.325 angstrom
                   Q00  =   0.079999

H          x =  3.960599  y = -3.638782  z = -0.481137 angstrom
           Maximum rank =  0   Radius =  0.325 angstrom
                   Q00  =   0.082240

H          x =  4.252189  y = -3.012076  z =  1.172673 angstrom
           Maximum rank =  0   Radius =  0.325 angstrom
                   Q00  =   0.081130

C          x = -2.066741  y =  2.501556  z =  1.799323 angstrom
           Maximum rank =  0   Radius =  0.650 angstrom
                   Q00  =  -0.209520

C          x = -0.027741  y =  0.267556  z = -0.412677 angstrom
           Maximum rank =  0   Radius =  0.650 angstrom
                   Q00  =   0.299609

C          x = -1.250741  y =  0.648556  z =  0.194323 angstrom
           Maximum rank =  0   Radius =  0.650 angstrom
                   Q00  =  -0.057535

C          x = -1.023741  y =  1.824556  z =  0.960323 angstrom
           Maximum rank =  0   Radius =  0.650 angstrom
                   Q00  =  -0.114066

C          x =  0.299259  y =  2.113556  z =  0.825323 angstrom
           Maximum rank =  0   Radius =  0.650 angstrom
                   Q00  =   0.067937

C          x =  0.083259  y = -0.845444  z = -1.235677 angstrom
           Maximum rank =  0   Radius =  0.650 angstrom
                   Q00  =  -0.123636

C          x = -1.062741  y = -1.601444  z = -1.454677 angstrom
           Maximum rank =  0   Radius =  0.650 angstrom
                   Q00  =  -0.077869

C          x = -2.384741  y = -0.141444  z = -0.023677 angstrom
           Maximum rank =  0   Radius =  0.650 angstrom
                   Q00  =  -0.105051

C          x = -2.279741  y = -1.263444  z = -0.843677 angstrom
           Maximum rank =  0   Radius =  0.650 angstrom
                   Q00  =  -0.077131

N          x =  0.898259  y =  1.189556  z = -0.009677 angstrom
           Maximum rank =  0   Radius =  0.650 angstrom
                   Q00  =  -0.502344

H          x =  1.906259  y =  1.111556  z = -0.102677 angstrom
           Maximum rank =  0   Radius =  0.325 angstrom
                   Q00  =   0.216596

H          x =  1.023259  y = -1.113444  z = -1.689677 angstrom
           Maximum rank =  0   Radius =  0.325 angstrom
                   Q00  =   0.079366

H          x =  0.826259  y =  2.920556  z =  1.313323 angstrom
           Maximum rank =  0   Radius =  0.325 angstrom
                   Q00  =   0.100340

H          x = -1.009741  y = -2.482444  z = -2.075677 angstrom
           Maximum rank =  0   Radius =  0.325 angstrom
                   Q00  =   0.063451

H          x = -3.311741  y =  0.106556  z =  0.464323 angstrom
           Maximum rank =  0   Radius =  0.325 angstrom
                   Q00  =   0.069986

H          x = -2.103741  y =  1.908556  z =  2.695323 angstrom
           Maximum rank =  0   Radius =  0.325 angstrom
                   Q00  =   0.099812

H          x = -3.022741  y =  2.402556  z =  1.284323 angstrom
           Maximum rank =  0   Radius =  0.325 angstrom
                   Q00  =   0.102875

H          x = -3.147741  y = -1.886444  z = -1.006677 angstrom
           Maximum rank =  0   Radius =  0.325 angstrom
                   Q00  =   0.059486

H          x = -1.891751  y =  3.555081  z =  2.062883 angstrom
           Maximum rank =  0   Radius =  0.325 angstrom
                   Q00  =   0.108666

Total multipoles referred to origin at
           x =   0.000000,  y =    0.000000,  z =    0.000000 angstrom
                   Q00  =  -0.000000

Finished at 23:31:1 on 27 Apr 2020

  DMA results are available in the Python driver through the
	  variable('DMA DISTRIBUTED MULTIPOLES')
  and
	  variable('DMA TOTAL MULTIPOLES')
  commands.

    Psi4 stopped on: Monday, 27 April 2020 11:31PM
    Psi4 wall time for execution: 0:04:35.71

*** Psi4 exiting successfully. Buy a developer a beer!
