                               Psi4 1.3.2 release

  ==> Input File <==

--------------------------------------------------------------------------
import numpy as np
set {scf_type pk
basis cc-pvdz
d_convergence 10
gdma_switch   0
gdma_limit    0
gdma_origin   [ 0.0,  0.0,  0.0 ]
}
molecule test {
    units Angstrom
    0 1
    --
    0 1
    C               -0.618968255848946     2.675045020428880     0.018477156130266
    C               -1.314968255848946     3.510045020428881     1.080477156130266
    H               -1.097968255848946     2.824045020428880    -0.948522843869734
    H                0.427031744151054     2.966045020428880    -0.053522843869734
    H               -0.657968255848946     1.621045020428880     0.285477156130266
    H               -0.864968255848946     3.252045020428880     2.037477156130266
    H               -2.394168255848947     3.299905020428881     1.114669156130266
    H               -1.131438255848946     4.580425020428881     0.905545156130266
    C                0.250031744151054    -0.637954979571119    -1.180522843869734
    C                0.787031744151054    -1.629954979571119    -2.214522843869734
    C                1.278031744151054    -1.070954979571119     1.393477156130266
    S               -0.206968255848946    -1.378954979571120     0.400477156130266
    H                0.989031744151054     0.143045020428881    -1.011522843869734
    H               -0.636968255848946    -0.166954979571119    -1.602522843869734
    H                1.063031744151054    -1.080954979571120    -3.114522843869735
    H               -0.023968255848946    -2.292954979571120    -2.485522843869735
    H                1.500031744151054    -0.002954979571119     1.402477156130266
    H                1.102031744151054    -1.405954979571119     2.415477156130266
    H                2.124031744151054    -1.620954979571120     0.990477156130266
    H                1.629691744151054    -2.259604979571120    -1.892859843869734

}
e, wfn = energy('scf', return_wfn=True)
gdma(wfn)
dmavals = variable('DMA DISTRIBUTED MULTIPOLES')
charges = np.array(dmavals)
print(charges)
np.save('SSI-044VAL-174MET-1-dimer.npy', np.array(charges))--------------------------------------------------------------------------

*** tstart() called on ds3
*** at Tue Apr 28 13:56:53 2020

   => Loading Basis Set <=

    Name: CC-PVDZ
    Role: ORBITAL
    Keyword: BASIS
    atoms 1-2, 9-11  entry C          line   138 file /theoryfs2/ds/metcalf/miniconda2/envs/tf2gpu/share/psi4/basis/cc-pvdz.gbs
    atoms 3-8, 13-20 entry H          line    22 file /theoryfs2/ds/metcalf/miniconda2/envs/tf2gpu/share/psi4/basis/cc-pvdz.gbs
    atoms 12         entry S          line   598 file /theoryfs2/ds/metcalf/miniconda2/envs/tf2gpu/share/psi4/basis/cc-pvdz.gbs

         ---------------------------------------------------------
                                   SCF
               by Justin Turney, Rob Parrish, Andy Simmonett
                          and Daniel G. A. Smith
                              RHF Reference
                        1 Threads,    500 MiB Core
         ---------------------------------------------------------

  ==> Geometry <==

    Molecular point group: c1
    Full point group: C1

    Geometry (in Angstrom), charge = 0, multiplicity = 1:

       Center              X                  Y                   Z               Mass
    ------------   -----------------  -----------------  -----------------  -----------------
         C           -0.618968255849     2.675045020429     0.018477156130    12.000000000000
         C           -1.314968255849     3.510045020429     1.080477156130    12.000000000000
         H           -1.097968255849     2.824045020429    -0.948522843870     1.007825032230
         H            0.427031744151     2.966045020429    -0.053522843870     1.007825032230
         H           -0.657968255849     1.621045020429     0.285477156130     1.007825032230
         H           -0.864968255849     3.252045020429     2.037477156130     1.007825032230
         H           -2.394168255849     3.299905020429     1.114669156130     1.007825032230
         H           -1.131438255849     4.580425020429     0.905545156130     1.007825032230
         C            0.250031744151    -0.637954979571    -1.180522843870    12.000000000000
         C            0.787031744151    -1.629954979571    -2.214522843870    12.000000000000
         C            1.278031744151    -1.070954979571     1.393477156130    12.000000000000
         S           -0.206968255849    -1.378954979571     0.400477156130    31.972071174400
         H            0.989031744151     0.143045020429    -1.011522843870     1.007825032230
         H           -0.636968255849    -0.166954979571    -1.602522843870     1.007825032230
         H            1.063031744151    -1.080954979571    -3.114522843870     1.007825032230
         H           -0.023968255849    -2.292954979571    -2.485522843870     1.007825032230
         H            1.500031744151    -0.002954979571     1.402477156130     1.007825032230
         H            1.102031744151    -1.405954979571     2.415477156130     1.007825032230
         H            2.124031744151    -1.620954979571     0.990477156130     1.007825032230
         H            1.629691744151    -2.259604979571    -1.892859843870     1.007825032230

  Running in c1 symmetry.

  Rotational constants: A =      0.09969  B =      0.03215  C =      0.02704 [cm^-1]
  Rotational constants: A =   2988.75726  B =    963.86005  C =    810.60787 [MHz]
  Nuclear repulsion =  297.234062492412988

  Charge       = 0
  Multiplicity = 1
  Electrons    = 60
  Nalpha       = 30
  Nbeta        = 30

  ==> Algorithm <==

  SCF Algorithm Type is PK.
  DIIS enabled.
  MOM disabled.
  Fractional occupation disabled.
  Guess Type is SAD.
  Energy threshold   = 1.00e-06
  Density threshold  = 1.00e-10
  Integral threshold = 0.00e+00

  ==> Primary Basis <==

  Basis Set: CC-PVDZ
    Blend: CC-PVDZ
    Number of shells: 80
    Number of basis function: 158
    Number of Cartesian functions: 164
    Spherical Harmonics?: true
    Max angular momentum: 2

  ==> Pre-Iterations <==

   -------------------------------------------------------
    Irrep   Nso     Nmo     Nalpha   Nbeta   Ndocc  Nsocc
   -------------------------------------------------------
     A        158     158       0       0       0       0
   -------------------------------------------------------
    Total     158     158      30      30      30       0
   -------------------------------------------------------

  ==> Integral Setup <==

  Using integral reordering PK algorithm.
  Sizing the integral batches needed.
  Building batch lookup table.
   Calculation information:
      Number of atoms:                  20
      Number of AO shells:              80
      Number of primitives:            230
      Number of atomic orbitals:       164
      Number of basis functions:       158

      Integral cutoff                 1.00e-12
      Number of threads:                 1

	Batch   1 pq = [       0,    9405] index = [             0,44231715] size =     44231715
	Batch   2 pq = [    9405,   12561] index = [      44231715,78895641] size =     34663926
  Task number: 8
  Buffer size: 11059200
  Buffer per thread: 2
  We computed 4602382 shell quartets total.
  Whereas there are 5250420 unique shell quartets.

  ==> DiskJK: Disk-Based J/K Matrices <==

    J tasked:                  Yes
    K tasked:                  Yes
    wK tasked:                  No
    Memory [MiB]:              375
    Schwarz Cutoff:          1E-12

    OpenMP threads:              1

  Minimum eigenvalue in the overlap matrix is 5.5199057462E-03.
  Using Symmetric Orthogonalization.

  SCF Guess: Superposition of Atomic Densities via on-the-fly atomic UHF.

  ==> Iterations <==

                        Total Energy        Delta E     RMS |[F,P]|

   @RHF iter SAD:  -593.89953049778126   -5.93900e+02   0.00000e+00
   @RHF iter   1:  -594.84727685624443   -9.47746e-01   3.20441e-03 DIIS
   @RHF iter   2:  -594.99951546295904   -1.52239e-01   1.30325e-03 DIIS
   @RHF iter   3:  -595.02297366633036   -2.34582e-02   2.97068e-04 DIIS
   @RHF iter   4:  -595.02527950605474   -2.30584e-03   5.11755e-05 DIIS
   @RHF iter   5:  -595.02533407508076   -5.45690e-05   1.53683e-05 DIIS
   @RHF iter   6:  -595.02533871686933   -4.64179e-06   3.55191e-06 DIIS
   @RHF iter   7:  -595.02533901633365   -2.99464e-07   9.16717e-07 DIIS
   @RHF iter   8:  -595.02533904173765   -2.54040e-08   2.89822e-07 DIIS
   @RHF iter   9:  -595.02533904463326   -2.89560e-09   8.75916e-08 DIIS
   @RHF iter  10:  -595.02533904489121   -2.57955e-10   2.39170e-08 DIIS
   @RHF iter  11:  -595.02533904491202   -2.08047e-11   5.53516e-09 DIIS
   @RHF iter  12:  -595.02533904491236   -3.41061e-13   1.83446e-09 DIIS
   @RHF iter  13:  -595.02533904491418   -1.81899e-12   6.14126e-10 DIIS
   @RHF iter  14:  -595.02533904491236    1.81899e-12   1.74486e-10 DIIS
   @RHF iter  15:  -595.02533904491202    3.41061e-13   5.58154e-11 DIIS
  Energy and wave function converged.

  ==> Post-Iterations <==

    Orbital Energies [Eh]
    ---------------------

    Doubly Occupied:

       1A    -91.933861     2A    -11.257013     3A    -11.256683
       4A    -11.225709     5A    -11.216447     6A    -11.212841
       7A     -8.937732     8A     -6.619806     9A     -6.618200
      10A     -6.616092    11A     -1.077926    12A     -1.018875
      13A     -0.996795    14A     -0.884739    15A     -0.834409
      16A     -0.787148    17A     -0.629293    18A     -0.601643
      19A     -0.598623    20A     -0.595404    21A     -0.585016
      22A     -0.564714    23A     -0.531312    24A     -0.509973
      25A     -0.498441    26A     -0.484536    27A     -0.480736
      28A     -0.476857    29A     -0.419683    30A     -0.330805

    Virtual:

      31A      0.166305    32A      0.182237    33A      0.191689
      34A      0.213119    35A      0.222638    36A      0.242021
      37A      0.246863    38A      0.252862    39A      0.260365
      40A      0.264221    41A      0.283668    42A      0.286873
      43A      0.291457    44A      0.298740    45A      0.304482
      46A      0.332830    47A      0.384609    48A      0.406010
      49A      0.528728    50A      0.561649    51A      0.571338
      52A      0.587650    53A      0.599804    54A      0.606740
      55A      0.614366    56A      0.636637    57A      0.658199
      58A      0.692749    59A      0.698077    60A      0.702011
      61A      0.709440    62A      0.782628    63A      0.803696
      64A      0.821629    65A      0.839929    66A      0.850522
      67A      0.860728    68A      0.873385    69A      0.877938
      70A      0.883445    71A      0.889318    72A      0.894043
      73A      0.899849    74A      0.906756    75A      0.907839
      76A      0.921225    77A      0.922548    78A      0.938608
      79A      0.956860    80A      0.965294    81A      0.971144
      82A      0.991165    83A      1.020275    84A      1.063921
      85A      1.135924    86A      1.138431    87A      1.167694
      88A      1.227091    89A      1.244882    90A      1.273869
      91A      1.305805    92A      1.329880    93A      1.343106
      94A      1.396559    95A      1.450139    96A      1.481013
      97A      1.491670    98A      1.552529    99A      1.603410
     100A      1.643476   101A      1.659332   102A      1.680078
     103A      1.682897   104A      1.690699   105A      1.698390
     106A      1.839216   107A      1.853912   108A      1.862413
     109A      1.870083   110A      1.883862   111A      1.888733
     112A      1.908547   113A      1.921130   114A      1.928036
     115A      1.934113   116A      1.947272   117A      1.948995
     118A      1.958967   119A      1.967266   120A      1.976070
     121A      1.994535   122A      1.998452   123A      2.018689
     124A      2.033867   125A      2.065113   126A      2.071517
     127A      2.114551   128A      2.129636   129A      2.145956
     130A      2.217803   131A      2.247626   132A      2.304753
     133A      2.321234   134A      2.328731   135A      2.355975
     136A      2.420248   137A      2.444139   138A      2.449993
     139A      2.456873   140A      2.475979   141A      2.529326
     142A      2.571858   143A      2.572984   144A      2.592288
     145A      2.755459   146A      2.760457   147A      2.766722
     148A      2.791365   149A      2.795858   150A      2.800858
     151A      2.828873   152A      2.849669   153A      2.854285
     154A      2.869228   155A      2.897913   156A      2.953466
     157A      2.967349   158A      2.979746

    Final Occupation by Irrep:
              A
    DOCC [    30 ]

  @RHF Final Energy:  -595.02533904491202

   => Energetics <=

    Nuclear Repulsion Energy =            297.2340624924129884
    One-Electron Energy =               -1404.9161729771997216
    Two-Electron Energy =                 512.6567714398747739
    Total Energy =                       -595.0253390449120161

Computation Completed

Properties will be evaluated at   0.000000,   0.000000,   0.000000 [a0]

Properties computed using the SCF density matrix

  Nuclear Dipole Moment: [e a0]
     X:     1.8952      Y:     9.2035      Z:    -1.8244

  Electronic Dipole Moment: [e a0]
     X:    -1.3204      Y:    -8.9587      Z:     1.6317

  Dipole Moment: [e a0]
     X:     0.5748      Y:     0.2448      Z:    -0.1927     Total:     0.6538

  Dipole Moment: [D]
     X:     1.4609      Y:     0.6223      Z:    -0.4898     Total:     1.6618

*** tstop() called on ds3 at Tue Apr 28 13:57:36 2020
Module time:
	user time   =      33.01 seconds =       0.55 minutes
	system time =      11.41 seconds =       0.19 minutes
	total time  =         43 seconds =       0.72 minutes
Total time:
	user time   =      33.01 seconds =       0.55 minutes
	system time =      11.41 seconds =       0.19 minutes
	total time  =         43 seconds =       0.72 minutes
                                     G D M A

                                 by Anthony Stone

                           version 2.2.06, 22 June 2011

               Distributed Multipoles from Gaussian wavefunctions

Starting at 13:57:36 on 28 Apr 2020

Using SCF density matrix from file ./SSI/SSI-044VAL-174MET-1-dimer.test.31951.fchk

                         Distributed Multipole Analysis

Standard DMA

Positions and radii in angstrom
Multipole moments in atomic units, ea_0^k for rank k

C          x = -0.618968  y =  2.675045  z =  0.018477 angstrom
           Maximum rank =  0   Radius =  0.650 angstrom
                   Q00  =  -0.246797

C          x = -1.314968  y =  3.510045  z =  1.080477 angstrom
           Maximum rank =  0   Radius =  0.650 angstrom
                   Q00  =  -0.227814

H          x = -1.097968  y =  2.824045  z = -0.948523 angstrom
           Maximum rank =  0   Radius =  0.325 angstrom
                   Q00  =   0.075394

H          x =  0.427032  y =  2.966045  z = -0.053523 angstrom
           Maximum rank =  0   Radius =  0.325 angstrom
                   Q00  =   0.072079

H          x = -0.657968  y =  1.621045  z =  0.285477 angstrom
           Maximum rank =  0   Radius =  0.325 angstrom
                   Q00  =   0.091435

H          x = -0.864968  y =  3.252045  z =  2.037477 angstrom
           Maximum rank =  0   Radius =  0.325 angstrom
                   Q00  =   0.075429

H          x = -2.394168  y =  3.299905  z =  1.114669 angstrom
           Maximum rank =  0   Radius =  0.325 angstrom
                   Q00  =   0.082782

H          x = -1.131438  y =  4.580425  z =  0.905545 angstrom
           Maximum rank =  0   Radius =  0.325 angstrom
                   Q00  =   0.075031

C          x =  0.250032  y = -0.637955  z = -1.180523 angstrom
           Maximum rank =  0   Radius =  0.650 angstrom
                   Q00  =  -0.210054

C          x =  0.787032  y = -1.629955  z = -2.214523 angstrom
           Maximum rank =  0   Radius =  0.650 angstrom
                   Q00  =  -0.235065

C          x =  1.278032  y = -1.070955  z =  1.393477 angstrom
           Maximum rank =  0   Radius =  0.650 angstrom
                   Q00  =  -0.354081

S          x = -0.206968  y = -1.378955  z =  0.400477 angstrom
           Maximum rank =  0   Radius =  0.650 angstrom
                   Q00  =   0.090367

H          x =  0.989032  y =  0.143045  z = -1.011523 angstrom
           Maximum rank =  0   Radius =  0.325 angstrom
                   Q00  =   0.070299

H          x = -0.636968  y = -0.166955  z = -1.602523 angstrom
           Maximum rank =  0   Radius =  0.325 angstrom
                   Q00  =   0.084171

H          x =  1.063032  y = -1.080955  z = -3.114523 angstrom
           Maximum rank =  0   Radius =  0.325 angstrom
                   Q00  =   0.082090

H          x = -0.023968  y = -2.292955  z = -2.485523 angstrom
           Maximum rank =  0   Radius =  0.325 angstrom
                   Q00  =   0.086655

H          x =  1.500032  y = -0.002955  z =  1.402477 angstrom
           Maximum rank =  0   Radius =  0.325 angstrom
                   Q00  =   0.088481

H          x =  1.102032  y = -1.405955  z =  2.415477 angstrom
           Maximum rank =  0   Radius =  0.325 angstrom
                   Q00  =   0.122140

H          x =  2.124032  y = -1.620955  z =  0.990477 angstrom
           Maximum rank =  0   Radius =  0.325 angstrom
                   Q00  =   0.087859

H          x =  1.629692  y = -2.259605  z = -1.892860 angstrom
           Maximum rank =  0   Radius =  0.325 angstrom
                   Q00  =   0.089598

Total multipoles referred to origin at
           x =   0.000000,  y =    0.000000,  z =    0.000000 angstrom
                   Q00  =  -0.000000

Finished at 13:57:36 on 28 Apr 2020

  DMA results are available in the Python driver through the
	  variable('DMA DISTRIBUTED MULTIPOLES')
  and
	  variable('DMA TOTAL MULTIPOLES')
  commands.

    Psi4 stopped on: Tuesday, 28 April 2020 01:57PM
    Psi4 wall time for execution: 0:00:43.05

*** Psi4 exiting successfully. Buy a developer a beer!
