                               Psi4 1.3.2 release

  ==> Input File <==

--------------------------------------------------------------------------
import numpy as np
set {scf_type pk
basis cc-pvdz
d_convergence 10
gdma_switch   0
gdma_limit    0
gdma_origin   [ 0.0,  0.0,  0.0 ]
}
molecule test {
    units Angstrom
    0 1
    --
    0 1
    C                2.372292543804345    -1.950675914033714     0.557862167311982
    C                2.618292543804345    -3.369675914033714     0.959862167311982
    H                3.048292543804346    -1.269675914033714     1.074862167311982
    H                2.555292543804345    -1.853675914033714    -0.513137832688017
    H                1.338292543804345    -1.667675914033714     0.747862167311983
    H                3.641292543804345    -3.638675914033714     0.696862167311982
    H                1.965292543804345    -4.011675914033714     0.369862167311983
    H                2.432052543804346    -3.566022914033714     2.026053167311983
    C               -2.019707456195655    -0.200675914033714     1.608862167311982
    C                0.034292543804345     0.886324085966286     0.636862167311983
    C               -1.284707456195655     0.477324085966286     0.476862167311982
    C                0.731292543804345     1.468324085966286    -0.432137832688017
    C                0.108292543804345     1.654324085966286    -1.658137832688017
    C               -1.906707456195655     0.675324085966286    -0.758137832688017
    C               -1.216707456195655     1.271324085966286    -1.825137832688017
    H                0.542292543804345     0.729324085966286     1.577862167311982
    H                1.762292543804345     1.768324085966286    -0.305137832688017
    H               -1.305707456195655    -0.792675914033714     2.182862167311983
    H               -2.735707456195655    -0.907675914033714     1.186862167311983
    H                0.646292543804345     2.101324085966287    -2.483137832688017
    H               -2.923707456195654     0.353324085966286    -0.907137832688018
    H               -1.704707456195655     1.412324085966286    -2.779137832688018
    H               -2.553647456195655     0.485097085966286     2.283121167311982

}
e, wfn = energy('scf', return_wfn=True)
gdma(wfn)
dmavals = variable('DMA DISTRIBUTED MULTIPOLES')
charges = np.array(dmavals)
print(charges)
np.save('SSI-077ILE-102PHE-1-dimer.npy', np.array(charges))--------------------------------------------------------------------------

*** tstart() called on ds3
*** at Mon Apr 27 05:46:40 2020

   => Loading Basis Set <=

    Name: CC-PVDZ
    Role: ORBITAL
    Keyword: BASIS
    atoms 1-2, 9-15  entry C          line   138 file /theoryfs2/ds/metcalf/miniconda2/envs/tf2gpu/share/psi4/basis/cc-pvdz.gbs
    atoms 3-8, 16-23 entry H          line    22 file /theoryfs2/ds/metcalf/miniconda2/envs/tf2gpu/share/psi4/basis/cc-pvdz.gbs

         ---------------------------------------------------------
                                   SCF
               by Justin Turney, Rob Parrish, Andy Simmonett
                          and Daniel G. A. Smith
                              RHF Reference
                        1 Threads,    500 MiB Core
         ---------------------------------------------------------

  ==> Geometry <==

    Molecular point group: c1
    Full point group: C1

    Geometry (in Angstrom), charge = 0, multiplicity = 1:

       Center              X                  Y                   Z               Mass
    ------------   -----------------  -----------------  -----------------  -----------------
         C            2.372292543804    -1.950675914034     0.557862167312    12.000000000000
         C            2.618292543804    -3.369675914034     0.959862167312    12.000000000000
         H            3.048292543804    -1.269675914034     1.074862167312     1.007825032230
         H            2.555292543804    -1.853675914034    -0.513137832688     1.007825032230
         H            1.338292543804    -1.667675914034     0.747862167312     1.007825032230
         H            3.641292543804    -3.638675914034     0.696862167312     1.007825032230
         H            1.965292543804    -4.011675914034     0.369862167312     1.007825032230
         H            2.432052543804    -3.566022914034     2.026053167312     1.007825032230
         C           -2.019707456196    -0.200675914034     1.608862167312    12.000000000000
         C            0.034292543804     0.886324085966     0.636862167312    12.000000000000
         C           -1.284707456196     0.477324085966     0.476862167312    12.000000000000
         C            0.731292543804     1.468324085966    -0.432137832688    12.000000000000
         C            0.108292543804     1.654324085966    -1.658137832688    12.000000000000
         C           -1.906707456196     0.675324085966    -0.758137832688    12.000000000000
         C           -1.216707456196     1.271324085966    -1.825137832688    12.000000000000
         H            0.542292543804     0.729324085966     1.577862167312     1.007825032230
         H            1.762292543804     1.768324085966    -0.305137832688     1.007825032230
         H           -1.305707456196    -0.792675914034     2.182862167312     1.007825032230
         H           -2.735707456196    -0.907675914034     1.186862167312     1.007825032230
         H            0.646292543804     2.101324085966    -2.483137832688     1.007825032230
         H           -2.923707456196     0.353324085966    -0.907137832688     1.007825032230
         H           -1.704707456196     1.412324085966    -2.779137832688     1.007825032230
         H           -2.553647456196     0.485097085966     2.283121167312     1.007825032230

  Running in c1 symmetry.

  Rotational constants: A =      0.06471  B =      0.02520  C =      0.02078 [cm^-1]
  Rotational constants: A =   1940.06400  B =    755.35383  C =    623.10378 [MHz]
  Nuclear repulsion =  405.582444140472603

  Charge       = 0
  Multiplicity = 1
  Electrons    = 68
  Nalpha       = 34
  Nbeta        = 34

  ==> Algorithm <==

  SCF Algorithm Type is PK.
  DIIS enabled.
  MOM disabled.
  Fractional occupation disabled.
  Guess Type is SAD.
  Energy threshold   = 1.00e-06
  Density threshold  = 1.00e-10
  Integral threshold = 0.00e+00

  ==> Primary Basis <==

  Basis Set: CC-PVDZ
    Blend: CC-PVDZ
    Number of shells: 96
    Number of basis function: 196
    Number of Cartesian functions: 205
    Spherical Harmonics?: true
    Max angular momentum: 2

  ==> Pre-Iterations <==

   -------------------------------------------------------
    Irrep   Nso     Nmo     Nalpha   Nbeta   Ndocc  Nsocc
   -------------------------------------------------------
     A        196     196       0       0       0       0
   -------------------------------------------------------
    Total     196     196      34      34      34       0
   -------------------------------------------------------

  ==> Integral Setup <==

  Using integral reordering PK algorithm.
  Sizing the integral batches needed.
  Building batch lookup table.
   Calculation information:
      Number of atoms:                  23
      Number of AO shells:              96
      Number of primitives:            268
      Number of atomic orbitals:       205
      Number of basis functions:       196

      Integral cutoff                 1.00e-12
      Number of threads:                 1

	Batch   1 pq = [       0,    9405] index = [             0,44231715] size =     44231715
	Batch   2 pq = [    9405,   13301] index = [      44231715,88464951] size =     44233236
	Batch   3 pq = [   13301,   16290] index = [      88464951,132690195] size =     44225244
	Batch   4 pq = [   16290,   18810] index = [     132690195,176917455] size =     44227260
	Batch   5 pq = [   18810,   19306] index = [     176917455,186370471] size =      9453016
  Task number: 17
  Buffer size: 11059200
  Buffer per thread: 2
  We computed 9279929 shell quartets total.
  Whereas there are 10841496 unique shell quartets.

  ==> DiskJK: Disk-Based J/K Matrices <==

    J tasked:                  Yes
    K tasked:                  Yes
    wK tasked:                  No
    Memory [MiB]:              375
    Schwarz Cutoff:          1E-12

    OpenMP threads:              1

  Minimum eigenvalue in the overlap matrix is 3.1403416894E-04.
  Using Symmetric Orthogonalization.

  SCF Guess: Superposition of Atomic Densities via on-the-fly atomic UHF.

  ==> Iterations <==

                        Total Energy        Delta E     RMS |[F,P]|

   @RHF iter SAD:  -347.88657523372081   -3.47887e+02   0.00000e+00
   @RHF iter   1:  -348.76436946363003   -8.77794e-01   2.91494e-03 DIIS
   @RHF iter   2:  -348.95860915805264   -1.94240e-01   1.21290e-03 DIIS
   @RHF iter   3:  -348.98929922658635   -3.06901e-02   2.58454e-04 DIIS
   @RHF iter   4:  -348.99178467787601   -2.48545e-03   5.16074e-05 DIIS
   @RHF iter   5:  -348.99185504795429   -7.03701e-05   1.76521e-05 DIIS
   @RHF iter   6:  -348.99186261733132   -7.56938e-06   4.78858e-06 DIIS
   @RHF iter   7:  -348.99186326915117   -6.51820e-07   1.28414e-06 DIIS
   @RHF iter   8:  -348.99186332820915   -5.90580e-08   3.71723e-07 DIIS
   @RHF iter   9:  -348.99186333848473   -1.02756e-08   1.82990e-07 DIIS
   @RHF iter  10:  -348.99186334134737   -2.86263e-09   8.61415e-08 DIIS
   @RHF iter  11:  -348.99186334229853   -9.51161e-10   2.78531e-08 DIIS
   @RHF iter  12:  -348.99186334237481   -7.62839e-11   1.02513e-08 DIIS
   @RHF iter  13:  -348.99186334238470   -9.89075e-12   3.81810e-09 DIIS
   @RHF iter  14:  -348.99186334238220    2.50111e-12   8.79189e-10 DIIS
   @RHF iter  15:  -348.99186334238351   -1.30740e-12   3.92667e-10 DIIS
   @RHF iter  16:  -348.99186334238459   -1.08002e-12   1.38824e-10 DIIS
   @RHF iter  17:  -348.99186334238397    6.25278e-13   5.40925e-11 DIIS
  Energy and wave function converged.

  ==> Post-Iterations <==

    Orbital Energies [Eh]
    ---------------------

    Doubly Occupied:

       1A    -11.240887     2A    -11.235996     3A    -11.235379
       4A    -11.231573     5A    -11.230994     6A    -11.230626
       7A    -11.230129     8A    -11.212512     9A    -11.209367
      10A     -1.150711    11A     -1.044217    12A     -1.023257
      13A     -1.008068    14A     -0.931226    15A     -0.831759
      16A     -0.825500    17A     -0.793572    18A     -0.690270
      19A     -0.630674    20A     -0.629377    21A     -0.599152
      22A     -0.596593    23A     -0.580140    24A     -0.577227
      25A     -0.562808    26A     -0.533518    27A     -0.506756
      28A     -0.487109    29A     -0.485606    30A     -0.480540
      31A     -0.477611    32A     -0.476780    33A     -0.328582
      34A     -0.323723

    Virtual:

      35A      0.133777    36A      0.141612    37A      0.172797
      38A      0.194602    39A      0.200090    40A      0.215822
      41A      0.238036    42A      0.245763    43A      0.255222
      44A      0.257857    45A      0.269262    46A      0.276981
      47A      0.279749    48A      0.286158    49A      0.292241
      50A      0.329599    51A      0.365748    52A      0.375786
      53A      0.409701    54A      0.452178    55A      0.463096
      56A      0.479302    57A      0.491166    58A      0.561413
      59A      0.577247    60A      0.600089    61A      0.604690
      62A      0.609804    63A      0.651963    64A      0.669631
      65A      0.676488    66A      0.686666    67A      0.699284
      68A      0.704155    69A      0.723404    70A      0.737981
      71A      0.741284    72A      0.747823    73A      0.760221
      74A      0.772078    75A      0.778716    76A      0.808917
      77A      0.839243    78A      0.851048    79A      0.863421
      80A      0.865243    81A      0.875581    82A      0.891279
      83A      0.894650    84A      0.895912    85A      0.897954
      86A      0.905483    87A      0.912867    88A      0.927020
      89A      0.931691    90A      0.939009    91A      0.951435
      92A      0.962743    93A      0.992383    94A      1.011535
      95A      1.032905    96A      1.050373    97A      1.120986
      98A      1.130277    99A      1.134750   100A      1.148344
     101A      1.153546   102A      1.155609   103A      1.183863
     104A      1.233607   105A      1.238504   106A      1.253103
     107A      1.257961   108A      1.263066   109A      1.298853
     110A      1.302918   111A      1.319115   112A      1.330819
     113A      1.415126   114A      1.474920   115A      1.493186
     116A      1.512177   117A      1.516355   118A      1.548906
     119A      1.592152   120A      1.602251   121A      1.680747
     122A      1.688015   123A      1.699082   124A      1.706391
     125A      1.734156   126A      1.752255   127A      1.762402
     128A      1.789415   129A      1.805386   130A      1.856729
     131A      1.863586   132A      1.871373   133A      1.886003
     134A      1.895521   135A      1.906326   136A      1.910872
     137A      1.919262   138A      1.925500   139A      1.942450
     140A      1.952599   141A      1.954010   142A      1.963386
     143A      1.965782   144A      1.978017   145A      1.982652
     146A      1.988814   147A      2.002417   148A      2.020736
     149A      2.037277   150A      2.056247   151A      2.073139
     152A      2.105060   153A      2.111178   154A      2.120161
     155A      2.144608   156A      2.152640   157A      2.161767
     158A      2.171991   159A      2.177387   160A      2.257374
     161A      2.274098   162A      2.295011   163A      2.303235
     164A      2.308094   165A      2.316869   166A      2.328451
     167A      2.345511   168A      2.462760   169A      2.470800
     170A      2.473261   171A      2.485939   172A      2.491251
     173A      2.537647   174A      2.567972   175A      2.584696
     176A      2.616321   177A      2.733974   178A      2.752612
     179A      2.764165   180A      2.772030   181A      2.779232
     182A      2.800086   183A      2.818145   184A      2.851711
     185A      2.867974   186A      2.874033   187A      2.888873
     188A      2.959211   189A      2.975025   190A      2.987953
     191A      3.012124   192A      3.028462   193A      3.149969
     194A      3.194962   195A      3.291931   196A      3.957988

    Final Occupation by Irrep:
              A
    DOCC [    34 ]

  @RHF Final Energy:  -348.99186334238397

   => Energetics <=

    Nuclear Repulsion Energy =            405.5824441404726031
    One-Electron Energy =               -1273.8841293899208722
    Two-Electron Energy =                 519.3098219070643609
    Total Energy =                       -348.9918633423839083

Computation Completed

Properties will be evaluated at   0.000000,   0.000000,   0.000000 [a0]

Properties computed using the SCF density matrix

  Nuclear Dipole Moment: [e a0]
     X:     6.2885      Y:   -10.1791      Z:     4.8360

  Electronic Dipole Moment: [e a0]
     X:    -6.3660      Y:    10.1355      Z:    -4.7942

  Dipole Moment: [e a0]
     X:    -0.0775      Y:    -0.0436      Z:     0.0417     Total:     0.0982

  Dipole Moment: [D]
     X:    -0.1970      Y:    -0.1108      Z:     0.1060     Total:     0.2496

*** tstop() called on ds3 at Mon Apr 27 05:48:04 2020
Module time:
	user time   =      59.15 seconds =       0.99 minutes
	system time =      26.29 seconds =       0.44 minutes
	total time  =         84 seconds =       1.40 minutes
Total time:
	user time   =      59.15 seconds =       0.99 minutes
	system time =      26.29 seconds =       0.44 minutes
	total time  =         84 seconds =       1.40 minutes
                                     G D M A

                                 by Anthony Stone

                           version 2.2.06, 22 June 2011

               Distributed Multipoles from Gaussian wavefunctions

Starting at 5:48:4 on 27 Apr 2020

Using SCF density matrix from file ./SSI/SSI-077ILE-102PHE-1-dimer.test.30893.fchk

                         Distributed Multipole Analysis

Standard DMA

Positions and radii in angstrom
Multipole moments in atomic units, ea_0^k for rank k

C          x =  2.372293  y = -1.950676  z =  0.557862 angstrom
           Maximum rank =  0   Radius =  0.650 angstrom
                   Q00  =  -0.226660

C          x =  2.618293  y = -3.369676  z =  0.959862 angstrom
           Maximum rank =  0   Radius =  0.650 angstrom
                   Q00  =  -0.226401

H          x =  3.048293  y = -1.269676  z =  1.074862 angstrom
           Maximum rank =  0   Radius =  0.325 angstrom
                   Q00  =   0.069912

H          x =  2.555293  y = -1.853676  z = -0.513138 angstrom
           Maximum rank =  0   Radius =  0.325 angstrom
                   Q00  =   0.077315

H          x =  1.338293  y = -1.667676  z =  0.747862 angstrom
           Maximum rank =  0   Radius =  0.325 angstrom
                   Q00  =   0.082022

H          x =  3.641293  y = -3.638676  z =  0.696862 angstrom
           Maximum rank =  0   Radius =  0.325 angstrom
                   Q00  =   0.073833

H          x =  1.965293  y = -4.011676  z =  0.369862 angstrom
           Maximum rank =  0   Radius =  0.325 angstrom
                   Q00  =   0.074016

H          x =  2.432053  y = -3.566023  z =  2.026053 angstrom
           Maximum rank =  0   Radius =  0.325 angstrom
                   Q00  =   0.075631

C          x = -2.019707  y = -0.200676  z =  1.608862 angstrom
           Maximum rank =  0   Radius =  0.650 angstrom
                   Q00  =  -0.205555

C          x =  0.034293  y =  0.886324  z =  0.636862 angstrom
           Maximum rank =  0   Radius =  0.650 angstrom
                   Q00  =  -0.087920

C          x = -1.284707  y =  0.477324  z =  0.476862 angstrom
           Maximum rank =  0   Radius =  0.650 angstrom
                   Q00  =  -0.105637

C          x =  0.731293  y =  1.468324  z = -0.432138 angstrom
           Maximum rank =  0   Radius =  0.650 angstrom
                   Q00  =  -0.062009

C          x =  0.108293  y =  1.654324  z = -1.658138 angstrom
           Maximum rank =  0   Radius =  0.650 angstrom
                   Q00  =  -0.084686

C          x = -1.906707  y =  0.675324  z = -0.758138 angstrom
           Maximum rank =  0   Radius =  0.650 angstrom
                   Q00  =   0.007545

C          x = -1.216707  y =  1.271324  z = -1.825138 angstrom
           Maximum rank =  0   Radius =  0.650 angstrom
                   Q00  =  -0.070930

H          x =  0.542293  y =  0.729324  z =  1.577862 angstrom
           Maximum rank =  0   Radius =  0.325 angstrom
                   Q00  =   0.058872

H          x =  1.762293  y =  1.768324  z = -0.305138 angstrom
           Maximum rank =  0   Radius =  0.325 angstrom
                   Q00  =   0.065323

H          x = -1.305707  y = -0.792676  z =  2.182862 angstrom
           Maximum rank =  0   Radius =  0.325 angstrom
                   Q00  =   0.096440

H          x = -2.735707  y = -0.907676  z =  1.186862 angstrom
           Maximum rank =  0   Radius =  0.325 angstrom
                   Q00  =   0.097685

H          x =  0.646293  y =  2.101324  z = -2.483138 angstrom
           Maximum rank =  0   Radius =  0.325 angstrom
                   Q00  =   0.060956

H          x = -2.923707  y =  0.353324  z = -0.907138 angstrom
           Maximum rank =  0   Radius =  0.325 angstrom
                   Q00  =   0.057629

H          x = -1.704707  y =  1.412324  z = -2.779138 angstrom
           Maximum rank =  0   Radius =  0.325 angstrom
                   Q00  =   0.066008

H          x = -2.553647  y =  0.485097  z =  2.283121 angstrom
           Maximum rank =  0   Radius =  0.325 angstrom
                   Q00  =   0.106609

Total multipoles referred to origin at
           x =   0.000000,  y =    0.000000,  z =    0.000000 angstrom
                   Q00  =  -0.000000

Finished at 5:48:4 on 27 Apr 2020

  DMA results are available in the Python driver through the
	  variable('DMA DISTRIBUTED MULTIPOLES')
  and
	  variable('DMA TOTAL MULTIPOLES')
  commands.

    Psi4 stopped on: Monday, 27 April 2020 05:48AM
    Psi4 wall time for execution: 0:01:23.52

*** Psi4 exiting successfully. Buy a developer a beer!
