                               Psi4 1.3.2 release

  ==> Input File <==

--------------------------------------------------------------------------
import numpy as np
set {scf_type pk
basis cc-pvdz
d_convergence 10
gdma_switch   0
gdma_limit    0
gdma_origin   [ 0.0,  0.0,  0.0 ]
}
molecule test {
    units Angstrom
    0 1
    --
    0 1
    C               -0.248301004608780    -0.349431616899107    -3.157865974459814
    N               -1.091301004608780    -0.799431616899107    -2.012865974459814
    H               -0.581301004608780    -0.728431616899108    -1.124865974459814
    H               -1.919301004608780    -0.225431616899107    -1.922865974459814
    H               -1.391301004608780    -1.759431616899107    -2.121865974459814
    H                0.066698995391220     0.689568383100893    -3.013865974459814
    H               -0.826301004608780    -0.403431616899108    -4.086865974459814
    H                0.643148995391220    -0.986601616899107    -3.254495974459814
    C                1.150698995391220     0.072568383100893     2.566134025540185
    C                0.335698995391220     0.320568383100893     1.322134025540186
    O                0.121698995391220    -0.595431616899108     0.491134025540186
    O               -0.104301004608780     1.473568383100893     1.160134025540186
    H                1.075698995391219     0.910568383100892     3.258134025540186
    H                2.194698995391219     0.017568383100893     2.253134025540186
    H                0.882948995391220    -0.863851616899107     3.077428025540186

}
e, wfn = energy('scf', return_wfn=True)
gdma(wfn)
dmavals = variable('DMA DISTRIBUTED MULTIPOLES')
charges = np.array(dmavals)
print(charges)
np.save('SSI-047LYS-059ASP-1-dimer.npy', np.array(charges))--------------------------------------------------------------------------

*** tstart() called on ds3
*** at Mon Apr 27 16:33:06 2020

   => Loading Basis Set <=

    Name: CC-PVDZ
    Role: ORBITAL
    Keyword: BASIS
    atoms 1, 9-10    entry C          line   138 file /theoryfs2/ds/metcalf/miniconda2/envs/tf2gpu/share/psi4/basis/cc-pvdz.gbs
    atoms 2          entry N          line   168 file /theoryfs2/ds/metcalf/miniconda2/envs/tf2gpu/share/psi4/basis/cc-pvdz.gbs
    atoms 3-8, 13-15 entry H          line    22 file /theoryfs2/ds/metcalf/miniconda2/envs/tf2gpu/share/psi4/basis/cc-pvdz.gbs
    atoms 11-12      entry O          line   198 file /theoryfs2/ds/metcalf/miniconda2/envs/tf2gpu/share/psi4/basis/cc-pvdz.gbs

         ---------------------------------------------------------
                                   SCF
               by Justin Turney, Rob Parrish, Andy Simmonett
                          and Daniel G. A. Smith
                              RHF Reference
                        1 Threads,    500 MiB Core
         ---------------------------------------------------------

  ==> Geometry <==

    Molecular point group: c1
    Full point group: C1

    Geometry (in Angstrom), charge = 0, multiplicity = 1:

       Center              X                  Y                   Z               Mass
    ------------   -----------------  -----------------  -----------------  -----------------
         C           -0.248301004609    -0.349431616899    -3.157865974460    12.000000000000
         N           -1.091301004609    -0.799431616899    -2.012865974460    14.003074004430
         H           -0.581301004609    -0.728431616899    -1.124865974460     1.007825032230
         H           -1.919301004609    -0.225431616899    -1.922865974460     1.007825032230
         H           -1.391301004609    -1.759431616899    -2.121865974460     1.007825032230
         H            0.066698995391     0.689568383101    -3.013865974460     1.007825032230
         H           -0.826301004609    -0.403431616899    -4.086865974460     1.007825032230
         H            0.643148995391    -0.986601616899    -3.254495974460     1.007825032230
         C            1.150698995391     0.072568383101     2.566134025540    12.000000000000
         C            0.335698995391     0.320568383101     1.322134025540    12.000000000000
         O            0.121698995391    -0.595431616899     0.491134025540    15.994914619570
         O           -0.104301004609     1.473568383101     1.160134025540    15.994914619570
         H            1.075698995391     0.910568383101     3.258134025540     1.007825032230
         H            2.194698995391     0.017568383101     2.253134025540     1.007825032230
         H            0.882948995391    -0.863851616899     3.077428025540     1.007825032230

  Running in c1 symmetry.

  Rotational constants: A =      0.26331  B =      0.03858  C =      0.03651 [cm^-1]
  Rotational constants: A =   7893.80602  B =   1156.56698  C =   1094.50527 [MHz]
  Nuclear repulsion =  236.045537775537753

  Charge       = 0
  Multiplicity = 1
  Electrons    = 50
  Nalpha       = 25
  Nbeta        = 25

  ==> Algorithm <==

  SCF Algorithm Type is PK.
  DIIS enabled.
  MOM disabled.
  Fractional occupation disabled.
  Guess Type is SAD.
  Energy threshold   = 1.00e-06
  Density threshold  = 1.00e-10
  Integral threshold = 0.00e+00

  ==> Primary Basis <==

  Basis Set: CC-PVDZ
    Blend: CC-PVDZ
    Number of shells: 63
    Number of basis function: 129
    Number of Cartesian functions: 135
    Spherical Harmonics?: true
    Max angular momentum: 2

  ==> Pre-Iterations <==

   -------------------------------------------------------
    Irrep   Nso     Nmo     Nalpha   Nbeta   Ndocc  Nsocc
   -------------------------------------------------------
     A        129     129       0       0       0       0
   -------------------------------------------------------
    Total     129     129      25      25      25       0
   -------------------------------------------------------

  ==> Integral Setup <==

  Using integral reordering PK algorithm.
  Sizing the integral batches needed.
  Building batch lookup table.
   Calculation information:
      Number of atoms:                  15
      Number of AO shells:              63
      Number of primitives:            177
      Number of atomic orbitals:       135
      Number of basis functions:       129

      Integral cutoff                 1.00e-12
      Number of threads:                 1

	Batch   1 pq = [       0,    8385] index = [             0,35158305] size =     35158305
  Task number: 4
  Buffer size: 11059200
  Buffer per thread: 2
  We computed 1618344 shell quartets total.
  Whereas there are 2033136 unique shell quartets.

  ==> DiskJK: Disk-Based J/K Matrices <==

    J tasked:                  Yes
    K tasked:                  Yes
    wK tasked:                  No
    Memory [MiB]:              375
    Schwarz Cutoff:          1E-12

    OpenMP threads:              1

  Minimum eigenvalue in the overlap matrix is 5.0727523954E-03.
  Using Symmetric Orthogonalization.

  SCF Guess: Superposition of Atomic Densities via on-the-fly atomic UHF.

  ==> Iterations <==

                        Total Energy        Delta E     RMS |[F,P]|

   @RHF iter SAD:  -321.74794626684331   -3.21748e+02   0.00000e+00
   @RHF iter   1:  -322.78919652917563   -1.04125e+00   5.19556e-03 DIIS
   @RHF iter   2:  -322.95834789858327   -1.69151e-01   2.85946e-03 DIIS
   @RHF iter   3:  -323.00634149849020   -4.79936e-02   4.79033e-04 DIIS
   @RHF iter   4:  -323.00886770319528   -2.52620e-03   1.70898e-04 DIIS
   @RHF iter   5:  -323.00917732378451   -3.09621e-04   3.65910e-05 DIIS
   @RHF iter   6:  -323.00919464118527   -1.73174e-05   1.96170e-05 DIIS
   @RHF iter   7:  -323.00919841371586   -3.77253e-06   4.62384e-06 DIIS
   @RHF iter   8:  -323.00919906662369   -6.52908e-07   1.99586e-06 DIIS
   @RHF iter   9:  -323.00919918092768   -1.14304e-07   4.64701e-07 DIIS
   @RHF iter  10:  -323.00919918641404   -5.48636e-09   1.40431e-07 DIIS
   @RHF iter  11:  -323.00919918668450   -2.70461e-10   3.65411e-08 DIIS
   @RHF iter  12:  -323.00919918670843   -2.39311e-11   8.70437e-09 DIIS
   @RHF iter  13:  -323.00919918670985   -1.42109e-12   2.63447e-09 DIIS
   @RHF iter  14:  -323.00919918671048   -6.25278e-13   1.09046e-09 DIIS
   @RHF iter  15:  -323.00919918670871    1.76215e-12   3.96977e-10 DIIS
   @RHF iter  16:  -323.00919918670974   -1.02318e-12   1.89815e-10 DIIS
   @RHF iter  17:  -323.00919918670922    5.11591e-13   7.70125e-11 DIIS
  Energy and wave function converged.

  ==> Post-Iterations <==

    Orbital Energies [Eh]
    ---------------------

    Doubly Occupied:

       1A    -20.424401     2A    -20.399019     3A    -15.728204
       4A    -11.349544     5A    -11.260097     6A    -11.166053
       7A     -1.353120     8A     -1.303502     9A     -1.186850
      10A     -1.017461    11A     -0.919962    12A     -0.814666
      13A     -0.804842    14A     -0.707665    15A     -0.645596
      16A     -0.624126    17A     -0.617620    18A     -0.554086
      19A     -0.537442    20A     -0.535388    21A     -0.475832
      22A     -0.445430    23A     -0.343524    24A     -0.315707
      25A     -0.314955

    Virtual:

      26A      0.100885    27A      0.156948    28A      0.166305
      29A      0.198778    30A      0.218314    31A      0.250691
      32A      0.274914    33A      0.283555    34A      0.316146
      35A      0.351601    36A      0.363317    37A      0.458300
      38A      0.511862    39A      0.519777    40A      0.568038
      41A      0.572441    42A      0.606627    43A      0.665720
      44A      0.686844    45A      0.706341    46A      0.763567
      47A      0.789609    48A      0.790915    49A      0.794348
      50A      0.809539    51A      0.834331    52A      0.863074
      53A      0.896562    54A      0.915075    55A      0.924521
      56A      0.928632    57A      0.940781    58A      0.967135
      59A      1.002810    60A      1.012787    61A      1.071248
      62A      1.083274    63A      1.102545    64A      1.191657
      65A      1.222837    66A      1.228863    67A      1.335794
      68A      1.372141    69A      1.411410    70A      1.425715
      71A      1.438928    72A      1.470047    73A      1.511884
      74A      1.522572    75A      1.594033    76A      1.596751
      77A      1.623393    78A      1.674665    79A      1.726780
      80A      1.733302    81A      1.770755    82A      1.814482
      83A      1.824936    84A      1.867538    85A      1.872000
      86A      1.894354    87A      1.941603    88A      1.964557
      89A      1.982229    90A      2.001851    91A      2.076152
      92A      2.080749    93A      2.091491    94A      2.100938
      95A      2.106180    96A      2.132181    97A      2.192213
      98A      2.249258    99A      2.286040   100A      2.301682
     101A      2.336865   102A      2.394899   103A      2.407832
     104A      2.450183   105A      2.538244   106A      2.582835
     107A      2.596131   108A      2.616777   109A      2.637502
     110A      2.660056   111A      2.713762   112A      2.804855
     113A      2.845258   114A      2.867577   115A      2.873982
     116A      2.881225   117A      2.968281   118A      3.086006
     119A      3.130134   120A      3.141012   121A      3.199936
     122A      3.246894   123A      3.314052   124A      3.491450
     125A      3.670885   126A      3.682412   127A      3.933395
     128A      3.940426   129A      4.075834

    Final Occupation by Irrep:
              A
    DOCC [    25 ]

  @RHF Final Energy:  -323.00919918670922

   => Energetics <=

    Nuclear Repulsion Energy =            236.0455377755377526
    One-Electron Energy =                -910.4192878432256748
    Two-Electron Energy =                 351.3645508809787543
    Total Energy =                       -323.0091991867092247

Computation Completed

Properties will be evaluated at   0.000000,   0.000000,   0.000000 [a0]

Properties computed using the SCF density matrix

  Nuclear Dipole Moment: [e a0]
     X:     0.1392      Y:    -3.1335      Z:    -6.4886

  Electronic Dipole Moment: [e a0]
     X:    -1.4122      Y:     1.2625      Z:     2.2144

  Dipole Moment: [e a0]
     X:    -1.2730      Y:    -1.8709      Z:    -4.2742     Total:     4.8363

  Dipole Moment: [D]
     X:    -3.2357      Y:    -4.7555      Z:   -10.8639     Total:    12.2926

*** tstop() called on ds3 at Mon Apr 27 16:33:33 2020
Module time:
	user time   =      19.99 seconds =       0.33 minutes
	system time =       7.88 seconds =       0.13 minutes
	total time  =         27 seconds =       0.45 minutes
Total time:
	user time   =      19.99 seconds =       0.33 minutes
	system time =       7.88 seconds =       0.13 minutes
	total time  =         27 seconds =       0.45 minutes
                                     G D M A

                                 by Anthony Stone

                           version 2.2.06, 22 June 2011

               Distributed Multipoles from Gaussian wavefunctions

Starting at 16:33:33 on 27 Apr 2020

Using SCF density matrix from file ./SSI/SSI-047LYS-059ASP-1-dimer.test.27189.fchk

                         Distributed Multipole Analysis

Standard DMA

Positions and radii in angstrom
Multipole moments in atomic units, ea_0^k for rank k

C          x = -0.248301  y = -0.349432  z = -3.157866 angstrom
           Maximum rank =  0   Radius =  0.650 angstrom
                   Q00  =  -0.137700

N          x = -1.091301  y = -0.799432  z = -2.012866 angstrom
           Maximum rank =  0   Radius =  0.650 angstrom
                   Q00  =  -0.126473

H          x = -0.581301  y = -0.728432  z = -1.124866 angstrom
           Maximum rank =  0   Radius =  0.325 angstrom
                   Q00  =   0.351434

H          x = -1.919301  y = -0.225432  z = -1.922866 angstrom
           Maximum rank =  0   Radius =  0.325 angstrom
                   Q00  =   0.236486

H          x = -1.391301  y = -1.759432  z = -2.121866 angstrom
           Maximum rank =  0   Radius =  0.325 angstrom
                   Q00  =   0.220940

H          x =  0.066699  y =  0.689568  z = -3.013866 angstrom
           Maximum rank =  0   Radius =  0.325 angstrom
                   Q00  =   0.161760

H          x = -0.826301  y = -0.403432  z = -4.086866 angstrom
           Maximum rank =  0   Radius =  0.325 angstrom
                   Q00  =   0.120748

H          x =  0.643149  y = -0.986602  z = -3.254496 angstrom
           Maximum rank =  0   Radius =  0.325 angstrom
                   Q00  =   0.148532

C          x =  1.150699  y =  0.072568  z =  2.566134 angstrom
           Maximum rank =  0   Radius =  0.650 angstrom
                   Q00  =  -0.272455

C          x =  0.335699  y =  0.320568  z =  1.322134 angstrom
           Maximum rank =  0   Radius =  0.650 angstrom
                   Q00  =   0.942413

O          x =  0.121699  y = -0.595432  z =  0.491134 angstrom
           Maximum rank =  0   Radius =  0.650 angstrom
                   Q00  =  -1.013707

O          x = -0.104301  y =  1.473568  z =  1.160134 angstrom
           Maximum rank =  0   Radius =  0.650 angstrom
                   Q00  =  -0.894116

H          x =  1.075699  y =  0.910568  z =  3.258134 angstrom
           Maximum rank =  0   Radius =  0.325 angstrom
                   Q00  =   0.089585

H          x =  2.194699  y =  0.017568  z =  2.253134 angstrom
           Maximum rank =  0   Radius =  0.325 angstrom
                   Q00  =   0.092975

H          x =  0.882949  y = -0.863852  z =  3.077428 angstrom
           Maximum rank =  0   Radius =  0.325 angstrom
                   Q00  =   0.079577

Total multipoles referred to origin at
           x =   0.000000,  y =    0.000000,  z =    0.000000 angstrom
                   Q00  =  -0.000000

Finished at 16:33:33 on 27 Apr 2020

  DMA results are available in the Python driver through the
	  variable('DMA DISTRIBUTED MULTIPOLES')
  and
	  variable('DMA TOTAL MULTIPOLES')
  commands.

    Psi4 stopped on: Monday, 27 April 2020 04:33PM
    Psi4 wall time for execution: 0:00:27.65

*** Psi4 exiting successfully. Buy a developer a beer!
