                               Psi4 1.3.2 release

  ==> Input File <==

--------------------------------------------------------------------------
import numpy as np
set {scf_type pk
basis cc-pvdz
d_convergence 10
gdma_switch   0
gdma_limit    0
gdma_origin   [ 0.0,  0.0,  0.0 ]
}
molecule test {
    units Angstrom
    0 1
    --
    0 1
    C                2.453769231994515    -1.923589458478541    -0.508056513985250
    C               -0.398230768005485     0.390410541521459     0.567943486014750
    C                0.292769231994515    -0.693589458478541    -0.032056513985250
    C                0.377769231994515     1.376410541521459     1.249943486014750
    C                1.680769231994515    -0.790589458478541     0.082943486014750
    C                1.763769231994515     1.254410541521459     1.378943486014750
    C                2.405769231994515     0.179410541521459     0.781943486014750
    H               -1.474230768005485     0.475410541521459     0.510943486014750
    H               -0.282230768005485    -1.435589458478541    -0.564056513985250
    H               -0.120230768005485     2.212410541521459     1.716943486014750
    H                2.329769231994514     1.994410541521459     1.928943486014750
    H                3.294769231994515    -2.140589458478541     0.151943486014750
    H                2.848769231994515    -1.597589458478541    -1.471056513985250
    H                3.473769231994515     0.091410541521459     0.887943486014750
    H                1.884909231994515    -2.854139458478541    -0.651162513985250
    C               -3.296230768005485    -0.337589458478541    -1.587056513985250
    C               -4.355230768005486     0.722410541521459    -1.394056513985250
    H               -2.306230768005485     0.112410541521459    -1.623056513985250
    H               -3.323230768005486    -1.032589458478541    -0.750056513985250
    H               -3.472230768005486    -0.889589458478541    -2.511056513985251
    H               -4.205230768005485     1.212410541521459    -0.434056513985250
    H               -4.295410768005485     1.447500541521459    -2.219082513985250
    H               -5.365860768005486     0.288340541521459    -1.408671513985250

}
e, wfn = energy('scf', return_wfn=True)
gdma(wfn)
dmavals = variable('DMA DISTRIBUTED MULTIPOLES')
charges = np.array(dmavals)
print(charges)
np.save('SSI-198PHE-284LEU-1-dimer.npy', np.array(charges))--------------------------------------------------------------------------

*** tstart() called on ds3
*** at Mon Apr 27 13:13:39 2020

   => Loading Basis Set <=

    Name: CC-PVDZ
    Role: ORBITAL
    Keyword: BASIS
    atoms 1-7, 16-17  entry C          line   138 file /theoryfs2/ds/metcalf/miniconda2/envs/tf2gpu/share/psi4/basis/cc-pvdz.gbs
    atoms 8-15, 18-23 entry H          line    22 file /theoryfs2/ds/metcalf/miniconda2/envs/tf2gpu/share/psi4/basis/cc-pvdz.gbs

         ---------------------------------------------------------
                                   SCF
               by Justin Turney, Rob Parrish, Andy Simmonett
                          and Daniel G. A. Smith
                              RHF Reference
                        1 Threads,    500 MiB Core
         ---------------------------------------------------------

  ==> Geometry <==

    Molecular point group: c1
    Full point group: C1

    Geometry (in Angstrom), charge = 0, multiplicity = 1:

       Center              X                  Y                   Z               Mass
    ------------   -----------------  -----------------  -----------------  -----------------
         C            2.453769231995    -1.923589458479    -0.508056513985    12.000000000000
         C           -0.398230768005     0.390410541521     0.567943486015    12.000000000000
         C            0.292769231995    -0.693589458479    -0.032056513985    12.000000000000
         C            0.377769231995     1.376410541521     1.249943486015    12.000000000000
         C            1.680769231995    -0.790589458479     0.082943486015    12.000000000000
         C            1.763769231995     1.254410541521     1.378943486015    12.000000000000
         C            2.405769231995     0.179410541521     0.781943486015    12.000000000000
         H           -1.474230768005     0.475410541521     0.510943486015     1.007825032230
         H           -0.282230768005    -1.435589458479    -0.564056513985     1.007825032230
         H           -0.120230768005     2.212410541521     1.716943486015     1.007825032230
         H            2.329769231995     1.994410541521     1.928943486015     1.007825032230
         H            3.294769231995    -2.140589458479     0.151943486015     1.007825032230
         H            2.848769231995    -1.597589458479    -1.471056513985     1.007825032230
         H            3.473769231995     0.091410541521     0.887943486015     1.007825032230
         H            1.884909231995    -2.854139458479    -0.651162513985     1.007825032230
         C           -3.296230768005    -0.337589458479    -1.587056513985    12.000000000000
         C           -4.355230768005     0.722410541521    -1.394056513985    12.000000000000
         H           -2.306230768005     0.112410541521    -1.623056513985     1.007825032230
         H           -3.323230768005    -1.032589458479    -0.750056513985     1.007825032230
         H           -3.472230768005    -0.889589458479    -2.511056513985     1.007825032230
         H           -4.205230768005     1.212410541521    -0.434056513985     1.007825032230
         H           -4.295410768005     1.447500541521    -2.219082513985     1.007825032230
         H           -5.365860768005     0.288340541521    -1.408671513985     1.007825032230

  Running in c1 symmetry.

  Rotational constants: A =      0.08319  B =      0.02114  C =      0.01718 [cm^-1]
  Rotational constants: A =   2494.02243  B =    633.80397  C =    515.07041 [MHz]
  Nuclear repulsion =  399.400389626532842

  Charge       = 0
  Multiplicity = 1
  Electrons    = 68
  Nalpha       = 34
  Nbeta        = 34

  ==> Algorithm <==

  SCF Algorithm Type is PK.
  DIIS enabled.
  MOM disabled.
  Fractional occupation disabled.
  Guess Type is SAD.
  Energy threshold   = 1.00e-06
  Density threshold  = 1.00e-10
  Integral threshold = 0.00e+00

  ==> Primary Basis <==

  Basis Set: CC-PVDZ
    Blend: CC-PVDZ
    Number of shells: 96
    Number of basis function: 196
    Number of Cartesian functions: 205
    Spherical Harmonics?: true
    Max angular momentum: 2

  ==> Pre-Iterations <==

   -------------------------------------------------------
    Irrep   Nso     Nmo     Nalpha   Nbeta   Ndocc  Nsocc
   -------------------------------------------------------
     A        196     196       0       0       0       0
   -------------------------------------------------------
    Total     196     196      34      34      34       0
   -------------------------------------------------------

  ==> Integral Setup <==

  Using integral reordering PK algorithm.
  Sizing the integral batches needed.
  Building batch lookup table.
   Calculation information:
      Number of atoms:                  23
      Number of AO shells:              96
      Number of primitives:            268
      Number of atomic orbitals:       205
      Number of basis functions:       196

      Integral cutoff                 1.00e-12
      Number of threads:                 1

	Batch   1 pq = [       0,    9405] index = [             0,44231715] size =     44231715
	Batch   2 pq = [    9405,   13301] index = [      44231715,88464951] size =     44233236
	Batch   3 pq = [   13301,   16290] index = [      88464951,132690195] size =     44225244
	Batch   4 pq = [   16290,   18810] index = [     132690195,176917455] size =     44227260
	Batch   5 pq = [   18810,   19306] index = [     176917455,186370471] size =      9453016
  Task number: 17
  Buffer size: 11059200
  Buffer per thread: 2
  We computed 8658526 shell quartets total.
  Whereas there are 10841496 unique shell quartets.

  ==> DiskJK: Disk-Based J/K Matrices <==

    J tasked:                  Yes
    K tasked:                  Yes
    wK tasked:                  No
    Memory [MiB]:              375
    Schwarz Cutoff:          1E-12

    OpenMP threads:              1

  Minimum eigenvalue in the overlap matrix is 3.3238284940E-04.
  Using Symmetric Orthogonalization.

  SCF Guess: Superposition of Atomic Densities via on-the-fly atomic UHF.

  ==> Iterations <==

                        Total Energy        Delta E     RMS |[F,P]|

   @RHF iter SAD:  -347.81343658508058   -3.47813e+02   0.00000e+00
   @RHF iter   1:  -348.76430674608957   -9.50870e-01   2.88127e-03 DIIS
   @RHF iter   2:  -348.95597010461398   -1.91663e-01   1.19168e-03 DIIS
   @RHF iter   3:  -348.98578823511900   -2.98181e-02   2.63581e-04 DIIS
   @RHF iter   4:  -348.98828906363633   -2.50083e-03   6.89969e-05 DIIS
   @RHF iter   5:  -348.98840301671680   -1.13953e-04   2.09924e-05 DIIS
   @RHF iter   6:  -348.98841420615878   -1.11894e-05   4.99607e-06 DIIS
   @RHF iter   7:  -348.98841494621178   -7.40053e-07   1.19486e-06 DIIS
   @RHF iter   8:  -348.98841500278655   -5.65748e-08   3.60439e-07 DIIS
   @RHF iter   9:  -348.98841501203810   -9.25155e-09   1.80989e-07 DIIS
   @RHF iter  10:  -348.98841501463232   -2.59422e-09   8.35240e-08 DIIS
   @RHF iter  11:  -348.98841501558024   -9.47921e-10   3.46822e-08 DIIS
   @RHF iter  12:  -348.98841501570377   -1.23521e-10   1.60193e-08 DIIS
   @RHF iter  13:  -348.98841501571877   -1.50067e-11   4.66556e-09 DIIS
   @RHF iter  14:  -348.98841501572224   -3.46745e-12   1.46232e-09 DIIS
   @RHF iter  15:  -348.98841501572349   -1.25056e-12   5.81874e-10 DIIS
   @RHF iter  16:  -348.98841501572190    1.59162e-12   2.47595e-10 DIIS
   @RHF iter  17:  -348.98841501572383   -1.93268e-12   9.29687e-11 DIIS
  Energy and wave function converged.

  ==> Post-Iterations <==

    Orbital Energies [Eh]
    ---------------------

    Doubly Occupied:

       1A    -11.242705     2A    -11.240969     3A    -11.235981
       4A    -11.234445     5A    -11.234382     6A    -11.229451
       7A    -11.227551     8A    -11.219519     9A    -11.216446
      10A     -1.146797    11A     -1.041321    12A     -1.024906
      13A     -1.009343    14A     -0.927212    15A     -0.838012
      16A     -0.823335    17A     -0.793686    18A     -0.686962
      19A     -0.635551    20A     -0.626906    21A     -0.605754
      22A     -0.599393    23A     -0.583512    24A     -0.577634
      25A     -0.558120    26A     -0.531753    27A     -0.507058
      28A     -0.490435    29A     -0.487301    30A     -0.483895
      31A     -0.479511    32A     -0.477665    33A     -0.331045
      34A     -0.316537

    Virtual:

      35A      0.131064    36A      0.140455    37A      0.173941
      38A      0.190931    39A      0.206365    40A      0.218153
      41A      0.227677    42A      0.245578    43A      0.256222
      44A      0.261288    45A      0.262280    46A      0.273451
      47A      0.282966    48A      0.292992    49A      0.301525
      50A      0.335087    51A      0.361953    52A      0.377484
      53A      0.403760    54A      0.449393    55A      0.453483
      56A      0.476319    57A      0.489100    58A      0.558796
      59A      0.594084    60A      0.595750    61A      0.622928
      62A      0.626435    63A      0.633263    64A      0.674715
      65A      0.681271    66A      0.688933    67A      0.695912
      68A      0.715343    69A      0.725472    70A      0.739340
      71A      0.745049    72A      0.746651    73A      0.757261
      74A      0.772507    75A      0.789393    76A      0.811807
      77A      0.843866    78A      0.853281    79A      0.857712
      80A      0.867848    81A      0.880116    82A      0.881418
      83A      0.890377    84A      0.891793    85A      0.900413
      86A      0.909033    87A      0.912803    88A      0.922922
      89A      0.928441    90A      0.941465    91A      0.944283
      92A      0.963968    93A      0.983041    94A      0.992664
      95A      1.039385    96A      1.053008    97A      1.107045
      98A      1.125732    99A      1.133991   100A      1.143553
     101A      1.157763   102A      1.173020   103A      1.198252
     104A      1.226701   105A      1.241819   106A      1.246016
     107A      1.255609   108A      1.270430   109A      1.300026
     110A      1.308857   111A      1.315977   112A      1.323561
     113A      1.413048   114A      1.472528   115A      1.488146
     116A      1.506874   117A      1.527804   118A      1.575971
     119A      1.590597   120A      1.592852   121A      1.680142
     122A      1.683273   123A      1.699038   124A      1.703521
     125A      1.729122   126A      1.747454   127A      1.750619
     128A      1.786714   129A      1.806522   130A      1.842856
     131A      1.860440   132A      1.873828   133A      1.878875
     134A      1.887230   135A      1.899688   136A      1.919260
     137A      1.923858   138A      1.926554   139A      1.934936
     140A      1.944653   141A      1.948047   142A      1.955222
     143A      1.962481   144A      1.968575   145A      1.971315
     146A      1.982816   147A      1.995805   148A      2.003263
     149A      2.027101   150A      2.058150   151A      2.068435
     152A      2.098014   153A      2.107742   154A      2.119370
     155A      2.146850   156A      2.158631   157A      2.164575
     158A      2.182941   159A      2.186751   160A      2.259779
     161A      2.272052   162A      2.282972   163A      2.297235
     164A      2.310927   165A      2.319418   166A      2.327683
     167A      2.344575   168A      2.457210   169A      2.459066
     170A      2.465668   171A      2.477318   172A      2.484022
     173A      2.537327   174A      2.564670   175A      2.579213
     176A      2.631391   177A      2.728655   178A      2.745137
     179A      2.763387   180A      2.765909   181A      2.775147
     182A      2.797768   183A      2.809332   184A      2.845704
     185A      2.852906   186A      2.857665   187A      2.872080
     188A      2.947866   189A      2.968503   190A      2.974189
     191A      3.005381   192A      3.018671   193A      3.152825
     194A      3.192394   195A      3.286971   196A      3.928940

    Final Occupation by Irrep:
              A
    DOCC [    34 ]

  @RHF Final Energy:  -348.98841501572383

   => Energetics <=

    Nuclear Repulsion Energy =            399.4003896265328422
    One-Electron Energy =               -1261.4474204855030166
    Two-Electron Energy =                 513.0586158432463435
    Total Energy =                       -348.9884150157238309

Computation Completed

Properties will be evaluated at   0.000000,   0.000000,   0.000000 [a0]

Properties computed using the SCF density matrix

  Nuclear Dipole Moment: [e a0]
     X:   -10.3243      Y:    -1.9835      Z:    -6.0331

  Electronic Dipole Moment: [e a0]
     X:    10.4096      Y:     1.8859      Z:     5.9810

  Dipole Moment: [e a0]
     X:     0.0853      Y:    -0.0976      Z:    -0.0521     Total:     0.1397

  Dipole Moment: [D]
     X:     0.2168      Y:    -0.2481      Z:    -0.1325     Total:     0.3552

*** tstop() called on ds3 at Mon Apr 27 13:15:20 2020
Module time:
	user time   =      68.76 seconds =       1.15 minutes
	system time =      36.48 seconds =       0.61 minutes
	total time  =        101 seconds =       1.68 minutes
Total time:
	user time   =      68.76 seconds =       1.15 minutes
	system time =      36.48 seconds =       0.61 minutes
	total time  =        101 seconds =       1.68 minutes
                                     G D M A

                                 by Anthony Stone

                           version 2.2.06, 22 June 2011

               Distributed Multipoles from Gaussian wavefunctions

Starting at 13:15:20 on 27 Apr 2020

Using SCF density matrix from file ./SSI/SSI-198PHE-284LEU-1-dimer.test.5830.fchk

                         Distributed Multipole Analysis

Standard DMA

Positions and radii in angstrom
Multipole moments in atomic units, ea_0^k for rank k

C          x =  2.453769  y = -1.923589  z = -0.508057 angstrom
           Maximum rank =  0   Radius =  0.650 angstrom
                   Q00  =  -0.203320

C          x = -0.398231  y =  0.390411  z =  0.567943 angstrom
           Maximum rank =  0   Radius =  0.650 angstrom
                   Q00  =  -0.086962

C          x =  0.292769  y = -0.693589  z = -0.032057 angstrom
           Maximum rank =  0   Radius =  0.650 angstrom
                   Q00  =  -0.103814

C          x =  0.377769  y =  1.376411  z =  1.249943 angstrom
           Maximum rank =  0   Radius =  0.650 angstrom
                   Q00  =  -0.063880

C          x =  1.680769  y = -0.790589  z =  0.082943 angstrom
           Maximum rank =  0   Radius =  0.650 angstrom
                   Q00  =  -0.071283

C          x =  1.763769  y =  1.254411  z =  1.378943 angstrom
           Maximum rank =  0   Radius =  0.650 angstrom
                   Q00  =  -0.070691

C          x =  2.405769  y =  0.179411  z =  0.781943 angstrom
           Maximum rank =  0   Radius =  0.650 angstrom
                   Q00  =  -0.017986

H          x = -1.474231  y =  0.475411  z =  0.510943 angstrom
           Maximum rank =  0   Radius =  0.325 angstrom
                   Q00  =   0.074846

H          x = -0.282231  y = -1.435589  z = -0.564057 angstrom
           Maximum rank =  0   Radius =  0.325 angstrom
                   Q00  =   0.062453

H          x = -0.120231  y =  2.212411  z =  1.716943 angstrom
           Maximum rank =  0   Radius =  0.325 angstrom
                   Q00  =   0.061616

H          x =  2.329769  y =  1.994411  z =  1.928943 angstrom
           Maximum rank =  0   Radius =  0.325 angstrom
                   Q00  =   0.066638

H          x =  3.294769  y = -2.140589  z =  0.151943 angstrom
           Maximum rank =  0   Radius =  0.325 angstrom
                   Q00  =   0.094732

H          x =  2.848769  y = -1.597589  z = -1.471057 angstrom
           Maximum rank =  0   Radius =  0.325 angstrom
                   Q00  =   0.102051

H          x =  3.473769  y =  0.091411  z =  0.887943 angstrom
           Maximum rank =  0   Radius =  0.325 angstrom
                   Q00  =   0.055971

H          x =  1.884909  y = -2.854139  z = -0.651163 angstrom
           Maximum rank =  0   Radius =  0.325 angstrom
                   Q00  =   0.099606

C          x = -3.296231  y = -0.337589  z = -1.587057 angstrom
           Maximum rank =  0   Radius =  0.650 angstrom
                   Q00  =  -0.237317

C          x = -4.355231  y =  0.722411  z = -1.394057 angstrom
           Maximum rank =  0   Radius =  0.650 angstrom
                   Q00  =  -0.229962

H          x = -2.306231  y =  0.112411  z = -1.623057 angstrom
           Maximum rank =  0   Radius =  0.325 angstrom
                   Q00  =   0.082379

H          x = -3.323231  y = -1.032589  z = -0.750057 angstrom
           Maximum rank =  0   Radius =  0.325 angstrom
                   Q00  =   0.071845

H          x = -3.472231  y = -0.889589  z = -2.511057 angstrom
           Maximum rank =  0   Radius =  0.325 angstrom
                   Q00  =   0.080783

H          x = -4.205231  y =  1.212411  z = -0.434057 angstrom
           Maximum rank =  0   Radius =  0.325 angstrom
                   Q00  =   0.076528

H          x = -4.295411  y =  1.447501  z = -2.219083 angstrom
           Maximum rank =  0   Radius =  0.325 angstrom
                   Q00  =   0.077947

H          x = -5.365861  y =  0.288341  z = -1.408672 angstrom
           Maximum rank =  0   Radius =  0.325 angstrom
                   Q00  =   0.077821

Total multipoles referred to origin at
           x =   0.000000,  y =    0.000000,  z =    0.000000 angstrom
                   Q00  =  -0.000000

Finished at 13:15:20 on 27 Apr 2020

  DMA results are available in the Python driver through the
	  variable('DMA DISTRIBUTED MULTIPOLES')
  and
	  variable('DMA TOTAL MULTIPOLES')
  commands.

    Psi4 stopped on: Monday, 27 April 2020 01:15PM
    Psi4 wall time for execution: 0:01:40.79

*** Psi4 exiting successfully. Buy a developer a beer!
