                               Psi4 1.3.2 release

  ==> Input File <==

--------------------------------------------------------------------------
import numpy as np
set {scf_type pk
basis cc-pvdz
d_convergence 10
gdma_switch   0
gdma_limit    0
gdma_origin   [ 0.0,  0.0,  0.0 ]
}
molecule test {
    units Angstrom
    1 1
    --
    1 1
    C                2.159202131948845     0.514482300537275    -0.005932343829231
    S                0.909202131948845    -0.446517699462725    -0.877932343829231
    H                1.466202131948845    -1.654517699462725    -0.697932343829231
    H                3.143202131948845     0.234482300537275    -0.391932343829231
    H                2.134202131948845     0.229482300537275     1.049067656170769
    H                2.042762131948845     1.604492300537275    -0.097122343829231
    C               -1.798797868051155     0.487482300537275     1.638067656170769
    N               -2.159797868051155     0.020482300537275     0.215067656170769
    H               -1.902797868051155     0.697482300537275    -0.503932343829231
    H               -1.707797868051155    -0.864517699462725     0.004067656170769
    H               -3.160797868051155    -0.130517699462725     0.138067656170769
    H               -0.711797868051155     0.536482300537275     1.760067656170769
    H               -2.203797868051155    -0.194517699462725     2.393067656170769
    H               -2.225037868051155     1.492092300537275     1.776177656170769

}
e, wfn = energy('scf', return_wfn=True)
gdma(wfn)
dmavals = variable('DMA DISTRIBUTED MULTIPOLES')
charges = np.array(dmavals)
print(charges)
np.save('SSI-084CYS-090LYS-1-dimer.npy', np.array(charges))--------------------------------------------------------------------------

*** tstart() called on ds3
*** at Tue Apr 28 14:59:05 2020

   => Loading Basis Set <=

    Name: CC-PVDZ
    Role: ORBITAL
    Keyword: BASIS
    atoms 1, 7      entry C          line   138 file /theoryfs2/ds/metcalf/miniconda2/envs/tf2gpu/share/psi4/basis/cc-pvdz.gbs
    atoms 2         entry S          line   598 file /theoryfs2/ds/metcalf/miniconda2/envs/tf2gpu/share/psi4/basis/cc-pvdz.gbs
    atoms 3-6, 9-14 entry H          line    22 file /theoryfs2/ds/metcalf/miniconda2/envs/tf2gpu/share/psi4/basis/cc-pvdz.gbs
    atoms 8         entry N          line   168 file /theoryfs2/ds/metcalf/miniconda2/envs/tf2gpu/share/psi4/basis/cc-pvdz.gbs

         ---------------------------------------------------------
                                   SCF
               by Justin Turney, Rob Parrish, Andy Simmonett
                          and Daniel G. A. Smith
                              RHF Reference
                        1 Threads,    500 MiB Core
         ---------------------------------------------------------

  ==> Geometry <==

    Molecular point group: c1
    Full point group: C1

    Geometry (in Angstrom), charge = 1, multiplicity = 1:

       Center              X                  Y                   Z               Mass
    ------------   -----------------  -----------------  -----------------  -----------------
         C            2.159202131949     0.514482300537    -0.005932343829    12.000000000000
         S            0.909202131949    -0.446517699463    -0.877932343829    31.972071174400
         H            1.466202131949    -1.654517699463    -0.697932343829     1.007825032230
         H            3.143202131949     0.234482300537    -0.391932343829     1.007825032230
         H            2.134202131949     0.229482300537     1.049067656171     1.007825032230
         H            2.042762131949     1.604492300537    -0.097122343829     1.007825032230
         C           -1.798797868051     0.487482300537     1.638067656171    12.000000000000
         N           -2.159797868051     0.020482300537     0.215067656171    14.003074004430
         H           -1.902797868051     0.697482300537    -0.503932343829     1.007825032230
         H           -1.707797868051    -0.864517699463     0.004067656171     1.007825032230
         H           -3.160797868051    -0.130517699463     0.138067656171     1.007825032230
         H           -0.711797868051     0.536482300537     1.760067656171     1.007825032230
         H           -2.203797868051    -0.194517699463     2.393067656171     1.007825032230
         H           -2.225037868051     1.492092300537     1.776177656171     1.007825032230

  Running in c1 symmetry.

  Rotational constants: A =      0.27896  B =      0.06125  C =      0.05269 [cm^-1]
  Rotational constants: A =   8362.93922  B =   1836.11253  C =   1579.66229 [MHz]
  Nuclear repulsion =  172.084561441430594

  Charge       = 1
  Multiplicity = 1
  Electrons    = 44
  Nalpha       = 22
  Nbeta        = 22

  ==> Algorithm <==

  SCF Algorithm Type is PK.
  DIIS enabled.
  MOM disabled.
  Fractional occupation disabled.
  Guess Type is SAD.
  Energy threshold   = 1.00e-06
  Density threshold  = 1.00e-10
  Integral threshold = 0.00e+00

  ==> Primary Basis <==

  Basis Set: CC-PVDZ
    Blend: CC-PVDZ
    Number of shells: 56
    Number of basis function: 110
    Number of Cartesian functions: 114
    Spherical Harmonics?: true
    Max angular momentum: 2

  ==> Pre-Iterations <==

   -------------------------------------------------------
    Irrep   Nso     Nmo     Nalpha   Nbeta   Ndocc  Nsocc
   -------------------------------------------------------
     A        110     110       0       0       0       0
   -------------------------------------------------------
    Total     110     110      22      22      22       0
   -------------------------------------------------------

  ==> Integral Setup <==

  Using in-core PK algorithm.
   Calculation information:
      Number of atoms:                  14
      Number of AO shells:              56
      Number of primitives:            166
      Number of atomic orbitals:       114
      Number of basis functions:       110

      Integral cutoff                 1.00e-12
      Number of threads:                 1

  Performing in-core PK
  Using 37277130 doubles for integral storage.
  We computed 1108581 shell quartets total.
  Whereas there are 1274406 unique shell quartets.

  ==> DiskJK: Disk-Based J/K Matrices <==

    J tasked:                  Yes
    K tasked:                  Yes
    wK tasked:                  No
    Memory [MiB]:              375
    Schwarz Cutoff:          1E-12

    OpenMP threads:              1

  Minimum eigenvalue in the overlap matrix is 1.2057402382E-02.
  Using Symmetric Orthogonalization.

  SCF Guess: Superposition of Atomic Densities via on-the-fly atomic UHF.

  ==> Iterations <==

                        Total Energy        Delta E     RMS |[F,P]|

   @RHF iter SAD:  -532.72216428557385   -5.32722e+02   0.00000e+00
   @RHF iter   1:  -533.22416646711383   -5.02002e-01   3.24184e-03 DIIS
   @RHF iter   2:  -533.31264100790372   -8.84745e-02   1.01529e-03 DIIS
   @RHF iter   3:  -533.32086280514818   -8.22180e-03   3.65581e-04 DIIS
   @RHF iter   4:  -533.32213751830136   -1.27471e-03   6.73461e-05 DIIS
   @RHF iter   5:  -533.32218604231900   -4.85240e-05   1.70725e-05 DIIS
   @RHF iter   6:  -533.32218938047549   -3.33816e-06   4.04073e-06 DIIS
   @RHF iter   7:  -533.32218960620833   -2.25733e-07   1.11124e-06 DIIS
   @RHF iter   8:  -533.32218962610602   -1.98977e-08   2.71011e-07 DIIS
   @RHF iter   9:  -533.32218962742070   -1.31467e-09   7.12929e-08 DIIS
   @RHF iter  10:  -533.32218962753916   -1.18462e-10   2.45172e-08 DIIS
   @RHF iter  11:  -533.32218962755883   -1.96678e-11   8.27961e-09 DIIS
   @RHF iter  12:  -533.32218962756440   -5.57066e-12   2.11048e-09 DIIS
   @RHF iter  13:  -533.32218962756087    3.52429e-12   6.69587e-10 DIIS
   @RHF iter  14:  -533.32218962756281   -1.93268e-12   2.08261e-10 DIIS
   @RHF iter  15:  -533.32218962756269    1.13687e-13   5.23508e-11 DIIS
  Energy and wave function converged.

  ==> Post-Iterations <==

    Orbital Energies [Eh]
    ---------------------

    Doubly Occupied:

       1A    -92.090901     2A    -15.894973     3A    -11.488135
       4A    -11.391701     5A     -9.094839     6A     -6.777069
       7A     -6.775802     8A     -6.773565     9A     -1.499747
      10A     -1.175448    11A     -1.155050    12A     -0.998713
      13A     -0.961927    14A     -0.958656    15A     -0.841667
      16A     -0.763251    17A     -0.760731    18A     -0.733707
      19A     -0.712282    20A     -0.671355    21A     -0.595459
      22A     -0.497173

    Virtual:

      23A     -0.037154    24A      0.009054    25A      0.024506
      26A      0.037358    27A      0.049572    28A      0.070703
      29A      0.088851    30A      0.101086    31A      0.124781
      32A      0.135065    33A      0.143451    34A      0.162781
      35A      0.357961    36A      0.374438    37A      0.386546
      38A      0.427664    39A      0.439323    40A      0.463995
      41A      0.472356    42A      0.521297    43A      0.534131
      44A      0.579712    45A      0.618929    46A      0.644474
      47A      0.652957    48A      0.664599    49A      0.675633
      50A      0.683536    51A      0.707068    52A      0.714858
      53A      0.741652    54A      0.751649    55A      0.752177
      56A      0.765229    57A      0.791046    58A      0.801697
      59A      0.835500    60A      0.857461    61A      0.926266
      62A      0.978292    63A      1.053639    64A      1.065881
      65A      1.128506    66A      1.176967    67A      1.220336
      68A      1.255219    69A      1.271297    70A      1.317042
      71A      1.464486    72A      1.483460    73A      1.542923
      74A      1.571113    75A      1.589621    76A      1.616220
      77A      1.627847    78A      1.679844    79A      1.691960
      80A      1.707261    81A      1.730356    82A      1.761076
      83A      1.783313    84A      1.787410    85A      1.858940
      86A      1.885774    87A      1.902373    88A      1.922079
      89A      1.955442    90A      1.968752    91A      1.997078
      92A      2.103022    93A      2.116160    94A      2.233331
      95A      2.242197    96A      2.253285    97A      2.278693
      98A      2.297300    99A      2.352416   100A      2.477447
     101A      2.488926   102A      2.540098   103A      2.604493
     104A      2.649326   105A      2.666102   106A      2.698235
     107A      2.717817   108A      2.749629   109A      3.074005
     110A      3.093285

    Final Occupation by Irrep:
              A
    DOCC [    22 ]

  @RHF Final Energy:  -533.32218962756269

   => Energetics <=

    Nuclear Repulsion Energy =            172.0845614414305942
    One-Electron Energy =               -1065.5891969262097518
    Two-Electron Energy =                 360.1824458572164076
    Total Energy =                       -533.3221896275626932

Computation Completed

Properties will be evaluated at   0.000000,   0.000000,   0.000000 [a0]

Properties computed using the SCF density matrix

  Nuclear Dipole Moment: [e a0]
     X:    -2.8999      Y:     1.8166      Z:     5.0663

  Electronic Dipole Moment: [e a0]
     X:     0.0602      Y:    -1.6607      Z:    -3.9152

  Dipole Moment: [e a0]
     X:    -2.8398      Y:     0.1559      Z:     1.1511     Total:     3.0682

  Dipole Moment: [D]
     X:    -7.2179      Y:     0.3963      Z:     2.9258     Total:     7.7985

*** tstop() called on ds3 at Tue Apr 28 14:59:14 2020
Module time:
	user time   =       9.38 seconds =       0.16 minutes
	system time =       0.11 seconds =       0.00 minutes
	total time  =          9 seconds =       0.15 minutes
Total time:
	user time   =       9.38 seconds =       0.16 minutes
	system time =       0.11 seconds =       0.00 minutes
	total time  =          9 seconds =       0.15 minutes
                                     G D M A

                                 by Anthony Stone

                           version 2.2.06, 22 June 2011

               Distributed Multipoles from Gaussian wavefunctions

Starting at 14:59:14 on 28 Apr 2020

Using SCF density matrix from file ./SSI/SSI-084CYS-090LYS-1-dimer.test.25266.fchk

                         Distributed Multipole Analysis

Standard DMA

Positions and radii in angstrom
Multipole moments in atomic units, ea_0^k for rank k

C          x =  2.159202  y =  0.514482  z = -0.005932 angstrom
           Maximum rank =  0   Radius =  0.650 angstrom
                   Q00  =  -0.309080

S          x =  0.909202  y = -0.446518  z = -0.877932 angstrom
           Maximum rank =  0   Radius =  0.650 angstrom
                   Q00  =  -0.224333

H          x =  1.466202  y = -1.654518  z = -0.697932 angstrom
           Maximum rank =  0   Radius =  0.325 angstrom
                   Q00  =   0.149043

H          x =  3.143202  y =  0.234482  z = -0.391932 angstrom
           Maximum rank =  0   Radius =  0.325 angstrom
                   Q00  =   0.134208

H          x =  2.134202  y =  0.229482  z =  1.049068 angstrom
           Maximum rank =  0   Radius =  0.325 angstrom
                   Q00  =   0.096268

H          x =  2.042762  y =  1.604492  z = -0.097122 angstrom
           Maximum rank =  0   Radius =  0.325 angstrom
                   Q00  =   0.135827

C          x = -1.798798  y =  0.487482  z =  1.638068 angstrom
           Maximum rank =  0   Radius =  0.650 angstrom
                   Q00  =  -0.141077

N          x = -2.159798  y =  0.020482  z =  0.215068 angstrom
           Maximum rank =  0   Radius =  0.650 angstrom
                   Q00  =  -0.137219

H          x = -1.902798  y =  0.697482  z = -0.503932 angstrom
           Maximum rank =  0   Radius =  0.325 angstrom
                   Q00  =   0.276717

H          x = -1.707798  y = -0.864518  z =  0.004068 angstrom
           Maximum rank =  0   Radius =  0.325 angstrom
                   Q00  =   0.275676

H          x = -3.160798  y = -0.130518  z =  0.138068 angstrom
           Maximum rank =  0   Radius =  0.325 angstrom
                   Q00  =   0.248068

H          x = -0.711798  y =  0.536482  z =  1.760068 angstrom
           Maximum rank =  0   Radius =  0.325 angstrom
                   Q00  =   0.169234

H          x = -2.203798  y = -0.194518  z =  2.393068 angstrom
           Maximum rank =  0   Radius =  0.325 angstrom
                   Q00  =   0.166422

H          x = -2.225038  y =  1.492092  z =  1.776178 angstrom
           Maximum rank =  0   Radius =  0.325 angstrom
                   Q00  =   0.160245

Total multipoles referred to origin at
           x =   0.000000,  y =    0.000000,  z =    0.000000 angstrom
                   Q00  =   1.000000

Finished at 14:59:14 on 28 Apr 2020

  DMA results are available in the Python driver through the
	  variable('DMA DISTRIBUTED MULTIPOLES')
  and
	  variable('DMA TOTAL MULTIPOLES')
  commands.

    Psi4 stopped on: Tuesday, 28 April 2020 02:59PM
    Psi4 wall time for execution: 0:00:09.88

*** Psi4 exiting successfully. Buy a developer a beer!
