                               Psi4 1.3.2 release

  ==> Input File <==

--------------------------------------------------------------------------
import numpy as np
set {scf_type pk
basis cc-pvdz
d_convergence 10
gdma_switch   0
gdma_limit    0
gdma_origin   [ 0.0,  0.0,  0.0 ]
}
molecule test {
    units Angstrom
    1 1
    --
    1 1
    C                4.207687688100588     0.356422220359081     3.637535392982156
    C                2.575687688100589     0.504422220359081     1.789535392982156
    N                1.334687688100589     0.487422220359081     1.325535392982156
    N                2.838687688100589     0.364422220359081     3.077535392982156
    N                3.590687688100589     0.701422220359081     0.984535392982156
    H                0.549687688100589     0.391422220359081     1.947535392982156
    H                1.216687688100589     0.609422220359081     0.316535392982156
    H                2.062687688100589     0.253422220359081     3.715535392982156
    H                4.521687688100589     0.804422220359081     1.344535392982156
    H                3.404687688100589     0.874422220359081     0.006535392982156
    H                4.146687688100589     0.502422220359081     4.718535392982156
    H                4.806687688100588     1.175422220359081     3.233535392982156
    H                4.698845688100589    -0.608857779640919     3.445185392982156
    C               -4.248312311899411    -1.262577779640919    -2.906464607017844
    C               -0.906312311899411     0.249422220359081    -0.814464607017844
    C               -1.914312311899411    -0.323577779640919    -0.127464607017844
    C               -1.001312311899411     0.340422220359081    -2.199464607017844
    C               -2.985312311899411    -0.804577779640919    -0.823464607017844
    C               -1.983312311899411    -0.196577779640919    -2.911464607017844
    C               -3.046312311899411    -0.725577779640919    -2.205464607017844
    H               -0.374312311899411     0.997422220359081    -0.263464607017844
    H               -1.933312311899411    -0.301577779640919     0.954535392982156
    H               -0.654312311899411     1.269422220359081    -2.640464607017844
    H               -3.818312311899411    -1.224577779640919    -0.274464607017844
    H               -2.061312311899411    -0.026577779640919    -3.975464607017844
    H               -4.393312311899412    -0.690577779640919    -3.824464607017844
    H               -5.130312311899412    -1.103577779640919    -2.283464607017844
    H               -4.164017311899411    -2.330787779640919    -3.155104607017844

}
e, wfn = energy('scf', return_wfn=True)
gdma(wfn)
dmavals = variable('DMA DISTRIBUTED MULTIPOLES')
charges = np.array(dmavals)
print(charges)
np.save('SSI-041ARG-051PHE-1-dimer.npy', np.array(charges))--------------------------------------------------------------------------

*** tstart() called on ds3
*** at Tue Apr 28 13:48:27 2020

   => Loading Basis Set <=

    Name: CC-PVDZ
    Role: ORBITAL
    Keyword: BASIS
    atoms 1-2, 14-20  entry C          line   138 file /theoryfs2/ds/metcalf/miniconda2/envs/tf2gpu/share/psi4/basis/cc-pvdz.gbs
    atoms 3-5         entry N          line   168 file /theoryfs2/ds/metcalf/miniconda2/envs/tf2gpu/share/psi4/basis/cc-pvdz.gbs
    atoms 6-13, 21-28 entry H          line    22 file /theoryfs2/ds/metcalf/miniconda2/envs/tf2gpu/share/psi4/basis/cc-pvdz.gbs

         ---------------------------------------------------------
                                   SCF
               by Justin Turney, Rob Parrish, Andy Simmonett
                          and Daniel G. A. Smith
                              RHF Reference
                        1 Threads,    500 MiB Core
         ---------------------------------------------------------

  ==> Geometry <==

    Molecular point group: c1
    Full point group: C1

    Geometry (in Angstrom), charge = 1, multiplicity = 1:

       Center              X                  Y                   Z               Mass
    ------------   -----------------  -----------------  -----------------  -----------------
         C            4.207687688101     0.356422220359     3.637535392982    12.000000000000
         C            2.575687688101     0.504422220359     1.789535392982    12.000000000000
         N            1.334687688101     0.487422220359     1.325535392982    14.003074004430
         N            2.838687688101     0.364422220359     3.077535392982    14.003074004430
         N            3.590687688101     0.701422220359     0.984535392982    14.003074004430
         H            0.549687688101     0.391422220359     1.947535392982     1.007825032230
         H            1.216687688101     0.609422220359     0.316535392982     1.007825032230
         H            2.062687688101     0.253422220359     3.715535392982     1.007825032230
         H            4.521687688101     0.804422220359     1.344535392982     1.007825032230
         H            3.404687688101     0.874422220359     0.006535392982     1.007825032230
         H            4.146687688101     0.502422220359     4.718535392982     1.007825032230
         H            4.806687688101     1.175422220359     3.233535392982     1.007825032230
         H            4.698845688101    -0.608857779641     3.445185392982     1.007825032230
         C           -4.248312311899    -1.262577779641    -2.906464607018    12.000000000000
         C           -0.906312311899     0.249422220359    -0.814464607018    12.000000000000
         C           -1.914312311899    -0.323577779641    -0.127464607018    12.000000000000
         C           -1.001312311899     0.340422220359    -2.199464607018    12.000000000000
         C           -2.985312311899    -0.804577779641    -0.823464607018    12.000000000000
         C           -1.983312311899    -0.196577779641    -2.911464607018    12.000000000000
         C           -3.046312311899    -0.725577779641    -2.205464607018    12.000000000000
         H           -0.374312311899     0.997422220359    -0.263464607018     1.007825032230
         H           -1.933312311899    -0.301577779641     0.954535392982     1.007825032230
         H           -0.654312311899     1.269422220359    -2.640464607018     1.007825032230
         H           -3.818312311899    -1.224577779641    -0.274464607018     1.007825032230
         H           -2.061312311899    -0.026577779641    -3.975464607018     1.007825032230
         H           -4.393312311899    -0.690577779641    -3.824464607018     1.007825032230
         H           -5.130312311899    -1.103577779641    -2.283464607018     1.007825032230
         H           -4.164017311899    -2.330787779641    -3.155104607018     1.007825032230

  Running in c1 symmetry.

  Rotational constants: A =      0.10820  B =      0.00804  C =      0.00758 [cm^-1]
  Rotational constants: A =   3243.69317  B =    240.92758  C =    227.38937 [MHz]
  Nuclear repulsion =  643.590896863465787

  Charge       = 1
  Multiplicity = 1
  Electrons    = 90
  Nalpha       = 45
  Nbeta        = 45

  ==> Algorithm <==

  SCF Algorithm Type is PK.
  DIIS enabled.
  MOM disabled.
  Fractional occupation disabled.
  Guess Type is SAD.
  Energy threshold   = 1.00e-06
  Density threshold  = 1.00e-10
  Integral threshold = 0.00e+00

  ==> Primary Basis <==

  Basis Set: CC-PVDZ
    Blend: CC-PVDZ
    Number of shells: 120
    Number of basis function: 248
    Number of Cartesian functions: 260
    Spherical Harmonics?: true
    Max angular momentum: 2

  ==> Pre-Iterations <==

   -------------------------------------------------------
    Irrep   Nso     Nmo     Nalpha   Nbeta   Ndocc  Nsocc
   -------------------------------------------------------
     A        248     248       0       0       0       0
   -------------------------------------------------------
    Total     248     248      45      45      45       0
   -------------------------------------------------------

  ==> Integral Setup <==

  Using integral reordering PK algorithm.
  Sizing the integral batches needed.
  Building batch lookup table.
   Calculation information:
      Number of atoms:                  28
      Number of AO shells:             120
      Number of primitives:            344
      Number of atomic orbitals:       260
      Number of basis functions:       248

      Integral cutoff                 1.00e-12
      Number of threads:                 1

	Batch   1 pq = [       0,    9405] index = [             0,44231715] size =     44231715
	Batch   2 pq = [    9405,   13301] index = [      44231715,88464951] size =     44233236
	Batch   3 pq = [   13301,   16290] index = [      88464951,132690195] size =     44225244
	Batch   4 pq = [   16290,   18810] index = [     132690195,176917455] size =     44227260
	Batch   5 pq = [   18810,   21030] index = [     176917455,221140965] size =     44223510
	Batch   6 pq = [   21030,   23037] index = [     221140965,265363203] size =     44222238
	Batch   7 pq = [   23037,   24883] index = [     265363203,309594286] size =     44231083
	Batch   8 pq = [   24883,   26601] index = [     309594286,353819901] size =     44225615
	Batch   9 pq = [   26601,   28214] index = [     353819901,398029005] size =     44209104
	Batch  10 pq = [   28214,   29740] index = [     398029005,442248670] size =     44219665
	Batch  11 pq = [   29740,   30876] index = [     442248670,476679126] size =     34430456
  Task number: 44
  Buffer size: 11059200
  Buffer per thread: 2
  We computed 18548560 shell quartets total.
  Whereas there are 26357430 unique shell quartets.

  ==> DiskJK: Disk-Based J/K Matrices <==

    J tasked:                  Yes
    K tasked:                  Yes
    wK tasked:                  No
    Memory [MiB]:              375
    Schwarz Cutoff:          1E-12

    OpenMP threads:              1

  Minimum eigenvalue in the overlap matrix is 3.5707678714E-04.
  Using Symmetric Orthogonalization.

  SCF Guess: Superposition of Atomic Densities via on-the-fly atomic UHF.

  ==> Iterations <==

                        Total Energy        Delta E     RMS |[F,P]|

   @RHF iter SAD:  -513.07945119962858   -5.13079e+02   0.00000e+00
   @RHF iter   1:  -513.01722367179639    6.22275e-02   2.66862e-03 DIIS
   @RHF iter   2:  -513.25820587119733   -2.40982e-01   1.07707e-03 DIIS
   @RHF iter   3:  -513.29431834601348   -3.61125e-02   2.61269e-04 DIIS
   @RHF iter   4:  -513.29762253721321   -3.30419e-03   6.61578e-05 DIIS
   @RHF iter   5:  -513.29779284556616   -1.70308e-04   2.12953e-05 DIIS
   @RHF iter   6:  -513.29781473718162   -2.18916e-05   7.09303e-06 DIIS
   @RHF iter   7:  -513.29781749024312   -2.75306e-06   2.06917e-06 DIIS
   @RHF iter   8:  -513.29781797979865   -4.89556e-07   7.95579e-07 DIIS
   @RHF iter   9:  -513.29781807156598   -9.17673e-08   3.58940e-07 DIIS
   @RHF iter  10:  -513.29781809578037   -2.42144e-08   1.79301e-07 DIIS
   @RHF iter  11:  -513.29781810103225   -5.25188e-09   4.69023e-08 DIIS
   @RHF iter  12:  -513.29781810132283   -2.90584e-10   1.37009e-08 DIIS
   @RHF iter  13:  -513.29781810134068   -1.78488e-11   5.20133e-09 DIIS
   @RHF iter  14:  -513.29781810134057    1.13687e-13   1.77242e-09 DIIS
   @RHF iter  15:  -513.29781810133761    2.95586e-12   8.47268e-10 DIIS
   @RHF iter  16:  -513.29781810134136   -3.75167e-12   3.59399e-10 DIIS
   @RHF iter  17:  -513.29781810133795    3.41061e-12   1.44004e-10 DIIS
   @RHF iter  18:  -513.29781810134250   -4.54747e-12   6.54365e-11 DIIS
  Energy and wave function converged.

  ==> Post-Iterations <==

    Orbital Energies [Eh]
    ---------------------

    Doubly Occupied:

       1A    -15.781668     2A    -15.779592     3A    -15.777313
       4A    -11.579596     5A    -11.441370     6A    -11.332159
       7A    -11.330604     8A    -11.326067     9A    -11.322828
      10A    -11.316603    11A    -11.314712    12A    -11.303381
      13A     -1.540432    14A     -1.393324    15A     -1.385172
      16A     -1.268446    17A     -1.147144    18A     -1.136216
      19A     -1.123524    20A     -1.032047    21A     -1.022941
      22A     -0.976507    23A     -0.931751    24A     -0.920687
      25A     -0.896013    26A     -0.857457    27A     -0.847429
      28A     -0.820330    29A     -0.799420    30A     -0.782305
      31A     -0.739322    32A     -0.736849    33A     -0.720562
      34A     -0.718654    35A     -0.684902    36A     -0.664155
      37A     -0.655332    38A     -0.616634    39A     -0.610393
      40A     -0.593115    41A     -0.581799    42A     -0.578175
      43A     -0.562309    44A     -0.434966    45A     -0.417230

    Virtual:

      46A     -0.002618    47A      0.025074    48A      0.029575
      49A      0.037169    50A      0.041039    51A      0.048020
      52A      0.055999    53A      0.095945    54A      0.112552
      55A      0.117476    56A      0.124229    57A      0.134996
      58A      0.142778    59A      0.146128    60A      0.173413
      61A      0.176762    62A      0.179822    63A      0.203721
      64A      0.216482    65A      0.224497    66A      0.263320
      67A      0.289197    68A      0.302161    69A      0.320758
      70A      0.353396    71A      0.365894    72A      0.385806
      73A      0.403202    74A      0.406005    75A      0.447727
      76A      0.460454    77A      0.471858    78A      0.504803
      79A      0.512332    80A      0.527779    81A      0.529692
      82A      0.537348    83A      0.549143    84A      0.554336
      85A      0.574222    86A      0.592112    87A      0.603159
      88A      0.611828    89A      0.634772    90A      0.648926
      91A      0.656500    92A      0.667246    93A      0.668136
      94A      0.684802    95A      0.693402    96A      0.703121
      97A      0.706494    98A      0.711437    99A      0.714375
     100A      0.722398   101A      0.741080   102A      0.750488
     103A      0.759005   104A      0.764003   105A      0.777403
     106A      0.782943   107A      0.795201   108A      0.804020
     109A      0.811201   110A      0.818758   111A      0.824327
     112A      0.843475   113A      0.849646   114A      0.860314
     115A      0.866639   116A      0.873931   117A      0.900931
     118A      0.921658   119A      0.938097   120A      0.944395
     121A      0.947930   122A      0.965525   123A      0.996362
     124A      1.022340   125A      1.032919   126A      1.048549
     127A      1.056635   128A      1.067706   129A      1.084914
     130A      1.089979   131A      1.113151   132A      1.130038
     133A      1.149541   134A      1.154535   135A      1.176195
     136A      1.184755   137A      1.203802   138A      1.218494
     139A      1.227493   140A      1.246562   141A      1.248474
     142A      1.277849   143A      1.319512   144A      1.328367
     145A      1.360906   146A      1.414270   147A      1.435861
     148A      1.468429   149A      1.472772   150A      1.493280
     151A      1.498517   152A      1.515809   153A      1.522677
     154A      1.547680   155A      1.562666   156A      1.570850
     157A      1.595798   158A      1.632257   159A      1.643154
     160A      1.657849   161A      1.670832   162A      1.676443
     163A      1.690540   164A      1.699721   165A      1.717932
     166A      1.732276   167A      1.737220   168A      1.741781
     169A      1.762156   170A      1.767659   171A      1.775162
     172A      1.800343   173A      1.809004   174A      1.821852
     175A      1.826439   176A      1.836373   177A      1.842242
     178A      1.848189   179A      1.854575   180A      1.861257
     181A      1.868752   182A      1.895308   183A      1.907607
     184A      1.930349   185A      1.942675   186A      1.970773
     187A      1.984663   188A      2.004811   189A      2.013259
     190A      2.033231   191A      2.037719   192A      2.054420
     193A      2.082903   194A      2.099126   195A      2.110129
     196A      2.125278   197A      2.137685   198A      2.149899
     199A      2.161270   200A      2.178512   201A      2.181681
     202A      2.210102   203A      2.214591   204A      2.227005
     205A      2.244154   206A      2.248035   207A      2.248630
     208A      2.289176   209A      2.326570   210A      2.343265
     211A      2.357963   212A      2.373044   213A      2.386964
     214A      2.407554   215A      2.443777   216A      2.453512
     217A      2.463651   218A      2.518517   219A      2.526213
     220A      2.546227   221A      2.591033   222A      2.607839
     223A      2.646087   224A      2.650525   225A      2.653996
     226A      2.691856   227A      2.700476   228A      2.713405
     229A      2.735718   230A      2.759652   231A      2.775572
     232A      2.779654   233A      2.781754   234A      2.822293
     235A      2.847691   236A      2.885251   237A      2.904584
     238A      2.912737   239A      2.944393   240A      3.061588
     241A      3.071368   242A      3.118568   243A      3.148201
     244A      3.179870   245A      3.206502   246A      3.568624
     247A      3.663499   248A      3.802094

    Final Occupation by Irrep:
              A
    DOCC [    45 ]

  @RHF Final Energy:  -513.29781810134250

   => Energetics <=

    Nuclear Repulsion Energy =            643.5908968634657867
    One-Electron Energy =               -1958.1745672756560452
    Two-Electron Energy =                 801.2858523108477584
    Total Energy =                       -513.2978181013425001

Computation Completed

Properties will be evaluated at   0.000000,   0.000000,   0.000000 [a0]

Properties computed using the SCF density matrix

  Nuclear Dipole Moment: [e a0]
     X:     2.6759      Y:     0.5498      Z:     3.0457

  Electronic Dipole Moment: [e a0]
     X:     1.4244      Y:     0.4554      Z:     0.0696

  Dipole Moment: [e a0]
     X:     4.1003      Y:     1.0051      Z:     3.1154     Total:     5.2468

  Dipole Moment: [D]
     X:    10.4220      Y:     2.5548      Z:     7.9185     Total:    13.3359

*** tstop() called on ds3 at Tue Apr 28 13:53:58 2020
Module time:
	user time   =     149.58 seconds =       2.49 minutes
	system time =      75.75 seconds =       1.26 minutes
	total time  =        331 seconds =       5.52 minutes
Total time:
	user time   =     149.58 seconds =       2.49 minutes
	system time =      75.75 seconds =       1.26 minutes
	total time  =        331 seconds =       5.52 minutes
                                     G D M A

                                 by Anthony Stone

                           version 2.2.06, 22 June 2011

               Distributed Multipoles from Gaussian wavefunctions

Starting at 13:53:58 on 28 Apr 2020

Using SCF density matrix from file ./SSI/SSI-041ARG-051PHE-1-dimer.test.16212.fchk

                         Distributed Multipole Analysis

Standard DMA

Positions and radii in angstrom
Multipole moments in atomic units, ea_0^k for rank k

C          x =  4.207688  y =  0.356422  z =  3.637535 angstrom
           Maximum rank =  0   Radius =  0.650 angstrom
                   Q00  =  -0.131921

C          x =  2.575688  y =  0.504422  z =  1.789535 angstrom
           Maximum rank =  0   Radius =  0.650 angstrom
                   Q00  =   1.084954

N          x =  1.334688  y =  0.487422  z =  1.325535 angstrom
           Maximum rank =  0   Radius =  0.650 angstrom
                   Q00  =  -0.584883

N          x =  2.838688  y =  0.364422  z =  3.077535 angstrom
           Maximum rank =  0   Radius =  0.650 angstrom
                   Q00  =  -0.503014

N          x =  3.590688  y =  0.701422  z =  0.984535 angstrom
           Maximum rank =  0   Radius =  0.650 angstrom
                   Q00  =  -0.579672

H          x =  0.549688  y =  0.391422  z =  1.947535 angstrom
           Maximum rank =  0   Radius =  0.325 angstrom
                   Q00  =   0.273317

H          x =  1.216688  y =  0.609422  z =  0.316535 angstrom
           Maximum rank =  0   Radius =  0.325 angstrom
                   Q00  =   0.278463

H          x =  2.062688  y =  0.253422  z =  3.715535 angstrom
           Maximum rank =  0   Radius =  0.325 angstrom
                   Q00  =   0.235464

H          x =  4.521688  y =  0.804422  z =  1.344535 angstrom
           Maximum rank =  0   Radius =  0.325 angstrom
                   Q00  =   0.274063

H          x =  3.404688  y =  0.874422  z =  0.006535 angstrom
           Maximum rank =  0   Radius =  0.325 angstrom
                   Q00  =   0.261363

H          x =  4.146688  y =  0.502422  z =  4.718535 angstrom
           Maximum rank =  0   Radius =  0.325 angstrom
                   Q00  =   0.167825

H          x =  4.806688  y =  1.175422  z =  3.233535 angstrom
           Maximum rank =  0   Radius =  0.325 angstrom
                   Q00  =   0.109713

H          x =  4.698846  y = -0.608858  z =  3.445185 angstrom
           Maximum rank =  0   Radius =  0.325 angstrom
                   Q00  =   0.127935

C          x = -4.248312  y = -1.262578  z = -2.906465 angstrom
           Maximum rank =  0   Radius =  0.650 angstrom
                   Q00  =  -0.200800

C          x = -0.906312  y =  0.249422  z = -0.814465 angstrom
           Maximum rank =  0   Radius =  0.650 angstrom
                   Q00  =  -0.237195

C          x = -1.914312  y = -0.323578  z = -0.127465 angstrom
           Maximum rank =  0   Radius =  0.650 angstrom
                   Q00  =  -0.049211

C          x = -1.001312  y =  0.340422  z = -2.199465 angstrom
           Maximum rank =  0   Radius =  0.650 angstrom
                   Q00  =  -0.000348

C          x = -2.985312  y = -0.804578  z = -0.823465 angstrom
           Maximum rank =  0   Radius =  0.650 angstrom
                   Q00  =  -0.039209

C          x = -1.983312  y = -0.196578  z = -2.911465 angstrom
           Maximum rank =  0   Radius =  0.650 angstrom
                   Q00  =  -0.062687

C          x = -3.046312  y = -0.725578  z = -2.205465 angstrom
           Maximum rank =  0   Radius =  0.650 angstrom
                   Q00  =  -0.085631

H          x = -0.374312  y =  0.997422  z = -0.263465 angstrom
           Maximum rank =  0   Radius =  0.325 angstrom
                   Q00  =   0.035433

H          x = -1.933312  y = -0.301578  z =  0.954535 angstrom
           Maximum rank =  0   Radius =  0.325 angstrom
                   Q00  =   0.052114

H          x = -0.654312  y =  1.269422  z = -2.640465 angstrom
           Maximum rank =  0   Radius =  0.325 angstrom
                   Q00  =   0.095171

H          x = -3.818312  y = -1.224578  z = -0.274465 angstrom
           Maximum rank =  0   Radius =  0.325 angstrom
                   Q00  =   0.066840

H          x = -2.061312  y = -0.026578  z = -3.975465 angstrom
           Maximum rank =  0   Radius =  0.325 angstrom
                   Q00  =   0.082874

H          x = -4.393312  y = -0.690578  z = -3.824465 angstrom
           Maximum rank =  0   Radius =  0.325 angstrom
                   Q00  =   0.104739

H          x = -5.130312  y = -1.103578  z = -2.283465 angstrom
           Maximum rank =  0   Radius =  0.325 angstrom
                   Q00  =   0.106205

H          x = -4.164017  y = -2.330788  z = -3.155105 angstrom
           Maximum rank =  0   Radius =  0.325 angstrom
                   Q00  =   0.118098

Total multipoles referred to origin at
           x =   0.000000,  y =    0.000000,  z =    0.000000 angstrom
                   Q00  =   1.000000

Finished at 13:53:58 on 28 Apr 2020

  DMA results are available in the Python driver through the
	  variable('DMA DISTRIBUTED MULTIPOLES')
  and
	  variable('DMA TOTAL MULTIPOLES')
  commands.

    Psi4 stopped on: Tuesday, 28 April 2020 01:53PM
    Psi4 wall time for execution: 0:05:31.30

*** Psi4 exiting successfully. Buy a developer a beer!
