                               Psi4 1.3.2 release

  ==> Input File <==

--------------------------------------------------------------------------
import numpy as np
set {scf_type pk
basis cc-pvdz
d_convergence 10
gdma_switch   0
gdma_limit    0
gdma_origin   [ 0.0,  0.0,  0.0 ]
}
molecule test {
    units Angstrom
    1 1
    --
    1 1
    C               -2.201721798989356    -0.687475613315822     1.627975410487198
    C               -1.455721798989355    -0.152475613315822     2.844975410487197
    N               -3.001721798989355     0.392524386684178     0.978975410487197
    H               -1.467721798989355    -1.091475613315822     0.917975410487197
    H               -2.856721798989355    -1.507475613315822     1.942975410487198
    H               -2.177721798989355     0.315524386684178     3.518975410487197
    H               -0.733721798989355     0.602524386684178     2.539975410487197
    H               -2.417721798989355     1.188524386684178     0.742975410487198
    H               -3.428721798989355     0.081524386684178     0.112975410487198
    H               -3.737721798989355     0.737524386684178     1.587975410487197
    H               -0.936531798989355    -0.955455613315823     3.388720410487197
    C                1.232278201010645    -2.156475613315822    -2.698024589512803
    C                0.828278201010645     1.086524386684178     0.137975410487198
    C                1.561278201010645    -0.052475613315822     0.474975410487198
    C                0.214278201010645     1.173524386684178    -1.113024589512802
    C                1.680278201010645    -1.099475613315822    -0.444024589512802
    C                0.339278201010645     0.119524386684178    -2.026024589512803
    C                1.074278201010645    -1.025475613315822    -1.703024589512802
    O                0.724278201010645     2.116524386684178     1.027975410487198
    H                2.047278201010645    -0.121475613315822     1.438975410487198
    H                1.251278201010645     1.969524386684178     1.822975410487198
    H               -0.341721798989355     2.063524386684178    -1.376024589512802
    H                2.263278201010645    -1.968475613315822    -0.179024589512802
    H               -0.130721798989355     0.199524386684178    -2.999024589512802
    H                2.290278201010644    -2.420475613315823    -2.722024589512803
    H                0.969278201010645    -1.808475613315822    -3.699024589512803
    H                0.654648201010645    -3.058515613315822    -2.447694589512803

}
e, wfn = energy('scf', return_wfn=True)
gdma(wfn)
dmavals = variable('DMA DISTRIBUTED MULTIPOLES')
charges = np.array(dmavals)
print(charges)
np.save('SSI-021LYS-032TYR-1-dimer.npy', np.array(charges))--------------------------------------------------------------------------

*** tstart() called on ds3
*** at Sun Apr 26 20:44:24 2020

   => Loading Basis Set <=

    Name: CC-PVDZ
    Role: ORBITAL
    Keyword: BASIS
    atoms 1-2, 12-18  entry C          line   138 file /theoryfs2/ds/metcalf/miniconda2/envs/tf2gpu/share/psi4/basis/cc-pvdz.gbs
    atoms 3           entry N          line   168 file /theoryfs2/ds/metcalf/miniconda2/envs/tf2gpu/share/psi4/basis/cc-pvdz.gbs
    atoms 4-11, 20-27 entry H          line    22 file /theoryfs2/ds/metcalf/miniconda2/envs/tf2gpu/share/psi4/basis/cc-pvdz.gbs
    atoms 19          entry O          line   198 file /theoryfs2/ds/metcalf/miniconda2/envs/tf2gpu/share/psi4/basis/cc-pvdz.gbs

         ---------------------------------------------------------
                                   SCF
               by Justin Turney, Rob Parrish, Andy Simmonett
                          and Daniel G. A. Smith
                              RHF Reference
                        1 Threads,    500 MiB Core
         ---------------------------------------------------------

  ==> Geometry <==

    Molecular point group: c1
    Full point group: C1

    Geometry (in Angstrom), charge = 1, multiplicity = 1:

       Center              X                  Y                   Z               Mass
    ------------   -----------------  -----------------  -----------------  -----------------
         C           -2.201721798989    -0.687475613316     1.627975410487    12.000000000000
         C           -1.455721798989    -0.152475613316     2.844975410487    12.000000000000
         N           -3.001721798989     0.392524386684     0.978975410487    14.003074004430
         H           -1.467721798989    -1.091475613316     0.917975410487     1.007825032230
         H           -2.856721798989    -1.507475613316     1.942975410487     1.007825032230
         H           -2.177721798989     0.315524386684     3.518975410487     1.007825032230
         H           -0.733721798989     0.602524386684     2.539975410487     1.007825032230
         H           -2.417721798989     1.188524386684     0.742975410487     1.007825032230
         H           -3.428721798989     0.081524386684     0.112975410487     1.007825032230
         H           -3.737721798989     0.737524386684     1.587975410487     1.007825032230
         H           -0.936531798989    -0.955455613316     3.388720410487     1.007825032230
         C            1.232278201011    -2.156475613316    -2.698024589513    12.000000000000
         C            0.828278201011     1.086524386684     0.137975410487    12.000000000000
         C            1.561278201011    -0.052475613316     0.474975410487    12.000000000000
         C            0.214278201011     1.173524386684    -1.113024589513    12.000000000000
         C            1.680278201011    -1.099475613316    -0.444024589513    12.000000000000
         C            0.339278201011     0.119524386684    -2.026024589513    12.000000000000
         C            1.074278201011    -1.025475613316    -1.703024589513    12.000000000000
         O            0.724278201011     2.116524386684     1.027975410487    15.994914619570
         H            2.047278201011    -0.121475613316     1.438975410487     1.007825032230
         H            1.251278201011     1.969524386684     1.822975410487     1.007825032230
         H           -0.341721798989     2.063524386684    -1.376024589513     1.007825032230
         H            2.263278201011    -1.968475613316    -0.179024589513     1.007825032230
         H           -0.130721798989     0.199524386684    -2.999024589513     1.007825032230
         H            2.290278201011    -2.420475613316    -2.722024589513     1.007825032230
         H            0.969278201011    -1.808475613316    -3.699024589513     1.007825032230
         H            0.654648201011    -3.058515613316    -2.447694589513     1.007825032230

  Running in c1 symmetry.

  Rotational constants: A =      0.04388  B =      0.02082  C =      0.01845 [cm^-1]
  Rotational constants: A =   1315.61530  B =    624.03274  C =    553.12650 [MHz]
  Nuclear repulsion =  613.953204688942378

  Charge       = 1
  Multiplicity = 1
  Electrons    = 84
  Nalpha       = 42
  Nbeta        = 42

  ==> Algorithm <==

  SCF Algorithm Type is PK.
  DIIS enabled.
  MOM disabled.
  Fractional occupation disabled.
  Guess Type is SAD.
  Energy threshold   = 1.00e-06
  Density threshold  = 1.00e-10
  Integral threshold = 0.00e+00

  ==> Primary Basis <==

  Basis Set: CC-PVDZ
    Blend: CC-PVDZ
    Number of shells: 114
    Number of basis function: 234
    Number of Cartesian functions: 245
    Spherical Harmonics?: true
    Max angular momentum: 2

  ==> Pre-Iterations <==

   -------------------------------------------------------
    Irrep   Nso     Nmo     Nalpha   Nbeta   Ndocc  Nsocc
   -------------------------------------------------------
     A        234     234       0       0       0       0
   -------------------------------------------------------
    Total     234     234      42      42      42       0
   -------------------------------------------------------

  ==> Integral Setup <==

  Using integral reordering PK algorithm.
  Sizing the integral batches needed.
  Building batch lookup table.
   Calculation information:
      Number of atoms:                  27
      Number of AO shells:             114
      Number of primitives:            322
      Number of atomic orbitals:       245
      Number of basis functions:       234

      Integral cutoff                 1.00e-12
      Number of threads:                 1

	Batch   1 pq = [       0,    9405] index = [             0,44231715] size =     44231715
	Batch   2 pq = [    9405,   13301] index = [      44231715,88464951] size =     44233236
	Batch   3 pq = [   13301,   16290] index = [      88464951,132690195] size =     44225244
	Batch   4 pq = [   16290,   18810] index = [     132690195,176917455] size =     44227260
	Batch   5 pq = [   18810,   21030] index = [     176917455,221140965] size =     44223510
	Batch   6 pq = [   21030,   23037] index = [     221140965,265363203] size =     44222238
	Batch   7 pq = [   23037,   24883] index = [     265363203,309594286] size =     44231083
	Batch   8 pq = [   24883,   26601] index = [     309594286,353819901] size =     44225615
	Batch   9 pq = [   26601,   27495] index = [     353819901,378001260] size =     24181359
  Task number: 35
  Buffer size: 11059200
  Buffer per thread: 2
  We computed 22023792 shell quartets total.
  Whereas there are 21487290 unique shell quartets.
     2.50 percent of shell quartets recomputed by reordering.

  ==> DiskJK: Disk-Based J/K Matrices <==

    J tasked:                  Yes
    K tasked:                  Yes
    wK tasked:                  No
    Memory [MiB]:              375
    Schwarz Cutoff:          1E-12

    OpenMP threads:              1

  Minimum eigenvalue in the overlap matrix is 3.2732594594E-04.
  Using Symmetric Orthogonalization.

  SCF Guess: Superposition of Atomic Densities via on-the-fly atomic UHF.

  ==> Iterations <==

                        Total Energy        Delta E     RMS |[F,P]|

   @RHF iter SAD:  -478.43653652806938   -4.78437e+02   0.00000e+00
   @RHF iter   1:  -479.00459189084398   -5.68055e-01   2.67384e-03 DIIS
   @RHF iter   2:  -479.23281283137840   -2.28221e-01   1.05967e-03 DIIS
   @RHF iter   3:  -479.26400666488178   -3.11938e-02   2.92727e-04 DIIS
   @RHF iter   4:  -479.26742019689453   -3.41353e-03   1.15119e-04 DIIS
   @RHF iter   5:  -479.26784325490286   -4.23058e-04   2.11220e-05 DIIS
   @RHF iter   6:  -479.26786695042972   -2.36955e-05   6.66203e-06 DIIS
   @RHF iter   7:  -479.26786913051671   -2.18009e-06   2.23968e-06 DIIS
   @RHF iter   8:  -479.26786945494405   -3.24427e-07   7.78517e-07 DIIS
   @RHF iter   9:  -479.26786950282843   -4.78844e-08   3.18493e-07 DIIS
   @RHF iter  10:  -479.26786951252558   -9.69715e-09   1.44071e-07 DIIS
   @RHF iter  11:  -479.26786951605425   -3.52867e-09   5.74060e-08 DIIS
   @RHF iter  12:  -479.26786951661285   -5.58600e-10   2.48899e-08 DIIS
   @RHF iter  13:  -479.26786951667771   -6.48583e-11   8.00328e-09 DIIS
   @RHF iter  14:  -479.26786951668112   -3.41061e-12   2.30005e-09 DIIS
   @RHF iter  15:  -479.26786951668191   -7.95808e-13   9.03579e-10 DIIS
   @RHF iter  16:  -479.26786951668453   -2.61480e-12   3.10951e-10 DIIS
   @RHF iter  17:  -479.26786951667930    5.22959e-12   1.47753e-10 DIIS
   @RHF iter  18:  -479.26786951668055   -1.25056e-12   7.12055e-11 DIIS
  Energy and wave function converged.

  ==> Post-Iterations <==

    Orbital Energies [Eh]
    ---------------------

    Doubly Occupied:

       1A    -20.705098     2A    -15.893185     3A    -11.470553
       4A    -11.417681     5A    -11.395727     6A    -11.352771
       7A    -11.351262     8A    -11.349317     9A    -11.348611
      10A    -11.345413    11A    -11.322943    12A     -1.519543
      13A     -1.511514    14A     -1.261281    15A     -1.209727
      16A     -1.144761    17A     -1.129856    18A     -1.046146
      19A     -1.029974    20A     -0.966922    21A     -0.957207
      22A     -0.954970    23A     -0.914323    24A     -0.850862
      25A     -0.846800    26A     -0.787075    27A     -0.779689
      28A     -0.752136    29A     -0.718286    30A     -0.715257
      31A     -0.709123    32A     -0.698635    33A     -0.688023
      34A     -0.678825    35A     -0.675112    36A     -0.666325
      37A     -0.627719    38A     -0.603452    39A     -0.595108
      40A     -0.579051    41A     -0.452990    42A     -0.416689

    Virtual:

      43A     -0.036572    44A      0.007514    45A      0.025535
      46A      0.040220    47A      0.042230    48A      0.045634
      49A      0.073060    50A      0.089211    51A      0.099613
      52A      0.104750    53A      0.115567    54A      0.123520
      55A      0.131997    56A      0.159184    57A      0.166016
      58A      0.172683    59A      0.185423    60A      0.186780
      61A      0.199676    62A      0.219993    63A      0.259335
      64A      0.267138    65A      0.310858    66A      0.346894
      67A      0.370440    68A      0.384428    69A      0.386508
      70A      0.389080    71A      0.409571    72A      0.427611
      73A      0.436706    74A      0.457527    75A      0.508705
      76A      0.529988    77A      0.542440    78A      0.548889
      79A      0.575067    80A      0.589394    81A      0.596892
      82A      0.613102    83A      0.618319    84A      0.624250
      85A      0.631185    86A      0.636975    87A      0.655599
      88A      0.656083    89A      0.671049    90A      0.676052
      91A      0.678870    92A      0.686178    93A      0.704051
      94A      0.732448    95A      0.738026    96A      0.744067
      97A      0.753581    98A      0.764743    99A      0.772190
     100A      0.777944   101A      0.785110   102A      0.787062
     103A      0.791501   104A      0.811670   105A      0.824318
     106A      0.833649   107A      0.834666   108A      0.842526
     109A      0.853583   110A      0.857065   111A      0.880021
     112A      0.899535   113A      0.910955   114A      0.936133
     115A      0.949007   116A      0.967415   117A      1.011882
     118A      1.029355   119A      1.032786   120A      1.042051
     121A      1.056816   122A      1.097692   123A      1.131129
     124A      1.135295   125A      1.152615   126A      1.180289
     127A      1.183787   128A      1.193830   129A      1.208589
     130A      1.232098   131A      1.236056   132A      1.270127
     133A      1.278202   134A      1.303524   135A      1.311349
     136A      1.371940   137A      1.389238   138A      1.408549
     139A      1.426971   140A      1.446855   141A      1.468988
     142A      1.483501   143A      1.506342   144A      1.513636
     145A      1.521761   146A      1.581223   147A      1.596400
     148A      1.598613   149A      1.624451   150A      1.637889
     151A      1.660452   152A      1.669160   153A      1.681139
     154A      1.695609   155A      1.717140   156A      1.732094
     157A      1.744053   158A      1.760845   159A      1.771248
     160A      1.774873   161A      1.793529   162A      1.797013
     163A      1.800770   164A      1.807138   165A      1.813522
     166A      1.819928   167A      1.826304   168A      1.841255
     169A      1.850076   170A      1.859458   171A      1.892474
     172A      1.897010   173A      1.906171   174A      1.910463
     175A      1.930439   176A      1.942750   177A      1.952808
     178A      1.958721   179A      1.960342   180A      1.982592
     181A      2.008679   182A      2.021238   183A      2.030576
     184A      2.044782   185A      2.060490   186A      2.082797
     187A      2.110917   188A      2.134858   189A      2.151646
     190A      2.155425   191A      2.165897   192A      2.183003
     193A      2.197140   194A      2.242204   195A      2.266694
     196A      2.299132   197A      2.311077   198A      2.331594
     199A      2.351839   200A      2.364609   201A      2.384524
     202A      2.390302   203A      2.420982   204A      2.440186
     205A      2.462128   206A      2.500074   207A      2.523138
     208A      2.526252   209A      2.554496   210A      2.616724
     211A      2.627064   212A      2.649683   213A      2.671629
     214A      2.680943   215A      2.690166   216A      2.716231
     217A      2.747384   218A      2.752363   219A      2.788276
     220A      2.795367   221A      2.836500   222A      2.882506
     223A      2.888107   224A      2.964712   225A      3.002137
     226A      3.115710   227A      3.128950   228A      3.143280
     229A      3.159955   230A      3.225766   231A      3.457238
     232A      3.545299   233A      3.847744   234A      4.065008

    Final Occupation by Irrep:
              A
    DOCC [    42 ]

  @RHF Final Energy:  -479.26786951668055

   => Energetics <=

    Nuclear Repulsion Energy =            613.9532046889423782
    One-Electron Energy =               -1855.5622714546470888
    Two-Electron Energy =                 762.3411972490241624
    Total Energy =                       -479.2678695166805483

Computation Completed

Properties will be evaluated at   0.000000,   0.000000,   0.000000 [a0]

Properties computed using the SCF density matrix

  Nuclear Dipole Moment: [e a0]
     X:    -8.1935      Y:    -5.4036      Z:     4.3067

  Electronic Dipole Moment: [e a0]
     X:     3.9080      Y:     5.2029      Z:    -2.2420

  Dipole Moment: [e a0]
     X:    -4.2855      Y:    -0.2006      Z:     2.0647     Total:     4.7611

  Dipole Moment: [D]
     X:   -10.8926      Y:    -0.5100      Z:     5.2479     Total:    12.1016

*** tstop() called on ds3 at Sun Apr 26 20:48:19 2020
Module time:
	user time   =     174.35 seconds =       2.91 minutes
	system time =      69.62 seconds =       1.16 minutes
	total time  =        235 seconds =       3.92 minutes
Total time:
	user time   =     174.35 seconds =       2.91 minutes
	system time =      69.62 seconds =       1.16 minutes
	total time  =        235 seconds =       3.92 minutes
                                     G D M A

                                 by Anthony Stone

                           version 2.2.06, 22 June 2011

               Distributed Multipoles from Gaussian wavefunctions

Starting at 20:48:19 on 26 Apr 2020

Using SCF density matrix from file ./SSI/SSI-021LYS-032TYR-1-dimer.test.10020.fchk

                         Distributed Multipole Analysis

Standard DMA

Positions and radii in angstrom
Multipole moments in atomic units, ea_0^k for rank k

C          x = -2.201722  y = -0.687476  z =  1.627975 angstrom
           Maximum rank =  0   Radius =  0.650 angstrom
                   Q00  =  -0.041515

C          x = -1.455722  y = -0.152476  z =  2.844975 angstrom
           Maximum rank =  0   Radius =  0.650 angstrom
                   Q00  =  -0.211247

N          x = -3.001722  y =  0.392524  z =  0.978975 angstrom
           Maximum rank =  0   Radius =  0.650 angstrom
                   Q00  =  -0.137371

H          x = -1.467722  y = -1.091476  z =  0.917975 angstrom
           Maximum rank =  0   Radius =  0.325 angstrom
                   Q00  =   0.145310

H          x = -2.856722  y = -1.507476  z =  1.942975 angstrom
           Maximum rank =  0   Radius =  0.325 angstrom
                   Q00  =   0.124297

H          x = -2.177722  y =  0.315524  z =  3.518975 angstrom
           Maximum rank =  0   Radius =  0.325 angstrom
                   Q00  =   0.091897

H          x = -0.733722  y =  0.602524  z =  2.539975 angstrom
           Maximum rank =  0   Radius =  0.325 angstrom
                   Q00  =   0.089579

H          x = -2.417722  y =  1.188524  z =  0.742975 angstrom
           Maximum rank =  0   Radius =  0.325 angstrom
                   Q00  =   0.264113

H          x = -3.428722  y =  0.081524  z =  0.112975 angstrom
           Maximum rank =  0   Radius =  0.325 angstrom
                   Q00  =   0.258103

H          x = -3.737722  y =  0.737524  z =  1.587975 angstrom
           Maximum rank =  0   Radius =  0.325 angstrom
                   Q00  =   0.253152

H          x = -0.936532  y = -0.955456  z =  3.388720 angstrom
           Maximum rank =  0   Radius =  0.325 angstrom
                   Q00  =   0.148814

C          x =  1.232278  y = -2.156476  z = -2.698025 angstrom
           Maximum rank =  0   Radius =  0.650 angstrom
                   Q00  =  -0.193988

C          x =  0.828278  y =  1.086524  z =  0.137975 angstrom
           Maximum rank =  0   Radius =  0.650 angstrom
                   Q00  =   0.285026

C          x =  1.561278  y = -0.052476  z =  0.474975 angstrom
           Maximum rank =  0   Radius =  0.650 angstrom
                   Q00  =  -0.183141

C          x =  0.214278  y =  1.173524  z = -1.113025 angstrom
           Maximum rank =  0   Radius =  0.650 angstrom
                   Q00  =  -0.159014

C          x =  1.680278  y = -1.099476  z = -0.444025 angstrom
           Maximum rank =  0   Radius =  0.650 angstrom
                   Q00  =   0.025351

C          x =  0.339278  y =  0.119524  z = -2.026025 angstrom
           Maximum rank =  0   Radius =  0.650 angstrom
                   Q00  =  -0.019443

C          x =  1.074278  y = -1.025476  z = -1.703025 angstrom
           Maximum rank =  0   Radius =  0.650 angstrom
                   Q00  =  -0.140669

O          x =  0.724278  y =  2.116524  z =  1.027975 angstrom
           Maximum rank =  0   Radius =  0.650 angstrom
                   Q00  =  -0.691372

H          x =  2.047278  y = -0.121476  z =  1.438975 angstrom
           Maximum rank =  0   Radius =  0.325 angstrom
                   Q00  =   0.085079

H          x =  1.251278  y =  1.969524  z =  1.822975 angstrom
           Maximum rank =  0   Radius =  0.325 angstrom
                   Q00  =   0.426588

H          x = -0.341722  y =  2.063524  z = -1.376025 angstrom
           Maximum rank =  0   Radius =  0.325 angstrom
                   Q00  =   0.080530

H          x =  2.263278  y = -1.968476  z = -0.179025 angstrom
           Maximum rank =  0   Radius =  0.325 angstrom
                   Q00  =   0.089862

H          x = -0.130722  y =  0.199524  z = -2.999025 angstrom
           Maximum rank =  0   Radius =  0.325 angstrom
                   Q00  =   0.082154

H          x =  2.290278  y = -2.420476  z = -2.722025 angstrom
           Maximum rank =  0   Radius =  0.325 angstrom
                   Q00  =   0.113983

H          x =  0.969278  y = -1.808476  z = -3.699025 angstrom
           Maximum rank =  0   Radius =  0.325 angstrom
                   Q00  =   0.109564

H          x =  0.654648  y = -3.058516  z = -2.447695 angstrom
           Maximum rank =  0   Radius =  0.325 angstrom
                   Q00  =   0.104358

Total multipoles referred to origin at
           x =   0.000000,  y =    0.000000,  z =    0.000000 angstrom
                   Q00  =   1.000000

Finished at 20:48:19 on 26 Apr 2020

  DMA results are available in the Python driver through the
	  variable('DMA DISTRIBUTED MULTIPOLES')
  and
	  variable('DMA TOTAL MULTIPOLES')
  commands.

    Psi4 stopped on: Sunday, 26 April 2020 08:48PM
    Psi4 wall time for execution: 0:03:55.67

*** Psi4 exiting successfully. Buy a developer a beer!
