                               Psi4 1.3.2 release

  ==> Input File <==

--------------------------------------------------------------------------
import numpy as np
set {scf_type pk
basis cc-pvdz
d_convergence 10
gdma_switch   0
gdma_limit    0
gdma_origin   [ 0.0,  0.0,  0.0 ]
}
molecule test {
    units Angstrom
    0 1
    --
    0 1
    C                1.601988858315878     1.916588649472740    -1.829619598377669
    C                0.726988858315877    -0.844411350527260     0.672380401622331
    C                1.232988858315877    -0.176411350527260    -0.458619598377669
    C               -0.049011141684123    -0.152411350527260     1.577380401622331
    C                0.989988858315878     1.189588649472739    -0.658619598377669
    C               -0.275011141684123     1.204588649472740     1.388380401622331
    C                0.233988858315877     1.870588649472740     0.285380401622331
    O               -0.577011141684122    -0.778411350527260     2.667380401622331
    H                0.935988858315878    -1.894411350527260     0.819380401622331
    H                1.840988858315878    -0.721411350527261    -1.167619598377669
    H               -0.303011141684123    -1.698411350527260     2.728380401622331
    H               -0.851011141684122     1.746588649472739     2.125380401622331
    H                2.319988858315878     1.256588649472740    -2.305619598377669
    H                2.144988858315878     2.776588649472740    -1.442619598377669
    H                0.088988858315877     2.937588649472739     0.217380401622331
    H                0.873518858315877     2.243858649472740    -2.586079598377669
    C               -1.957011141684122    -1.098411350527261    -1.810619598377669
    C               -1.463011141684122    -2.517411350527260    -1.709619598377669
    H               -2.577011141684122    -0.987411350527260    -2.694619598377670
    H               -2.556011141684122    -0.851411350527260    -0.935619598377669
    H               -1.119011141684122    -0.405411350527260    -1.871619598377669
    H               -2.310011141684122    -3.196411350527261    -1.800619598377669
    H               -1.057011141684122    -2.629411350527260    -0.705619598377669
    H               -0.679521141684122    -2.800821350527260    -2.427819598377669

}
e, wfn = energy('scf', return_wfn=True)
gdma(wfn)
dmavals = variable('DMA DISTRIBUTED MULTIPOLES')
charges = np.array(dmavals)
print(charges)
np.save('SSI-015TYR-034ILE-1-dimer.npy', np.array(charges))--------------------------------------------------------------------------

*** tstart() called on ds3
*** at Tue Apr 28 15:55:32 2020

   => Loading Basis Set <=

    Name: CC-PVDZ
    Role: ORBITAL
    Keyword: BASIS
    atoms 1-7, 17-18  entry C          line   138 file /theoryfs2/ds/metcalf/miniconda2/envs/tf2gpu/share/psi4/basis/cc-pvdz.gbs
    atoms 8           entry O          line   198 file /theoryfs2/ds/metcalf/miniconda2/envs/tf2gpu/share/psi4/basis/cc-pvdz.gbs
    atoms 9-16, 19-24 entry H          line    22 file /theoryfs2/ds/metcalf/miniconda2/envs/tf2gpu/share/psi4/basis/cc-pvdz.gbs

         ---------------------------------------------------------
                                   SCF
               by Justin Turney, Rob Parrish, Andy Simmonett
                          and Daniel G. A. Smith
                              RHF Reference
                        1 Threads,    500 MiB Core
         ---------------------------------------------------------

  ==> Geometry <==

    Molecular point group: c1
    Full point group: C1

    Geometry (in Angstrom), charge = 0, multiplicity = 1:

       Center              X                  Y                   Z               Mass
    ------------   -----------------  -----------------  -----------------  -----------------
         C            1.601988858316     1.916588649473    -1.829619598378    12.000000000000
         C            0.726988858316    -0.844411350527     0.672380401622    12.000000000000
         C            1.232988858316    -0.176411350527    -0.458619598378    12.000000000000
         C           -0.049011141684    -0.152411350527     1.577380401622    12.000000000000
         C            0.989988858316     1.189588649473    -0.658619598378    12.000000000000
         C           -0.275011141684     1.204588649473     1.388380401622    12.000000000000
         C            0.233988858316     1.870588649473     0.285380401622    12.000000000000
         O           -0.577011141684    -0.778411350527     2.667380401622    15.994914619570
         H            0.935988858316    -1.894411350527     0.819380401622     1.007825032230
         H            1.840988858316    -0.721411350527    -1.167619598378     1.007825032230
         H           -0.303011141684    -1.698411350527     2.728380401622     1.007825032230
         H           -0.851011141684     1.746588649473     2.125380401622     1.007825032230
         H            2.319988858316     1.256588649473    -2.305619598378     1.007825032230
         H            2.144988858316     2.776588649473    -1.442619598378     1.007825032230
         H            0.088988858316     2.937588649473     0.217380401622     1.007825032230
         H            0.873518858316     2.243858649473    -2.586079598378     1.007825032230
         C           -1.957011141684    -1.098411350527    -1.810619598378    12.000000000000
         C           -1.463011141684    -2.517411350527    -1.709619598378    12.000000000000
         H           -2.577011141684    -0.987411350527    -2.694619598378     1.007825032230
         H           -2.556011141684    -0.851411350527    -0.935619598378     1.007825032230
         H           -1.119011141684    -0.405411350527    -1.871619598378     1.007825032230
         H           -2.310011141684    -3.196411350527    -1.800619598378     1.007825032230
         H           -1.057011141684    -2.629411350527    -0.705619598378     1.007825032230
         H           -0.679521141684    -2.800821350527    -2.427819598378     1.007825032230

  Running in c1 symmetry.

  Rotational constants: A =      0.03966  B =      0.03537  C =      0.02291 [cm^-1]
  Rotational constants: A =   1188.92352  B =   1060.51447  C =    686.92526 [MHz]
  Nuclear repulsion =  512.429711169066991

  Charge       = 0
  Multiplicity = 1
  Electrons    = 76
  Nalpha       = 38
  Nbeta        = 38

  ==> Algorithm <==

  SCF Algorithm Type is PK.
  DIIS enabled.
  MOM disabled.
  Fractional occupation disabled.
  Guess Type is SAD.
  Energy threshold   = 1.00e-06
  Density threshold  = 1.00e-10
  Integral threshold = 0.00e+00

  ==> Primary Basis <==

  Basis Set: CC-PVDZ
    Blend: CC-PVDZ
    Number of shells: 102
    Number of basis function: 210
    Number of Cartesian functions: 220
    Spherical Harmonics?: true
    Max angular momentum: 2

  ==> Pre-Iterations <==

   -------------------------------------------------------
    Irrep   Nso     Nmo     Nalpha   Nbeta   Ndocc  Nsocc
   -------------------------------------------------------
     A        210     210       0       0       0       0
   -------------------------------------------------------
    Total     210     210      38      38      38       0
   -------------------------------------------------------

  ==> Integral Setup <==

  Using integral reordering PK algorithm.
  Sizing the integral batches needed.
  Building batch lookup table.
   Calculation information:
      Number of atoms:                  24
      Number of AO shells:             102
      Number of primitives:            290
      Number of atomic orbitals:       220
      Number of basis functions:       210

      Integral cutoff                 1.00e-12
      Number of threads:                 1

	Batch   1 pq = [       0,    9405] index = [             0,44231715] size =     44231715
	Batch   2 pq = [    9405,   13301] index = [      44231715,88464951] size =     44233236
	Batch   3 pq = [   13301,   16290] index = [      88464951,132690195] size =     44225244
	Batch   4 pq = [   16290,   18810] index = [     132690195,176917455] size =     44227260
	Batch   5 pq = [   18810,   21030] index = [     176917455,221140965] size =     44223510
	Batch   6 pq = [   21030,   22155] index = [     221140965,245433090] size =     24292125
  Task number: 23
  Buffer size: 11059200
  Buffer per thread: 2
  We computed 13641459 shell quartets total.
  Whereas there are 13799631 unique shell quartets.

  ==> DiskJK: Disk-Based J/K Matrices <==

    J tasked:                  Yes
    K tasked:                  Yes
    wK tasked:                  No
    Memory [MiB]:              375
    Schwarz Cutoff:          1E-12

    OpenMP threads:              1

  Minimum eigenvalue in the overlap matrix is 3.2256522229E-04.
  Using Symmetric Orthogonalization.

  SCF Guess: Superposition of Atomic Densities via on-the-fly atomic UHF.

  ==> Iterations <==

                        Total Energy        Delta E     RMS |[F,P]|

   @RHF iter SAD:  -422.76854710885368   -4.22769e+02   0.00000e+00
   @RHF iter   1:  -423.59545856293926   -8.26911e-01   3.00232e-03 DIIS
   @RHF iter   2:  -423.81387081679003   -2.18412e-01   1.26960e-03 DIIS
   @RHF iter   3:  -423.84944297375154   -3.55722e-02   2.78899e-04 DIIS
   @RHF iter   4:  -423.85227909928261   -2.83613e-03   1.10309e-04 DIIS
   @RHF iter   5:  -423.85259053845931   -3.11439e-04   2.16275e-05 DIIS
   @RHF iter   6:  -423.85260873272455   -1.81943e-05   6.45037e-06 DIIS
   @RHF iter   7:  -423.85261047206552   -1.73934e-06   2.06154e-06 DIIS
   @RHF iter   8:  -423.85261072442415   -2.52359e-07   7.88619e-07 DIIS
   @RHF iter   9:  -423.85261077081140   -4.63872e-08   3.34090e-07 DIIS
   @RHF iter  10:  -423.85261078075399   -9.94260e-09   1.39275e-07 DIIS
   @RHF iter  11:  -423.85261078379017   -3.03618e-09   6.02960e-08 DIIS
   @RHF iter  12:  -423.85261078426095   -4.70777e-10   2.53882e-08 DIIS
   @RHF iter  13:  -423.85261078432291   -6.19593e-11   7.92328e-09 DIIS
   @RHF iter  14:  -423.85261078432779   -4.88853e-12   2.19094e-09 DIIS
   @RHF iter  15:  -423.85261078432802   -2.27374e-13   8.78521e-10 DIIS
   @RHF iter  16:  -423.85261078432848   -4.54747e-13   3.69739e-10 DIIS
   @RHF iter  17:  -423.85261078432978   -1.30740e-12   1.71288e-10 DIIS
   @RHF iter  18:  -423.85261078433069   -9.09495e-13   8.27764e-11 DIIS
  Energy and wave function converged.

  ==> Post-Iterations <==

    Orbital Energies [Eh]
    ---------------------

    Doubly Occupied:

       1A    -20.583490     2A    -11.298170     3A    -11.241242
       4A    -11.237015     5A    -11.234707     6A    -11.233621
       7A    -11.229751     8A    -11.228329     9A    -11.209812
      10A    -11.203267    11A     -1.400283    12A     -1.152504
      13A     -1.040205    14A     -1.019058    15A     -1.014869
      16A     -0.928765    17A     -0.846151    18A     -0.828420
      19A     -0.803294    20A     -0.733252    21A     -0.668085
      22A     -0.642655    23A     -0.608496    24A     -0.598512
      25A     -0.592058    26A     -0.585804    27A     -0.583339
      28A     -0.572674    29A     -0.569080    30A     -0.527512
      31A     -0.500842    32A     -0.497414    33A     -0.486539
      34A     -0.480116    35A     -0.471831    36A     -0.463476
      37A     -0.337815    38A     -0.304099

    Virtual:

      39A      0.127650    40A      0.155341    41A      0.169863
      42A      0.181061    43A      0.208367    44A      0.211793
      45A      0.216920    46A      0.250556    47A      0.252742
      48A      0.258994    49A      0.269467    50A      0.272852
      51A      0.280684    52A      0.295172    53A      0.327448
      54A      0.331081    55A      0.370037    56A      0.378717
      57A      0.412836    58A      0.430499    59A      0.454508
      60A      0.475930    61A      0.496392    62A      0.515187
      63A      0.578627    64A      0.590912    65A      0.605350
      66A      0.617702    67A      0.631465    68A      0.640836
      69A      0.650021    70A      0.682193    71A      0.689230
      72A      0.693615    73A      0.706470    74A      0.736951
      75A      0.738048    76A      0.764073    77A      0.769623
      78A      0.775151    79A      0.788828    80A      0.796142
      81A      0.827677    82A      0.847295    83A      0.855495
      84A      0.859633    85A      0.874898    86A      0.877127
      87A      0.884282    88A      0.892538    89A      0.899683
      90A      0.910535    91A      0.914678    92A      0.924886
      93A      0.933997    94A      0.944868    95A      0.948257
      96A      0.950108    97A      0.965999    98A      0.997520
      99A      1.015320   100A      1.022979   101A      1.060402
     102A      1.068716   103A      1.120135   104A      1.124307
     105A      1.139435   106A      1.149874   107A      1.168441
     108A      1.185877   109A      1.199305   110A      1.230380
     111A      1.244936   112A      1.261691   113A      1.283350
     114A      1.296804   115A      1.303424   116A      1.313387
     117A      1.320189   118A      1.351878   119A      1.361602
     120A      1.393974   121A      1.464777   122A      1.479998
     123A      1.506344   124A      1.512947   125A      1.544882
     126A      1.546459   127A      1.592023   128A      1.609559
     129A      1.625282   130A      1.686106   131A      1.686703
     132A      1.701765   133A      1.715945   134A      1.734968
     135A      1.749918   136A      1.781996   137A      1.809222
     138A      1.820268   139A      1.868125   140A      1.876808
     141A      1.882181   142A      1.891943   143A      1.897357
     144A      1.899808   145A      1.917259   146A      1.923775
     147A      1.930400   148A      1.943352   149A      1.953117
     150A      1.963241   151A      1.968424   152A      1.973556
     153A      1.988337   154A      1.991774   155A      2.007404
     156A      2.010866   157A      2.034385   158A      2.057324
     159A      2.068644   160A      2.076194   161A      2.090624
     162A      2.110064   163A      2.128213   164A      2.152358
     165A      2.178027   166A      2.190247   167A      2.203145
     168A      2.225435   169A      2.260737   170A      2.269040
     171A      2.296289   172A      2.328099   173A      2.332516
     174A      2.359246   175A      2.373530   176A      2.410234
     177A      2.456608   178A      2.458563   179A      2.463532
     180A      2.499182   181A      2.507795   182A      2.531249
     183A      2.546977   184A      2.584691   185A      2.610971
     186A      2.614500   187A      2.655143   188A      2.748338
     189A      2.776683   190A      2.784312   191A      2.795774
     192A      2.809763   193A      2.819556   194A      2.850279
     195A      2.869088   196A      2.889576   197A      2.912925
     198A      2.958834   199A      2.985046   200A      3.000315
     201A      3.007928   202A      3.094328   203A      3.116370
     204A      3.249436   205A      3.284357   206A      3.350877
     207A      3.573702   208A      3.673217   209A      3.975918
     210A      4.194853

    Final Occupation by Irrep:
              A
    DOCC [    38 ]

  @RHF Final Energy:  -423.85261078433069

   => Energetics <=

    Nuclear Repulsion Energy =            512.4297111690669908
    One-Electron Energy =               -1590.6515418117378431
    Two-Electron Energy =                 654.3692198583399886
    Total Energy =                       -423.8526107843307500

Computation Completed

Properties will be evaluated at   0.000000,   0.000000,   0.000000 [a0]

Properties computed using the SCF density matrix

  Nuclear Dipole Moment: [e a0]
     X:    -3.0478      Y:    -3.9635      Z:   -11.2812

  Electronic Dipole Moment: [e a0]
     X:     3.4359      Y:     3.7016      Z:    11.0887

  Dipole Moment: [e a0]
     X:     0.3881      Y:    -0.2619      Z:    -0.1925     Total:     0.5062

  Dipole Moment: [D]
     X:     0.9864      Y:    -0.6658      Z:    -0.4892     Total:     1.2867

*** tstop() called on ds3 at Tue Apr 28 16:00:01 2020
Module time:
	user time   =     100.74 seconds =       1.68 minutes
	system time =      34.39 seconds =       0.57 minutes
	total time  =        269 seconds =       4.48 minutes
Total time:
	user time   =     100.74 seconds =       1.68 minutes
	system time =      34.39 seconds =       0.57 minutes
	total time  =        269 seconds =       4.48 minutes
                                     G D M A

                                 by Anthony Stone

                           version 2.2.06, 22 June 2011

               Distributed Multipoles from Gaussian wavefunctions

Starting at 16:0:1 on 28 Apr 2020

Using SCF density matrix from file ./SSI/SSI-015TYR-034ILE-1-dimer.test.24064.fchk

                         Distributed Multipole Analysis

Standard DMA

Positions and radii in angstrom
Multipole moments in atomic units, ea_0^k for rank k

C          x =  1.601989  y =  1.916589  z = -1.829620 angstrom
           Maximum rank =  0   Radius =  0.650 angstrom
                   Q00  =  -0.194592

C          x =  0.726989  y = -0.844411  z =  0.672380 angstrom
           Maximum rank =  0   Radius =  0.650 angstrom
                   Q00  =  -0.199483

C          x =  1.232989  y = -0.176411  z = -0.458620 angstrom
           Maximum rank =  0   Radius =  0.650 angstrom
                   Q00  =  -0.037611

C          x = -0.049011  y = -0.152411  z =  1.577380 angstrom
           Maximum rank =  0   Radius =  0.650 angstrom
                   Q00  =   0.314158

C          x =  0.989989  y =  1.189589  z = -0.658620 angstrom
           Maximum rank =  0   Radius =  0.650 angstrom
                   Q00  =  -0.139027

C          x = -0.275011  y =  1.204589  z =  1.388380 angstrom
           Maximum rank =  0   Radius =  0.650 angstrom
                   Q00  =   0.025529

C          x =  0.233989  y =  1.870589  z =  0.285380 angstrom
           Maximum rank =  0   Radius =  0.650 angstrom
                   Q00  =  -0.067620

O          x = -0.577011  y = -0.778411  z =  2.667380 angstrom
           Maximum rank =  0   Radius =  0.650 angstrom
                   Q00  =  -0.682898

H          x =  0.935989  y = -1.894411  z =  0.819380 angstrom
           Maximum rank =  0   Radius =  0.325 angstrom
                   Q00  =   0.073684

H          x =  1.840989  y = -0.721411  z = -1.167620 angstrom
           Maximum rank =  0   Radius =  0.325 angstrom
                   Q00  =   0.070795

H          x = -0.303011  y = -1.698411  z =  2.728380 angstrom
           Maximum rank =  0   Radius =  0.325 angstrom
                   Q00  =   0.405800

H          x = -0.851011  y =  1.746589  z =  2.125380 angstrom
           Maximum rank =  0   Radius =  0.325 angstrom
                   Q00  =   0.079221

H          x =  2.319989  y =  1.256589  z = -2.305620 angstrom
           Maximum rank =  0   Radius =  0.325 angstrom
                   Q00  =   0.096189

H          x =  2.144989  y =  2.776589  z = -1.442620 angstrom
           Maximum rank =  0   Radius =  0.325 angstrom
                   Q00  =   0.097436

H          x =  0.088989  y =  2.937589  z =  0.217380 angstrom
           Maximum rank =  0   Radius =  0.325 angstrom
                   Q00  =   0.062393

H          x =  0.873519  y =  2.243859  z = -2.586080 angstrom
           Maximum rank =  0   Radius =  0.325 angstrom
                   Q00  =   0.099373

C          x = -1.957011  y = -1.098411  z = -1.810620 angstrom
           Maximum rank =  0   Radius =  0.650 angstrom
                   Q00  =  -0.223833

C          x = -1.463011  y = -2.517411  z = -1.709620 angstrom
           Maximum rank =  0   Radius =  0.650 angstrom
                   Q00  =  -0.229817

H          x = -2.577011  y = -0.987411  z = -2.694620 angstrom
           Maximum rank =  0   Radius =  0.325 angstrom
                   Q00  =   0.066925

H          x = -2.556011  y = -0.851411  z = -0.935620 angstrom
           Maximum rank =  0   Radius =  0.325 angstrom
                   Q00  =   0.080974

H          x = -1.119011  y = -0.405411  z = -1.871620 angstrom
           Maximum rank =  0   Radius =  0.325 angstrom
                   Q00  =   0.088058

H          x = -2.310011  y = -3.196411  z = -1.800620 angstrom
           Maximum rank =  0   Radius =  0.325 angstrom
                   Q00  =   0.072750

H          x = -1.057011  y = -2.629411  z = -0.705620 angstrom
           Maximum rank =  0   Radius =  0.325 angstrom
                   Q00  =   0.066913

H          x = -0.679521  y = -2.800821  z = -2.427820 angstrom
           Maximum rank =  0   Radius =  0.325 angstrom
                   Q00  =   0.074683

Total multipoles referred to origin at
           x =   0.000000,  y =    0.000000,  z =    0.000000 angstrom
                   Q00  =  -0.000000

Finished at 16:0:1 on 28 Apr 2020

  DMA results are available in the Python driver through the
	  variable('DMA DISTRIBUTED MULTIPOLES')
  and
	  variable('DMA TOTAL MULTIPOLES')
  commands.

    Psi4 stopped on: Tuesday, 28 April 2020 04:00PM
    Psi4 wall time for execution: 0:04:29.29

*** Psi4 exiting successfully. Buy a developer a beer!
