                               Psi4 1.3.2 release

  ==> Input File <==

--------------------------------------------------------------------------
import numpy as np
set {scf_type pk
basis cc-pvdz
d_convergence 10
gdma_switch   0
gdma_limit    0
gdma_origin   [ 0.0,  0.0,  0.0 ]
}
molecule test {
    units Angstrom
    0 1
    --
    0 1
    C                0.668785788736567     2.071097935519243     1.201584571387682
    C               -0.509214211263433     1.291097935519243     0.656584571387682
    O               -1.623214211263433     1.811097935519243     0.588584571387682
    N               -0.295214211263433     0.040097935519243     0.285584571387682
    H               -1.064214211263433    -0.470902064480757    -0.117415428612318
    H                0.630785788736567    -0.341902064480757     0.197584571387682
    H                0.291785788736567     2.864097935519243     1.847584571387682
    H                1.188785788736567     2.530097935519243     0.362584571387682
    H                1.377076788736567     1.441825935519243     1.760454571387682
    C                1.107785788736567    -2.967902064480757    -0.951415428612318
    O                0.547785788736567    -1.775902064480757    -1.482415428612318
    H               -0.087214211263433    -2.029902064480757    -2.167415428612318
    H                1.270785788736567    -3.678902064480757    -1.762415428612318
    H                2.069032788736567    -2.726156064480757    -0.474375428612318
    H                0.402607788736567    -3.398765064480757    -0.225415428612318

}
e, wfn = energy('scf', return_wfn=True)
gdma(wfn)
dmavals = variable('DMA DISTRIBUTED MULTIPOLES')
charges = np.array(dmavals)
print(charges)
np.save('SSI-149ASN-167THR-1-dimer.npy', np.array(charges))--------------------------------------------------------------------------

*** tstart() called on ds3
*** at Tue Apr 28 11:33:20 2020

   => Loading Basis Set <=

    Name: CC-PVDZ
    Role: ORBITAL
    Keyword: BASIS
    atoms 1-2, 10    entry C          line   138 file /theoryfs2/ds/metcalf/miniconda2/envs/tf2gpu/share/psi4/basis/cc-pvdz.gbs
    atoms 3, 11      entry O          line   198 file /theoryfs2/ds/metcalf/miniconda2/envs/tf2gpu/share/psi4/basis/cc-pvdz.gbs
    atoms 4          entry N          line   168 file /theoryfs2/ds/metcalf/miniconda2/envs/tf2gpu/share/psi4/basis/cc-pvdz.gbs
    atoms 5-9, 12-15 entry H          line    22 file /theoryfs2/ds/metcalf/miniconda2/envs/tf2gpu/share/psi4/basis/cc-pvdz.gbs

         ---------------------------------------------------------
                                   SCF
               by Justin Turney, Rob Parrish, Andy Simmonett
                          and Daniel G. A. Smith
                              RHF Reference
                        1 Threads,    500 MiB Core
         ---------------------------------------------------------

  ==> Geometry <==

    Molecular point group: c1
    Full point group: C1

    Geometry (in Angstrom), charge = 0, multiplicity = 1:

       Center              X                  Y                   Z               Mass
    ------------   -----------------  -----------------  -----------------  -----------------
         C            0.668785788737     2.071097935519     1.201584571388    12.000000000000
         C           -0.509214211263     1.291097935519     0.656584571388    12.000000000000
         O           -1.623214211263     1.811097935519     0.588584571388    15.994914619570
         N           -0.295214211263     0.040097935519     0.285584571388    14.003074004430
         H           -1.064214211263    -0.470902064481    -0.117415428612     1.007825032230
         H            0.630785788737    -0.341902064481     0.197584571388     1.007825032230
         H            0.291785788737     2.864097935519     1.847584571388     1.007825032230
         H            1.188785788737     2.530097935519     0.362584571388     1.007825032230
         H            1.377076788737     1.441825935519     1.760454571388     1.007825032230
         C            1.107785788737    -2.967902064481    -0.951415428612    12.000000000000
         O            0.547785788737    -1.775902064481    -1.482415428612    15.994914619570
         H           -0.087214211263    -2.029902064481    -2.167415428612     1.007825032230
         H            1.270785788737    -3.678902064481    -1.762415428612     1.007825032230
         H            2.069032788737    -2.726156064481    -0.474375428612     1.007825032230
         H            0.402607788737    -3.398765064481    -0.225415428612     1.007825032230

  Running in c1 symmetry.

  Rotational constants: A =      0.25320  B =      0.03728  C =      0.03408 [cm^-1]
  Rotational constants: A =   7590.80693  B =   1117.66745  C =   1021.59931 [MHz]
  Nuclear repulsion =  235.056414596704826

  Charge       = 0
  Multiplicity = 1
  Electrons    = 50
  Nalpha       = 25
  Nbeta        = 25

  ==> Algorithm <==

  SCF Algorithm Type is PK.
  DIIS enabled.
  MOM disabled.
  Fractional occupation disabled.
  Guess Type is SAD.
  Energy threshold   = 1.00e-06
  Density threshold  = 1.00e-10
  Integral threshold = 0.00e+00

  ==> Primary Basis <==

  Basis Set: CC-PVDZ
    Blend: CC-PVDZ
    Number of shells: 63
    Number of basis function: 129
    Number of Cartesian functions: 135
    Spherical Harmonics?: true
    Max angular momentum: 2

  ==> Pre-Iterations <==

   -------------------------------------------------------
    Irrep   Nso     Nmo     Nalpha   Nbeta   Ndocc  Nsocc
   -------------------------------------------------------
     A        129     129       0       0       0       0
   -------------------------------------------------------
    Total     129     129      25      25      25       0
   -------------------------------------------------------

  ==> Integral Setup <==

  Using integral reordering PK algorithm.
  Sizing the integral batches needed.
  Building batch lookup table.
   Calculation information:
      Number of atoms:                  15
      Number of AO shells:              63
      Number of primitives:            177
      Number of atomic orbitals:       135
      Number of basis functions:       129

      Integral cutoff                 1.00e-12
      Number of threads:                 1

	Batch   1 pq = [       0,    8385] index = [             0,35158305] size =     35158305
  Task number: 4
  Buffer size: 11059200
  Buffer per thread: 2
  We computed 1647291 shell quartets total.
  Whereas there are 2033136 unique shell quartets.

  ==> DiskJK: Disk-Based J/K Matrices <==

    J tasked:                  Yes
    K tasked:                  Yes
    wK tasked:                  No
    Memory [MiB]:              375
    Schwarz Cutoff:          1E-12

    OpenMP threads:              1

  Minimum eigenvalue in the overlap matrix is 4.6166017245E-03.
  Using Symmetric Orthogonalization.

  SCF Guess: Superposition of Atomic Densities via on-the-fly atomic UHF.

  ==> Iterations <==

                        Total Energy        Delta E     RMS |[F,P]|

   @RHF iter SAD:  -321.70102152828531   -3.21701e+02   0.00000e+00
   @RHF iter   1:  -322.83345860580255   -1.13244e+00   4.97025e-03 DIIS
   @RHF iter   2:  -322.99097536044451   -1.57517e-01   2.82874e-03 DIIS
   @RHF iter   3:  -323.03837328797027   -4.73979e-02   5.38345e-04 DIIS
   @RHF iter   4:  -323.04126309816496   -2.88981e-03   2.16057e-04 DIIS
   @RHF iter   5:  -323.04174165822417   -4.78560e-04   4.46492e-05 DIIS
   @RHF iter   6:  -323.04177389514530   -3.22369e-05   2.03680e-05 DIIS
   @RHF iter   7:  -323.04178078177648   -6.88663e-06   7.30612e-06 DIIS
   @RHF iter   8:  -323.04178210295311   -1.32118e-06   2.49972e-06 DIIS
   @RHF iter   9:  -323.04178225110866   -1.48156e-07   8.03561e-07 DIIS
   @RHF iter  10:  -323.04178226332220   -1.22135e-08   2.63053e-07 DIIS
   @RHF iter  11:  -323.04178226459175   -1.26954e-09   4.57944e-08 DIIS
   @RHF iter  12:  -323.04178226463614   -4.43947e-11   1.15945e-08 DIIS
   @RHF iter  13:  -323.04178226463881   -2.67164e-12   3.54087e-09 DIIS
   @RHF iter  14:  -323.04178226463881    0.00000e+00   1.51118e-09 DIIS
   @RHF iter  15:  -323.04178226464091   -2.10321e-12   6.29910e-10 DIIS
   @RHF iter  16:  -323.04178226463932    1.59162e-12   2.63525e-10 DIIS
   @RHF iter  17:  -323.04178226464018   -8.52651e-13   1.07777e-10 DIIS
   @RHF iter  18:  -323.04178226463841    1.76215e-12   2.99782e-11 DIIS
  Energy and wave function converged.

  ==> Post-Iterations <==

    Orbital Energies [Eh]
    ---------------------

    Doubly Occupied:

       1A    -20.574301     2A    -20.485270     3A    -15.563346
       4A    -11.329316     5A    -11.297758     6A    -11.228854
       7A     -1.376020     8A     -1.349074     9A     -1.195651
      10A     -0.985965    11A     -0.940604    12A     -0.784381
      13A     -0.713660    14A     -0.696780    15A     -0.643564
      16A     -0.635130    17A     -0.610374    18A     -0.597591
      19A     -0.551390    20A     -0.543534    21A     -0.520681
      22A     -0.504044    23A     -0.465804    24A     -0.393359
      25A     -0.382578

    Virtual:

      26A      0.154580    27A      0.191475    28A      0.202011
      29A      0.217007    30A      0.228957    31A      0.240058
      32A      0.265793    33A      0.277937    34A      0.290734
      35A      0.294620    36A      0.345501    37A      0.404013
      38A      0.472360    39A      0.565390    40A      0.611113
      41A      0.619643    42A      0.665604    43A      0.679981
      44A      0.711351    45A      0.726381    46A      0.736282
      47A      0.756061    48A      0.779183    49A      0.830859
      50A      0.840732    51A      0.855593    52A      0.872230
      53A      0.874411    54A      0.892986    55A      0.906345
      56A      0.932017    57A      0.959846    58A      1.008521
      59A      1.035146    60A      1.050310    61A      1.106136
      62A      1.124112    63A      1.141440    64A      1.151741
      65A      1.179729    66A      1.288142    67A      1.318133
      68A      1.353066    69A      1.364112    70A      1.390582
      71A      1.404329    72A      1.440258    73A      1.483032
      74A      1.503789    75A      1.524450    76A      1.637590
      77A      1.644471    78A      1.654111    79A      1.667417
      80A      1.700046    81A      1.740778    82A      1.833149
      83A      1.869913    84A      1.875635    85A      1.885831
      86A      1.893942    87A      1.904229    88A      1.912778
      89A      1.950761    90A      1.954043    91A      1.981621
      92A      1.995025    93A      2.014980    94A      2.090405
      95A      2.108071    96A      2.122644    97A      2.202406
      98A      2.226917    99A      2.267670   100A      2.297711
     101A      2.357106   102A      2.360704   103A      2.418478
     104A      2.459990   105A      2.479108   106A      2.513188
     107A      2.526944   108A      2.621675   109A      2.674889
     110A      2.722381   111A      2.738145   112A      2.749630
     113A      2.758592   114A      2.772701   115A      2.807601
     116A      2.882982   117A      3.034782   118A      3.109931
     119A      3.154784   120A      3.282934   121A      3.302729
     122A      3.354670   123A      3.433885   124A      3.529106
     125A      3.561892   126A      3.566528   127A      3.879126
     128A      3.918127   129A      4.078823

    Final Occupation by Irrep:
              A
    DOCC [    25 ]

  @RHF Final Energy:  -323.04178226463841

   => Energetics <=

    Nuclear Repulsion Energy =            235.0564145967048262
    One-Electron Energy =                -907.4583360187878043
    Two-Electron Energy =                 349.3601391574445643
    Total Energy =                       -323.0417822646384138

Computation Completed

Properties will be evaluated at   0.000000,   0.000000,   0.000000 [a0]

Properties computed using the SCF density matrix

  Nuclear Dipole Moment: [e a0]
     X:     5.6950      Y:    -5.4471      Z:    -0.5478

  Electronic Dipole Moment: [e a0]
     X:    -4.3652      Y:     3.6327      Z:     0.0245

  Dipole Moment: [e a0]
     X:     1.3297      Y:    -1.8144      Z:    -0.5233     Total:     2.3096

  Dipole Moment: [D]
     X:     3.3798      Y:    -4.6118      Z:    -1.3300     Total:     5.8703

*** tstop() called on ds3 at Tue Apr 28 11:33:38 2020
Module time:
	user time   =      12.29 seconds =       0.20 minutes
	system time =       5.78 seconds =       0.10 minutes
	total time  =         18 seconds =       0.30 minutes
Total time:
	user time   =      12.29 seconds =       0.20 minutes
	system time =       5.78 seconds =       0.10 minutes
	total time  =         18 seconds =       0.30 minutes
                                     G D M A

                                 by Anthony Stone

                           version 2.2.06, 22 June 2011

               Distributed Multipoles from Gaussian wavefunctions

Starting at 11:33:38 on 28 Apr 2020

Using SCF density matrix from file ./SSI/SSI-149ASN-167THR-1-dimer.test.26002.fchk

                         Distributed Multipole Analysis

Standard DMA

Positions and radii in angstrom
Multipole moments in atomic units, ea_0^k for rank k

C          x =  0.668786  y =  2.071098  z =  1.201585 angstrom
           Maximum rank =  0   Radius =  0.650 angstrom
                   Q00  =  -0.269455

C          x = -0.509214  y =  1.291098  z =  0.656585 angstrom
           Maximum rank =  0   Radius =  0.650 angstrom
                   Q00  =   0.830634

O          x = -1.623214  y =  1.811098  z =  0.588585 angstrom
           Maximum rank =  0   Radius =  0.650 angstrom
                   Q00  =  -0.811677

N          x = -0.295214  y =  0.040098  z =  0.285585 angstrom
           Maximum rank =  0   Radius =  0.650 angstrom
                   Q00  =  -0.524722

H          x = -1.064214  y = -0.470902  z = -0.117415 angstrom
           Maximum rank =  0   Radius =  0.325 angstrom
                   Q00  =   0.210764

H          x =  0.630786  y = -0.341902  z =  0.197585 angstrom
           Maximum rank =  0   Radius =  0.325 angstrom
                   Q00  =   0.212283

H          x =  0.291786  y =  2.864098  z =  1.847585 angstrom
           Maximum rank =  0   Radius =  0.325 angstrom
                   Q00  =   0.126029

H          x =  1.188786  y =  2.530098  z =  0.362585 angstrom
           Maximum rank =  0   Radius =  0.325 angstrom
                   Q00  =   0.124075

H          x =  1.377077  y =  1.441826  z =  1.760455 angstrom
           Maximum rank =  0   Radius =  0.325 angstrom
                   Q00  =   0.085552

C          x =  1.107786  y = -2.967902  z = -0.951415 angstrom
           Maximum rank =  0   Radius =  0.650 angstrom
                   Q00  =  -0.060468

O          x =  0.547786  y = -1.775902  z = -1.482415 angstrom
           Maximum rank =  0   Radius =  0.650 angstrom
                   Q00  =  -0.592486

H          x = -0.087214  y = -2.029902  z = -2.167415 angstrom
           Maximum rank =  0   Radius =  0.325 angstrom
                   Q00  =   0.396020

H          x =  1.270786  y = -3.678902  z = -1.762415 angstrom
           Maximum rank =  0   Radius =  0.325 angstrom
                   Q00  =   0.086168

H          x =  2.069033  y = -2.726156  z = -0.474375 angstrom
           Maximum rank =  0   Radius =  0.325 angstrom
                   Q00  =   0.110875

H          x =  0.402608  y = -3.398765  z = -0.225415 angstrom
           Maximum rank =  0   Radius =  0.325 angstrom
                   Q00  =   0.076407

Total multipoles referred to origin at
           x =   0.000000,  y =    0.000000,  z =    0.000000 angstrom
                   Q00  =  -0.000000

Finished at 11:33:38 on 28 Apr 2020

  DMA results are available in the Python driver through the
	  variable('DMA DISTRIBUTED MULTIPOLES')
  and
	  variable('DMA TOTAL MULTIPOLES')
  commands.

    Psi4 stopped on: Tuesday, 28 April 2020 11:33AM
    Psi4 wall time for execution: 0:00:18.54

*** Psi4 exiting successfully. Buy a developer a beer!
