                               Psi4 1.3.2 release

  ==> Input File <==

--------------------------------------------------------------------------
import numpy as np
set {scf_type pk
basis cc-pvdz
d_convergence 10
gdma_switch   0
gdma_limit    0
gdma_origin   [ 0.0,  0.0,  0.0 ]
}
molecule test {
    units Angstrom
    0 1
    --
    0 1
    C                0.403835633234886     0.476025516310913    -3.335600208922789
    C                0.821835633234886    -0.731974483689087    -4.158600208922789
    C               -0.521164366765114     1.437025516310913    -4.084600208922789
    H               -0.106164366765114     0.136025516310913    -2.440600208922789
    H                1.269835633234885     1.026025516310913    -3.008600208922789
    H               -0.089164366765114    -1.183974483689087    -4.552600208922789
    H               -0.600164366765114     2.365025516310913    -3.517600208922790
    H               -0.084164366765114     1.678025516310913    -5.053600208922788
    H                1.366877633234886    -1.455934483689087    -3.535050208922789
    H                1.445900633234886    -0.432274483689087    -5.013420208922789
    H               -1.534329366765114     1.036385516310913    -4.236210208922789
    C                2.308835633234886     1.089025516310913     2.722399791077211
    C               -0.041164366765114    -0.707974483689087     0.313399791077211
    C               -1.227164366765114    -0.738974483689087     1.043399791077211
    C                1.101835633234886    -0.121974483689087     0.840399791077211
    C                1.092835633234885     0.415025516310913     2.139399791077211
    C               -1.245164366765114    -0.216974483689087     2.339399791077211
    C               -0.090164366765114     0.351025516310913     2.877399791077211
    O               -2.336164366765114    -1.263974483689087     0.446399791077211
    H               -0.023164366765114    -1.143974483689087    -0.672600208922789
    H                2.005835633234885    -0.079974483689087     0.246399791077211
    H               -2.158164366765114    -0.237974483689087     2.917399791077210
    H               -3.125164366765114    -1.183974483689087     1.012399791077211
    H                1.976835633234885     1.792025516310913     3.485399791077211
    H                2.787835633234886     1.684025516310913     1.943399791077211
    H               -0.118164366765114     0.764025516310913     3.876399791077211
    H                3.052522633234886     0.410135516310913     3.165159791077211

}
e, wfn = energy('scf', return_wfn=True)
gdma(wfn)
dmavals = variable('DMA DISTRIBUTED MULTIPOLES')
charges = np.array(dmavals)
print(charges)
np.save('SSI-115MET-168TYR-1-dimer.npy', np.array(charges))--------------------------------------------------------------------------

*** tstart() called on ds3
*** at Mon Apr 27 07:44:22 2020

   => Loading Basis Set <=

    Name: CC-PVDZ
    Role: ORBITAL
    Keyword: BASIS
    atoms 1-3, 12-18  entry C          line   138 file /theoryfs2/ds/metcalf/miniconda2/envs/tf2gpu/share/psi4/basis/cc-pvdz.gbs
    atoms 4-11, 20-27 entry H          line    22 file /theoryfs2/ds/metcalf/miniconda2/envs/tf2gpu/share/psi4/basis/cc-pvdz.gbs
    atoms 19          entry O          line   198 file /theoryfs2/ds/metcalf/miniconda2/envs/tf2gpu/share/psi4/basis/cc-pvdz.gbs

         ---------------------------------------------------------
                                   SCF
               by Justin Turney, Rob Parrish, Andy Simmonett
                          and Daniel G. A. Smith
                              RHF Reference
                        1 Threads,    500 MiB Core
         ---------------------------------------------------------

  ==> Geometry <==

    Molecular point group: c1
    Full point group: C1

    Geometry (in Angstrom), charge = 0, multiplicity = 1:

       Center              X                  Y                   Z               Mass
    ------------   -----------------  -----------------  -----------------  -----------------
         C            0.403835633235     0.476025516311    -3.335600208923    12.000000000000
         C            0.821835633235    -0.731974483689    -4.158600208923    12.000000000000
         C           -0.521164366765     1.437025516311    -4.084600208923    12.000000000000
         H           -0.106164366765     0.136025516311    -2.440600208923     1.007825032230
         H            1.269835633235     1.026025516311    -3.008600208923     1.007825032230
         H           -0.089164366765    -1.183974483689    -4.552600208923     1.007825032230
         H           -0.600164366765     2.365025516311    -3.517600208923     1.007825032230
         H           -0.084164366765     1.678025516311    -5.053600208923     1.007825032230
         H            1.366877633235    -1.455934483689    -3.535050208923     1.007825032230
         H            1.445900633235    -0.432274483689    -5.013420208923     1.007825032230
         H           -1.534329366765     1.036385516311    -4.236210208923     1.007825032230
         C            2.308835633235     1.089025516311     2.722399791077    12.000000000000
         C           -0.041164366765    -0.707974483689     0.313399791077    12.000000000000
         C           -1.227164366765    -0.738974483689     1.043399791077    12.000000000000
         C            1.101835633235    -0.121974483689     0.840399791077    12.000000000000
         C            1.092835633235     0.415025516311     2.139399791077    12.000000000000
         C           -1.245164366765    -0.216974483689     2.339399791077    12.000000000000
         C           -0.090164366765     0.351025516311     2.877399791077    12.000000000000
         O           -2.336164366765    -1.263974483689     0.446399791077    15.994914619570
         H           -0.023164366765    -1.143974483689    -0.672600208923     1.007825032230
         H            2.005835633235    -0.079974483689     0.246399791077     1.007825032230
         H           -2.158164366765    -0.237974483689     2.917399791077     1.007825032230
         H           -3.125164366765    -1.183974483689     1.012399791077     1.007825032230
         H            1.976835633235     1.792025516311     3.485399791077     1.007825032230
         H            2.787835633235     1.684025516311     1.943399791077     1.007825032230
         H           -0.118164366765     0.764025516311     3.876399791077     1.007825032230
         H            3.052522633235     0.410135516311     3.165159791077     1.007825032230

  Running in c1 symmetry.

  Rotational constants: A =      0.04299  B =      0.01489  C =      0.01224 [cm^-1]
  Rotational constants: A =   1288.81775  B =    446.38627  C =    366.97521 [MHz]
  Nuclear repulsion =  564.981106177661900

  Charge       = 0
  Multiplicity = 1
  Electrons    = 84
  Nalpha       = 42
  Nbeta        = 42

  ==> Algorithm <==

  SCF Algorithm Type is PK.
  DIIS enabled.
  MOM disabled.
  Fractional occupation disabled.
  Guess Type is SAD.
  Energy threshold   = 1.00e-06
  Density threshold  = 1.00e-10
  Integral threshold = 0.00e+00

  ==> Primary Basis <==

  Basis Set: CC-PVDZ
    Blend: CC-PVDZ
    Number of shells: 114
    Number of basis function: 234
    Number of Cartesian functions: 245
    Spherical Harmonics?: true
    Max angular momentum: 2

  ==> Pre-Iterations <==

   -------------------------------------------------------
    Irrep   Nso     Nmo     Nalpha   Nbeta   Ndocc  Nsocc
   -------------------------------------------------------
     A        234     234       0       0       0       0
   -------------------------------------------------------
    Total     234     234      42      42      42       0
   -------------------------------------------------------

  ==> Integral Setup <==

  Using integral reordering PK algorithm.
  Sizing the integral batches needed.
  Building batch lookup table.
   Calculation information:
      Number of atoms:                  27
      Number of AO shells:             114
      Number of primitives:            322
      Number of atomic orbitals:       245
      Number of basis functions:       234

      Integral cutoff                 1.00e-12
      Number of threads:                 1

	Batch   1 pq = [       0,    9405] index = [             0,44231715] size =     44231715
	Batch   2 pq = [    9405,   13301] index = [      44231715,88464951] size =     44233236
	Batch   3 pq = [   13301,   16290] index = [      88464951,132690195] size =     44225244
	Batch   4 pq = [   16290,   18810] index = [     132690195,176917455] size =     44227260
	Batch   5 pq = [   18810,   21030] index = [     176917455,221140965] size =     44223510
	Batch   6 pq = [   21030,   23037] index = [     221140965,265363203] size =     44222238
	Batch   7 pq = [   23037,   24883] index = [     265363203,309594286] size =     44231083
	Batch   8 pq = [   24883,   26601] index = [     309594286,353819901] size =     44225615
	Batch   9 pq = [   26601,   27495] index = [     353819901,378001260] size =     24181359
  Task number: 35
  Buffer size: 11059200
  Buffer per thread: 2
  We computed 17369581 shell quartets total.
  Whereas there are 21487290 unique shell quartets.

  ==> DiskJK: Disk-Based J/K Matrices <==

    J tasked:                  Yes
    K tasked:                  Yes
    wK tasked:                  No
    Memory [MiB]:              375
    Schwarz Cutoff:          1E-12

    OpenMP threads:              1

  Minimum eigenvalue in the overlap matrix is 3.2717049043E-04.
  Using Symmetric Orthogonalization.

  SCF Guess: Superposition of Atomic Densities via on-the-fly atomic UHF.

  ==> Iterations <==

                        Total Energy        Delta E     RMS |[F,P]|

   @RHF iter SAD:  -461.66171967572512   -4.61662e+02   0.00000e+00
   @RHF iter   1:  -462.60436337278037   -9.42644e-01   2.82625e-03 DIIS
   @RHF iter   2:  -462.84823269966734   -2.43869e-01   1.20742e-03 DIIS
   @RHF iter   3:  -462.88852290828271   -4.02902e-02   2.70333e-04 DIIS
   @RHF iter   4:  -462.89180914856541   -3.28624e-03   1.06576e-04 DIIS
   @RHF iter   5:  -462.89217153985777   -3.62391e-04   2.05263e-05 DIIS
   @RHF iter   6:  -462.89219153233972   -1.99925e-05   6.42409e-06 DIIS
   @RHF iter   7:  -462.89219360636855   -2.07403e-06   1.93123e-06 DIIS
   @RHF iter   8:  -462.89219387697023   -2.70602e-07   7.44343e-07 DIIS
   @RHF iter   9:  -462.89219392339623   -4.64260e-08   3.05812e-07 DIIS
   @RHF iter  10:  -462.89219393291000   -9.51377e-09   1.22880e-07 DIIS
   @RHF iter  11:  -462.89219393579481   -2.88480e-09   5.48229e-08 DIIS
   @RHF iter  12:  -462.89219393632231   -5.27507e-10   2.36271e-08 DIIS
   @RHF iter  13:  -462.89219393639883   -7.65112e-11   8.34765e-09 DIIS
   @RHF iter  14:  -462.89219393640076   -1.93268e-12   1.93937e-09 DIIS
   @RHF iter  15:  -462.89219393640241   -1.64846e-12   8.14428e-10 DIIS
   @RHF iter  16:  -462.89219393640252   -1.13687e-13   3.22339e-10 DIIS
   @RHF iter  17:  -462.89219393640201    5.11591e-13   1.56471e-10 DIIS
   @RHF iter  18:  -462.89219393640536   -3.35376e-12   7.89893e-11 DIIS
  Energy and wave function converged.

  ==> Post-Iterations <==

    Orbital Energies [Eh]
    ---------------------

    Doubly Occupied:

       1A    -20.586207     2A    -11.300333     3A    -11.239039
       4A    -11.238864     5A    -11.234711     6A    -11.234472
       7A    -11.228884     8A    -11.227937     9A    -11.214275
      10A    -11.212266    11A    -11.211669    12A     -1.397830
      13A     -1.148696    14A     -1.051232    15A     -1.036210
      16A     -1.017022    17A     -0.925888    18A     -0.921183
      19A     -0.843119    20A     -0.801756    21A     -0.794182
      22A     -0.730114    23A     -0.667116    24A     -0.641684
      25A     -0.621673    26A     -0.605023    27A     -0.594291
      28A     -0.586452    29A     -0.584213    30A     -0.571948
      31A     -0.567198    32A     -0.546162    33A     -0.527532
      34A     -0.525206    35A     -0.498997    36A     -0.484284
      37A     -0.469388    38A     -0.469178    39A     -0.465707
      40A     -0.460271    41A     -0.338187    42A     -0.300743

    Virtual:

      43A      0.130165    44A      0.153394    45A      0.172354
      46A      0.178395    47A      0.191189    48A      0.211463
      49A      0.218574    50A      0.231406    51A      0.241485
      52A      0.257985    53A      0.261286    54A      0.271292
      55A      0.275458    56A      0.282331    57A      0.292263
      58A      0.303873    59A      0.309319    60A      0.342754
      61A      0.363959    62A      0.380818    63A      0.390263
      64A      0.421913    65A      0.433826    66A      0.455414
      67A      0.478658    68A      0.498873    69A      0.508677
      70A      0.584110    71A      0.604400    72A      0.606786
      73A      0.621708    74A      0.624300    75A      0.631990
      76A      0.643290    77A      0.659667    78A      0.667080
      79A      0.681711    80A      0.698285    81A      0.707348
      82A      0.730954    83A      0.738242    84A      0.761668
      85A      0.771640    86A      0.772601    87A      0.783404
      88A      0.793959    89A      0.799291    90A      0.809569
      91A      0.836685    92A      0.844118    93A      0.857100
      94A      0.870225    95A      0.877755    96A      0.883878
      97A      0.887034    98A      0.890398    99A      0.894242
     100A      0.898368   101A      0.904876   102A      0.913027
     103A      0.913410   104A      0.922378   105A      0.933189
     106A      0.936100   107A      0.940857   108A      0.947953
     109A      0.970008   110A      0.977045   111A      1.002791
     112A      1.022324   113A      1.041453   114A      1.078677
     115A      1.120639   116A      1.131019   117A      1.135470
     118A      1.139302   119A      1.149652   120A      1.177744
     121A      1.197211   122A      1.220635   123A      1.250713
     124A      1.257548   125A      1.260877   126A      1.285413
     127A      1.299272   128A      1.306595   129A      1.317864
     130A      1.356283   131A      1.369358   132A      1.385576
     133A      1.389397   134A      1.459919   135A      1.477917
     136A      1.482895   137A      1.503738   138A      1.535429
     139A      1.544155   140A      1.548136   141A      1.607840
     142A      1.615103   143A      1.641454   144A      1.674538
     145A      1.689055   146A      1.690434   147A      1.702881
     148A      1.716421   149A      1.729445   150A      1.749246
     151A      1.780343   152A      1.802506   153A      1.808190
     154A      1.861562   155A      1.867751   156A      1.870153
     157A      1.884791   158A      1.891269   159A      1.898983
     160A      1.901324   161A      1.911007   162A      1.916050
     163A      1.918813   164A      1.926572   165A      1.941662
     166A      1.957397   167A      1.961816   168A      1.971496
     169A      1.975369   170A      1.980387   171A      1.992166
     172A      1.999688   173A      2.012261   174A      2.020298
     175A      2.038201   176A      2.040924   177A      2.049027
     178A      2.055769   179A      2.060839   180A      2.079549
     181A      2.135540   182A      2.142475   183A      2.148015
     184A      2.162192   185A      2.168106   186A      2.205894
     187A      2.229639   188A      2.258158   189A      2.274135
     190A      2.293099   191A      2.304525   192A      2.310277
     193A      2.320384   194A      2.331029   195A      2.346588
     196A      2.371459   197A      2.425168   198A      2.436981
     199A      2.471695   200A      2.489084   201A      2.492492
     202A      2.522153   203A      2.534443   204A      2.552248
     205A      2.591166   206A      2.598877   207A      2.619087
     208A      2.627841   209A      2.653711   210A      2.747898
     211A      2.760818   212A      2.767316   213A      2.771353
     214A      2.781327   215A      2.785096   216A      2.815569
     217A      2.830289   218A      2.849915   219A      2.896021
     220A      2.937629   221A      2.960305   222A      2.962296
     223A      2.986920   224A      3.005112   225A      3.075070
     226A      3.103075   227A      3.105640   228A      3.241920
     229A      3.282580   230A      3.341349   231A      3.565257
     232A      3.672244   233A      3.943188   234A      4.181657

    Final Occupation by Irrep:
              A
    DOCC [    42 ]

  @RHF Final Energy:  -462.89219393640536

   => Energetics <=

    Nuclear Repulsion Energy =            564.9811061776618999
    One-Electron Energy =               -1747.5043133842088992
    Two-Electron Energy =                 719.6310132701414659
    Total Energy =                       -462.8921939364054197

Computation Completed

Properties will be evaluated at   0.000000,   0.000000,   0.000000 [a0]

Properties computed using the SCF density matrix

  Nuclear Dipole Moment: [e a0]
     X:     5.6764      Y:     4.8440      Z:   -14.4196

  Electronic Dipole Moment: [e a0]
     X:    -5.8526      Y:    -4.6057      Z:    14.9776

  Dipole Moment: [e a0]
     X:    -0.1762      Y:     0.2384      Z:     0.5580     Total:     0.6318

  Dipole Moment: [D]
     X:    -0.4478      Y:     0.6058      Z:     1.4183     Total:     1.6059

*** tstop() called on ds3 at Mon Apr 27 07:49:20 2020
Module time:
	user time   =     132.63 seconds =       2.21 minutes
	system time =      59.68 seconds =       0.99 minutes
	total time  =        298 seconds =       4.97 minutes
Total time:
	user time   =     132.63 seconds =       2.21 minutes
	system time =      59.68 seconds =       0.99 minutes
	total time  =        298 seconds =       4.97 minutes
                                     G D M A

                                 by Anthony Stone

                           version 2.2.06, 22 June 2011

               Distributed Multipoles from Gaussian wavefunctions

Starting at 7:49:20 on 27 Apr 2020

Using SCF density matrix from file ./SSI/SSI-115MET-168TYR-1-dimer.test.32570.fchk

                         Distributed Multipole Analysis

Standard DMA

Positions and radii in angstrom
Multipole moments in atomic units, ea_0^k for rank k

C          x =  0.403836  y =  0.476026  z = -3.335600 angstrom
           Maximum rank =  0   Radius =  0.650 angstrom
                   Q00  =  -0.088819

C          x =  0.821836  y = -0.731974  z = -4.158600 angstrom
           Maximum rank =  0   Radius =  0.650 angstrom
                   Q00  =  -0.234160

C          x = -0.521164  y =  1.437026  z = -4.084600 angstrom
           Maximum rank =  0   Radius =  0.650 angstrom
                   Q00  =  -0.246442

H          x = -0.106164  y =  0.136026  z = -2.440600 angstrom
           Maximum rank =  0   Radius =  0.325 angstrom
                   Q00  =   0.053883

H          x =  1.269836  y =  1.026026  z = -3.008600 angstrom
           Maximum rank =  0   Radius =  0.325 angstrom
                   Q00  =   0.045653

H          x = -0.089164  y = -1.183974  z = -4.552600 angstrom
           Maximum rank =  0   Radius =  0.325 angstrom
                   Q00  =   0.074667

H          x = -0.600164  y =  2.365026  z = -3.517600 angstrom
           Maximum rank =  0   Radius =  0.325 angstrom
                   Q00  =   0.083854

H          x = -0.084164  y =  1.678026  z = -5.053600 angstrom
           Maximum rank =  0   Radius =  0.325 angstrom
                   Q00  =   0.071531

H          x =  1.366878  y = -1.455934  z = -3.535050 angstrom
           Maximum rank =  0   Radius =  0.325 angstrom
                   Q00  =   0.080811

H          x =  1.445901  y = -0.432274  z = -5.013420 angstrom
           Maximum rank =  0   Radius =  0.325 angstrom
                   Q00  =   0.076376

H          x = -1.534329  y =  1.036386  z = -4.236210 angstrom
           Maximum rank =  0   Radius =  0.325 angstrom
                   Q00  =   0.081512

C          x =  2.308836  y =  1.089026  z =  2.722400 angstrom
           Maximum rank =  0   Radius =  0.650 angstrom
                   Q00  =  -0.197556

C          x = -0.041164  y = -0.707974  z =  0.313400 angstrom
           Maximum rank =  0   Radius =  0.650 angstrom
                   Q00  =  -0.056056

C          x = -1.227164  y = -0.738974  z =  1.043400 angstrom
           Maximum rank =  0   Radius =  0.650 angstrom
                   Q00  =   0.315633

C          x =  1.101836  y = -0.121974  z =  0.840400 angstrom
           Maximum rank =  0   Radius =  0.650 angstrom
                   Q00  =  -0.056899

C          x =  1.092836  y =  0.415026  z =  2.139400 angstrom
           Maximum rank =  0   Radius =  0.650 angstrom
                   Q00  =  -0.139147

C          x = -1.245164  y = -0.216974  z =  2.339400 angstrom
           Maximum rank =  0   Radius =  0.650 angstrom
                   Q00  =  -0.193319

C          x = -0.090164  y =  0.351026  z =  2.877400 angstrom
           Maximum rank =  0   Radius =  0.650 angstrom
                   Q00  =   0.014168

O          x = -2.336164  y = -1.263974  z =  0.446400 angstrom
           Maximum rank =  0   Radius =  0.650 angstrom
                   Q00  =  -0.673268

H          x = -0.023164  y = -1.143974  z = -0.672600 angstrom
           Maximum rank =  0   Radius =  0.325 angstrom
                   Q00  =   0.080451

H          x =  2.005836  y = -0.079974  z =  0.246400 angstrom
           Maximum rank =  0   Radius =  0.325 angstrom
                   Q00  =   0.064394

H          x = -2.158164  y = -0.237974  z =  2.917400 angstrom
           Maximum rank =  0   Radius =  0.325 angstrom
                   Q00  =   0.073064

H          x = -3.125164  y = -1.183974  z =  1.012400 angstrom
           Maximum rank =  0   Radius =  0.325 angstrom
                   Q00  =   0.409228

H          x =  1.976836  y =  1.792026  z =  3.485400 angstrom
           Maximum rank =  0   Radius =  0.325 angstrom
                   Q00  =   0.094429

H          x =  2.787836  y =  1.684026  z =  1.943400 angstrom
           Maximum rank =  0   Radius =  0.325 angstrom
                   Q00  =   0.096204

H          x = -0.118164  y =  0.764026  z =  3.876400 angstrom
           Maximum rank =  0   Radius =  0.325 angstrom
                   Q00  =   0.068907

H          x =  3.052523  y =  0.410136  z =  3.165160 angstrom
           Maximum rank =  0   Radius =  0.325 angstrom
                   Q00  =   0.100904

Total multipoles referred to origin at
           x =   0.000000,  y =    0.000000,  z =    0.000000 angstrom
                   Q00  =  -0.000000

Finished at 7:49:20 on 27 Apr 2020

  DMA results are available in the Python driver through the
	  variable('DMA DISTRIBUTED MULTIPOLES')
  and
	  variable('DMA TOTAL MULTIPOLES')
  commands.

    Psi4 stopped on: Monday, 27 April 2020 07:49AM
    Psi4 wall time for execution: 0:04:58.78

*** Psi4 exiting successfully. Buy a developer a beer!
