                               Psi4 1.3.2 release

  ==> Input File <==

--------------------------------------------------------------------------
import numpy as np
set {scf_type pk
basis cc-pvdz
d_convergence 10
gdma_switch   0
gdma_limit    0
gdma_origin   [ 0.0,  0.0,  0.0 ]
}
molecule test {
    units Angstrom
    0 1
    --
    0 1
    C               -0.704478086142317     3.973196203597552    -2.222336332322346
    C               -0.909478086142317     1.773196203597552     0.659663667677654
    C               -0.495478086142317     3.188196203597552    -0.962336332322346
    C                0.480521913857683     3.322196203597553    -0.024336332322346
    N               -1.384478086142317     2.240196203597552    -0.497336332322346
    N                0.215521913857683     2.418196203597552     0.972663667677654
    H               -1.362478086142317     0.986196203597552     1.251663667677654
    H                0.795521913857683     2.228196203597552     1.782663667677654
    H                1.311521913857683     4.009196203597552    -0.063336332322346
    H                0.084521913857683     4.720196203597553    -2.281336332322346
    H               -1.652478086142317     4.506196203597552    -2.143336332322346
    H               -0.698748086142317     3.381666203597552    -3.149736332322346
    C               -0.245478086142317    -3.723803796402448    -2.120336332322346
    C                0.627521913857683    -1.401803796402448     1.369663667677654
    C                0.018521913857683    -2.644803796402448     1.489663667677654
    C                0.967521913857683    -0.904803796402448     0.126663667677654
    C               -0.259478086142317    -3.387803796402448     0.351663667677654
    C                0.700521913857683    -1.671803796402448    -1.012336332322346
    C                0.103521913857683    -2.920803796402448    -0.900336332322346
    O                0.855521913857683    -0.676803796402448     2.500663667677654
    H               -0.260478086142317    -3.015803796402448     2.463663667677655
    H                0.558521913857683    -1.144803796402448     3.288663667677654
    H                1.425521913857683     0.066196203597552     0.046663667677654
    H               -0.775478086142317    -4.328803796402448     0.458663667677654
    H                0.948521913857683    -1.278803796402448    -1.988336332322346
    H                0.214521913857683    -3.275803796402448    -3.002336332322346
    H               -1.321478086142317    -3.670803796402448    -2.247336332322346
    H                0.018161913857683    -4.790733796402447    -2.073856332322346

}
e, wfn = energy('scf', return_wfn=True)
gdma(wfn)
dmavals = variable('DMA DISTRIBUTED MULTIPOLES')
charges = np.array(dmavals)
print(charges)
np.save('SSI-102HIE-109TYR-1-dimer.npy', np.array(charges))--------------------------------------------------------------------------

*** tstart() called on ds3
*** at Sun Apr 26 22:25:26 2020

   => Loading Basis Set <=

    Name: CC-PVDZ
    Role: ORBITAL
    Keyword: BASIS
    atoms 1-4, 13-19  entry C          line   138 file /theoryfs2/ds/metcalf/miniconda2/envs/tf2gpu/share/psi4/basis/cc-pvdz.gbs
    atoms 5-6         entry N          line   168 file /theoryfs2/ds/metcalf/miniconda2/envs/tf2gpu/share/psi4/basis/cc-pvdz.gbs
    atoms 7-12, 21-28 entry H          line    22 file /theoryfs2/ds/metcalf/miniconda2/envs/tf2gpu/share/psi4/basis/cc-pvdz.gbs
    atoms 20          entry O          line   198 file /theoryfs2/ds/metcalf/miniconda2/envs/tf2gpu/share/psi4/basis/cc-pvdz.gbs

         ---------------------------------------------------------
                                   SCF
               by Justin Turney, Rob Parrish, Andy Simmonett
                          and Daniel G. A. Smith
                              RHF Reference
                        1 Threads,    500 MiB Core
         ---------------------------------------------------------

  ==> Geometry <==

    Molecular point group: c1
    Full point group: C1

    Geometry (in Angstrom), charge = 0, multiplicity = 1:

       Center              X                  Y                   Z               Mass
    ------------   -----------------  -----------------  -----------------  -----------------
         C           -0.704478086142     3.973196203598    -2.222336332322    12.000000000000
         C           -0.909478086142     1.773196203598     0.659663667678    12.000000000000
         C           -0.495478086142     3.188196203598    -0.962336332322    12.000000000000
         C            0.480521913858     3.322196203598    -0.024336332322    12.000000000000
         N           -1.384478086142     2.240196203598    -0.497336332322    14.003074004430
         N            0.215521913858     2.418196203598     0.972663667678    14.003074004430
         H           -1.362478086142     0.986196203598     1.251663667678     1.007825032230
         H            0.795521913858     2.228196203598     1.782663667678     1.007825032230
         H            1.311521913858     4.009196203598    -0.063336332322     1.007825032230
         H            0.084521913858     4.720196203598    -2.281336332322     1.007825032230
         H           -1.652478086142     4.506196203598    -2.143336332322     1.007825032230
         H           -0.698748086142     3.381666203598    -3.149736332322     1.007825032230
         C           -0.245478086142    -3.723803796402    -2.120336332322    12.000000000000
         C            0.627521913858    -1.401803796402     1.369663667678    12.000000000000
         C            0.018521913858    -2.644803796402     1.489663667678    12.000000000000
         C            0.967521913858    -0.904803796402     0.126663667678    12.000000000000
         C           -0.259478086142    -3.387803796402     0.351663667678    12.000000000000
         C            0.700521913858    -1.671803796402    -1.012336332322    12.000000000000
         C            0.103521913858    -2.920803796402    -0.900336332322    12.000000000000
         O            0.855521913858    -0.676803796402     2.500663667678    15.994914619570
         H           -0.260478086142    -3.015803796402     2.463663667678     1.007825032230
         H            0.558521913858    -1.144803796402     3.288663667678     1.007825032230
         H            1.425521913858     0.066196203598     0.046663667678     1.007825032230
         H           -0.775478086142    -4.328803796402     0.458663667678     1.007825032230
         H            0.948521913858    -1.278803796402    -1.988336332322     1.007825032230
         H            0.214521913858    -3.275803796402    -3.002336332322     1.007825032230
         H           -1.321478086142    -3.670803796402    -2.247336332322     1.007825032230
         H            0.018161913858    -4.790733796402    -2.073856332322     1.007825032230

  Running in c1 symmetry.

  Rotational constants: A =      0.03649  B =      0.01167  C =      0.00956 [cm^-1]
  Rotational constants: A =   1094.04749  B =    349.95319  C =    286.60403 [MHz]
  Nuclear repulsion =  824.927657868541814

  Charge       = 0
  Multiplicity = 1
  Electrons    = 102
  Nalpha       = 51
  Nbeta        = 51

  ==> Algorithm <==

  SCF Algorithm Type is PK.
  DIIS enabled.
  MOM disabled.
  Fractional occupation disabled.
  Guess Type is SAD.
  Energy threshold   = 1.00e-06
  Density threshold  = 1.00e-10
  Integral threshold = 0.00e+00

  ==> Primary Basis <==

  Basis Set: CC-PVDZ
    Blend: CC-PVDZ
    Number of shells: 126
    Number of basis function: 266
    Number of Cartesian functions: 280
    Spherical Harmonics?: true
    Max angular momentum: 2

  ==> Pre-Iterations <==

   -------------------------------------------------------
    Irrep   Nso     Nmo     Nalpha   Nbeta   Ndocc  Nsocc
   -------------------------------------------------------
     A        266     266       0       0       0       0
   -------------------------------------------------------
    Total     266     266      51      51      51       0
   -------------------------------------------------------

  ==> Integral Setup <==

  Using integral reordering PK algorithm.
  Sizing the integral batches needed.
  Building batch lookup table.
   Calculation information:
      Number of atoms:                  28
      Number of AO shells:             126
      Number of primitives:            378
      Number of atomic orbitals:       280
      Number of basis functions:       266

      Integral cutoff                 1.00e-12
      Number of threads:                 1

	Batch   1 pq = [       0,    9405] index = [             0,44231715] size =     44231715
	Batch   2 pq = [    9405,   13301] index = [      44231715,88464951] size =     44233236
	Batch   3 pq = [   13301,   16290] index = [      88464951,132690195] size =     44225244
	Batch   4 pq = [   16290,   18810] index = [     132690195,176917455] size =     44227260
	Batch   5 pq = [   18810,   21030] index = [     176917455,221140965] size =     44223510
	Batch   6 pq = [   21030,   23037] index = [     221140965,265363203] size =     44222238
	Batch   7 pq = [   23037,   24883] index = [     265363203,309594286] size =     44231083
	Batch   8 pq = [   24883,   26601] index = [     309594286,353819901] size =     44225615
	Batch   9 pq = [   26601,   28214] index = [     353819901,398029005] size =     44209104
	Batch  10 pq = [   28214,   29740] index = [     398029005,442248670] size =     44219665
	Batch  11 pq = [   29740,   31191] index = [     442248670,486454836] size =     44206166
	Batch  12 pq = [   31191,   32578] index = [     486454836,530679331] size =     44224495
	Batch  13 pq = [   32578,   33908] index = [     530679331,574893186] size =     44213855
	Batch  14 pq = [   33908,   35188] index = [     574893186,619115266] size =     44222080
	Batch  15 pq = [   35188,   35511] index = [     619115266,630533316] size =     11418050
  Task number: 58
  Buffer size: 11059200
  Buffer per thread: 2
  We computed 28380868 shell quartets total.
  Whereas there are 32012001 unique shell quartets.

  ==> DiskJK: Disk-Based J/K Matrices <==

    J tasked:                  Yes
    K tasked:                  Yes
    wK tasked:                  No
    Memory [MiB]:              375
    Schwarz Cutoff:          1E-12

    OpenMP threads:              1

  Minimum eigenvalue in the overlap matrix is 3.1320347363E-04.
  Using Symmetric Orthogonalization.

  SCF Guess: Superposition of Atomic Densities via on-the-fly atomic UHF.

  ==> Iterations <==

                        Total Energy        Delta E     RMS |[F,P]|

   @RHF iter SAD:  -607.60932479782230   -6.07609e+02   0.00000e+00
   @RHF iter   1:  -608.18386759430314   -5.74543e-01   2.62353e-03 DIIS
   @RHF iter   2:  -608.43885176116146   -2.54984e-01   1.26592e-03 DIIS
   @RHF iter   3:  -608.49159015641374   -5.27384e-02   3.46956e-04 DIIS
   @RHF iter   4:  -608.49668336366744   -5.09321e-03   1.45910e-04 DIIS
   @RHF iter   5:  -608.49753506450509   -8.51701e-04   2.04416e-05 DIIS
   @RHF iter   6:  -608.49756422721089   -2.91627e-05   9.18412e-06 DIIS
   @RHF iter   7:  -608.49756932513424   -5.09792e-06   2.97495e-06 DIIS
   @RHF iter   8:  -608.49757027527141   -9.50137e-07   1.20821e-06 DIIS
   @RHF iter   9:  -608.49757043946806   -1.64197e-07   4.80870e-07 DIIS
   @RHF iter  10:  -608.49757046567220   -2.62041e-08   1.75276e-07 DIIS
   @RHF iter  11:  -608.49757046987327   -4.20107e-09   6.56655e-08 DIIS
   @RHF iter  12:  -608.49757047040794   -5.34669e-10   2.75771e-08 DIIS
   @RHF iter  13:  -608.49757047048752   -7.95808e-11   8.60731e-09 DIIS
   @RHF iter  14:  -608.49757047050116   -1.36424e-11   3.64990e-09 DIIS
   @RHF iter  15:  -608.49757047050207   -9.09495e-13   1.60505e-09 DIIS
   @RHF iter  16:  -608.49757047049968    2.38742e-12   6.15504e-10 DIIS
   @RHF iter  17:  -608.49757047049889    7.95808e-13   2.85641e-10 DIIS
   @RHF iter  18:  -608.49757047049718    1.70530e-12   7.87682e-11 DIIS
  Energy and wave function converged.

  ==> Post-Iterations <==

    Orbital Energies [Eh]
    ---------------------

    Doubly Occupied:

       1A    -20.593004     2A    -15.611660     3A    -15.521382
       4A    -11.299508     5A    -11.284226     6A    -11.242697
       7A    -11.237949     8A    -11.237387     9A    -11.234852
      10A    -11.234695    11A    -11.232388    12A    -11.230509
      13A    -11.225585    14A    -11.219405    15A     -1.409767
      16A     -1.331261    17A     -1.155251    18A     -1.145570
      19A     -1.041235    20A     -1.023344    21A     -1.020142
      22A     -0.933375    23A     -0.927961    24A     -0.849279
      25A     -0.809977    26A     -0.805353    27A     -0.753615
      28A     -0.737815    29A     -0.732360    30A     -0.673593
      31A     -0.645408    32A     -0.611110    33A     -0.602955
      34A     -0.599706    35A     -0.592458    36A     -0.586551
      37A     -0.585191    38A     -0.572332    39A     -0.568619
      40A     -0.545507    41A     -0.536707    42A     -0.530390
      43A     -0.514279    44A     -0.498487    45A     -0.488655
      46A     -0.470055    47A     -0.405002    48A     -0.370733
      49A     -0.339902    50A     -0.307740    51A     -0.297824

    Virtual:

      52A      0.128446    53A      0.156955    54A      0.165304
      55A      0.187748    56A      0.194022    57A      0.201412
      58A      0.207667    59A      0.218117    60A      0.224900
      61A      0.233756    62A      0.243554    63A      0.245832
      64A      0.266285    65A      0.273204    66A      0.276255
      67A      0.287641    68A      0.299340    69A      0.309117
      70A      0.371728    71A      0.372576    72A      0.387226
      73A      0.398867    74A      0.423476    75A      0.434902
      76A      0.455964    77A      0.480288    78A      0.485965
      79A      0.496790    80A      0.502954    81A      0.512734
      82A      0.613165    83A      0.618291    84A      0.620783
      85A      0.625060    86A      0.640416    87A      0.647708
      88A      0.653470    89A      0.660688    90A      0.679041
      91A      0.691953    92A      0.702704    93A      0.706821
      94A      0.719358    95A      0.732358    96A      0.736347
      97A      0.755316    98A      0.760469    99A      0.771032
     100A      0.778932   101A      0.783834   102A      0.787789
     103A      0.807548   104A      0.809461   105A      0.819493
     106A      0.834381   107A      0.845163   108A      0.851100
     109A      0.861721   110A      0.881656   111A      0.882314
     112A      0.886322   113A      0.893386   114A      0.902736
     115A      0.910718   116A      0.918139   117A      0.931007
     118A      0.934748   119A      0.939993   120A      0.950034
     121A      0.954678   122A      0.966301   123A      0.978157
     124A      0.996015   125A      1.018063   126A      1.030106
     127A      1.038562   128A      1.053639   129A      1.081651
     130A      1.092676   131A      1.115715   132A      1.126905
     133A      1.136588   134A      1.146744   135A      1.161128
     136A      1.166718   137A      1.184504   138A      1.219438
     139A      1.227238   140A      1.244822   141A      1.248155
     142A      1.265983   143A      1.267193   144A      1.279571
     145A      1.285519   146A      1.291647   147A      1.310043
     148A      1.317430   149A      1.327320   150A      1.328884
     151A      1.355950   152A      1.364142   153A      1.385214
     154A      1.413017   155A      1.442106   156A      1.453839
     157A      1.486431   158A      1.493475   159A      1.512332
     160A      1.523319   161A      1.537307   162A      1.569085
     163A      1.573791   164A      1.597972   165A      1.620984
     166A      1.632287   167A      1.653495   168A      1.673995
     169A      1.695363   170A      1.698856   171A      1.732030
     172A      1.736829   173A      1.750206   174A      1.779483
     175A      1.801208   176A      1.811022   177A      1.813806
     178A      1.821083   179A      1.830810   180A      1.862173
     181A      1.886086   182A      1.895188   183A      1.903629
     184A      1.910349   185A      1.912465   186A      1.929102
     187A      1.934411   188A      1.943878   189A      1.949424
     190A      1.956440   191A      1.957517   192A      1.965197
     193A      1.976648   194A      1.984303   195A      2.008231
     196A      2.019310   197A      2.028875   198A      2.043937
     199A      2.056208   200A      2.067169   201A      2.069829
     202A      2.083911   203A      2.114690   204A      2.124384
     205A      2.135524   206A      2.139780   207A      2.162138
     208A      2.175559   209A      2.187205   210A      2.205538
     211A      2.221975   212A      2.224876   213A      2.237129
     214A      2.261423   215A      2.283043   216A      2.311587
     217A      2.316449   218A      2.356211   219A      2.367766
     220A      2.393005   221A      2.395642   222A      2.410422
     223A      2.451549   224A      2.459739   225A      2.469871
     226A      2.484265   227A      2.488909   228A      2.493590
     229A      2.546081   230A      2.548817   231A      2.571080
     232A      2.618752   233A      2.621272   234A      2.657028
     235A      2.689195   236A      2.745395   237A      2.750568
     238A      2.760170   239A      2.769871   240A      2.783648
     241A      2.793085   242A      2.802259   243A      2.815003
     244A      2.828054   245A      2.855888   246A      2.876972
     247A      2.902002   248A      2.909208   249A      2.941621
     250A      2.969372   251A      2.982752   252A      3.016028
     253A      3.074443   254A      3.099954   255A      3.149242
     256A      3.170022   257A      3.243207   258A      3.251226
     259A      3.299485   260A      3.335918   261A      3.473284
     262A      3.582893   263A      3.675188   264A      3.809603
     265A      3.990622   266A      4.184262

    Final Occupation by Irrep:
              A
    DOCC [    51 ]

  @RHF Final Energy:  -608.49757047049718

   => Energetics <=

    Nuclear Repulsion Energy =            824.9276578685418144
    One-Electron Energy =               -2464.0009416891962246
    Two-Electron Energy =                1030.5757133501574572
    Total Energy =                       -608.4975704704970667

Computation Completed

Properties will be evaluated at   0.000000,   0.000000,   0.000000 [a0]

Properties computed using the SCF density matrix

  Nuclear Dipole Moment: [e a0]
     X:    -0.6622      Y:    -1.5240      Z:    -7.1682

  Electronic Dipole Moment: [e a0]
     X:     1.3266      Y:     0.9916      Z:     8.1832

  Dipole Moment: [e a0]
     X:     0.6644      Y:    -0.5323      Z:     1.0151     Total:     1.3248

  Dipole Moment: [D]
     X:     1.6888      Y:    -1.3531      Z:     2.5800     Total:     3.3674

*** tstop() called on ds3 at Sun Apr 26 22:31:57 2020
Module time:
	user time   =     243.14 seconds =       4.05 minutes
	system time =      98.84 seconds =       1.65 minutes
	total time  =        391 seconds =       6.52 minutes
Total time:
	user time   =     243.14 seconds =       4.05 minutes
	system time =      98.84 seconds =       1.65 minutes
	total time  =        391 seconds =       6.52 minutes
                                     G D M A

                                 by Anthony Stone

                           version 2.2.06, 22 June 2011

               Distributed Multipoles from Gaussian wavefunctions

Starting at 22:31:57 on 26 Apr 2020

Using SCF density matrix from file ./SSI/SSI-102HIE-109TYR-1-dimer.test.2809.fchk

                         Distributed Multipole Analysis

Standard DMA

Positions and radii in angstrom
Multipole moments in atomic units, ea_0^k for rank k

C          x = -0.704478  y =  3.973196  z = -2.222336 angstrom
           Maximum rank =  0   Radius =  0.650 angstrom
                   Q00  =  -0.192121

C          x = -0.909478  y =  1.773196  z =  0.659664 angstrom
           Maximum rank =  0   Radius =  0.650 angstrom
                   Q00  =   0.460852

C          x = -0.495478  y =  3.188196  z = -0.962336 angstrom
           Maximum rank =  0   Radius =  0.650 angstrom
                   Q00  =   0.222193

C          x =  0.480522  y =  3.322196  z = -0.024336 angstrom
           Maximum rank =  0   Radius =  0.650 angstrom
                   Q00  =  -0.006880

N          x = -1.384478  y =  2.240196  z = -0.497336 angstrom
           Maximum rank =  0   Radius =  0.650 angstrom
                   Q00  =  -0.763004

N          x =  0.215522  y =  2.418196  z =  0.972664 angstrom
           Maximum rank =  0   Radius =  0.650 angstrom
                   Q00  =  -0.480081

H          x = -1.362478  y =  0.986196  z =  1.251664 angstrom
           Maximum rank =  0   Radius =  0.325 angstrom
                   Q00  =   0.124608

H          x =  0.795522  y =  2.228196  z =  1.782664 angstrom
           Maximum rank =  0   Radius =  0.325 angstrom
                   Q00  =   0.232784

H          x =  1.311522  y =  4.009196  z = -0.063336 angstrom
           Maximum rank =  0   Radius =  0.325 angstrom
                   Q00  =   0.096862

H          x =  0.084522  y =  4.720196  z = -2.281336 angstrom
           Maximum rank =  0   Radius =  0.325 angstrom
                   Q00  =   0.088651

H          x = -1.652478  y =  4.506196  z = -2.143336 angstrom
           Maximum rank =  0   Radius =  0.325 angstrom
                   Q00  =   0.109114

H          x = -0.698748  y =  3.381666  z = -3.149736 angstrom
           Maximum rank =  0   Radius =  0.325 angstrom
                   Q00  =   0.105357

C          x = -0.245478  y = -3.723804  z = -2.120336 angstrom
           Maximum rank =  0   Radius =  0.650 angstrom
                   Q00  =  -0.205898

C          x =  0.627522  y = -1.401804  z =  1.369664 angstrom
           Maximum rank =  0   Radius =  0.650 angstrom
                   Q00  =   0.292092

C          x =  0.018522  y = -2.644804  z =  1.489664 angstrom
           Maximum rank =  0   Radius =  0.650 angstrom
                   Q00  =  -0.175242

C          x =  0.967522  y = -0.904804  z =  0.126664 angstrom
           Maximum rank =  0   Radius =  0.650 angstrom
                   Q00  =  -0.112593

C          x = -0.259478  y = -3.387804  z =  0.351664 angstrom
           Maximum rank =  0   Radius =  0.650 angstrom
                   Q00  =  -0.019848

C          x =  0.700522  y = -1.671804  z = -1.012336 angstrom
           Maximum rank =  0   Radius =  0.650 angstrom
                   Q00  =   0.003230

C          x =  0.103522  y = -2.920804  z = -0.900336 angstrom
           Maximum rank =  0   Radius =  0.650 angstrom
                   Q00  =  -0.116688

O          x =  0.855522  y = -0.676804  z =  2.500664 angstrom
           Maximum rank =  0   Radius =  0.650 angstrom
                   Q00  =  -0.654637

H          x = -0.260478  y = -3.015804  z =  2.463664 angstrom
           Maximum rank =  0   Radius =  0.325 angstrom
                   Q00  =   0.067978

H          x =  0.558522  y = -1.144804  z =  3.288664 angstrom
           Maximum rank =  0   Radius =  0.325 angstrom
                   Q00  =   0.410177

H          x =  1.425522  y =  0.066196  z =  0.046664 angstrom
           Maximum rank =  0   Radius =  0.325 angstrom
                   Q00  =   0.083545

H          x = -0.775478  y = -4.328804  z =  0.458664 angstrom
           Maximum rank =  0   Radius =  0.325 angstrom
                   Q00  =   0.065829

H          x =  0.948522  y = -1.278804  z = -1.988336 angstrom
           Maximum rank =  0   Radius =  0.325 angstrom
                   Q00  =   0.069480

H          x =  0.214522  y = -3.275804  z = -3.002336 angstrom
           Maximum rank =  0   Radius =  0.325 angstrom
                   Q00  =   0.098038

H          x = -1.321478  y = -3.670804  z = -2.247336 angstrom
           Maximum rank =  0   Radius =  0.325 angstrom
                   Q00  =   0.099921

H          x =  0.018162  y = -4.790734  z = -2.073856 angstrom
           Maximum rank =  0   Radius =  0.325 angstrom
                   Q00  =   0.096281

Total multipoles referred to origin at
           x =   0.000000,  y =    0.000000,  z =    0.000000 angstrom
                   Q00  =  -0.000000

Finished at 22:31:57 on 26 Apr 2020

  DMA results are available in the Python driver through the
	  variable('DMA DISTRIBUTED MULTIPOLES')
  and
	  variable('DMA TOTAL MULTIPOLES')
  commands.

    Psi4 stopped on: Sunday, 26 April 2020 10:31PM
    Psi4 wall time for execution: 0:06:30.94

*** Psi4 exiting successfully. Buy a developer a beer!
