                               Psi4 1.3.2 release

  ==> Input File <==

--------------------------------------------------------------------------
import numpy as np
set {scf_type pk
basis cc-pvdz
d_convergence 10
gdma_switch   0
gdma_limit    0
gdma_origin   [ 0.0,  0.0,  0.0 ]
}
molecule test {
    units Angstrom
    0 1
    --
    0 1
    C                3.327322328876537     0.334817300831055     1.036047426140511
    C               -0.232677671123463    -0.747182699168945     1.647047426140511
    C                0.949322328876537    -0.030182699168945     1.727047426140511
    C               -0.285677671123463    -1.881182699168945     0.851047426140512
    C                2.061322328876537    -0.467182699168945     0.997047426140512
    C                0.806322328876537    -2.328182699168945     0.129047426140512
    C                1.994322328876537    -1.605182699168945     0.209047426140512
    H               -1.103677671123463    -0.426182699168945     2.199047426140512
    H                1.002322328876537     0.861817300831055     2.335047426140512
    H               -1.212677671123463    -2.435182699168945     0.797047426140511
    H                0.737322328876537    -3.211182699168945    -0.489952573859488
    H                3.063322328876537     1.391817300831055     0.997047426140512
    H                3.889322328876537     0.116817300831055     0.126047426140512
    H                2.856322328876537    -1.930182699168945    -0.355952573859488
    H                4.001632328876537     0.173300300831055     1.889987426140512
    C               -0.848677671123463     2.134817300831055    -0.654952573859488
    C               -3.382677671123463     1.345817300831055    -1.361952573859488
    S               -1.646677671123463     1.032817300831055    -1.792952573859488
    H               -1.028677671123463     1.816817300831055     0.371047426140512
    H                0.225322328876537     2.126817300831055    -0.838952573859488
    H               -1.230677671123463     3.143817300831055    -0.802952573859488
    H               -3.998677671123463     0.850817300831055    -2.108952573859488
    H               -3.578677671123463     2.416817300831055    -1.400952573859489
    H               -3.641467671123463     0.960487300831055    -0.364682573859488

}
e, wfn = energy('scf', return_wfn=True)
gdma(wfn)
dmavals = variable('DMA DISTRIBUTED MULTIPOLES')
charges = np.array(dmavals)
print(charges)
np.save('SSI-103PHE-122MET-1-dimer.npy', np.array(charges))--------------------------------------------------------------------------

*** tstart() called on ds3
*** at Tue Apr 28 16:03:59 2020

   => Loading Basis Set <=

    Name: CC-PVDZ
    Role: ORBITAL
    Keyword: BASIS
    atoms 1-7, 16-17  entry C          line   138 file /theoryfs2/ds/metcalf/miniconda2/envs/tf2gpu/share/psi4/basis/cc-pvdz.gbs
    atoms 8-15, 19-24 entry H          line    22 file /theoryfs2/ds/metcalf/miniconda2/envs/tf2gpu/share/psi4/basis/cc-pvdz.gbs
    atoms 18          entry S          line   598 file /theoryfs2/ds/metcalf/miniconda2/envs/tf2gpu/share/psi4/basis/cc-pvdz.gbs

         ---------------------------------------------------------
                                   SCF
               by Justin Turney, Rob Parrish, Andy Simmonett
                          and Daniel G. A. Smith
                              RHF Reference
                        1 Threads,    500 MiB Core
         ---------------------------------------------------------

  ==> Geometry <==

    Molecular point group: c1
    Full point group: C1

    Geometry (in Angstrom), charge = 0, multiplicity = 1:

       Center              X                  Y                   Z               Mass
    ------------   -----------------  -----------------  -----------------  -----------------
         C            3.327322328877     0.334817300831     1.036047426141    12.000000000000
         C           -0.232677671123    -0.747182699169     1.647047426141    12.000000000000
         C            0.949322328877    -0.030182699169     1.727047426141    12.000000000000
         C           -0.285677671123    -1.881182699169     0.851047426141    12.000000000000
         C            2.061322328877    -0.467182699169     0.997047426141    12.000000000000
         C            0.806322328877    -2.328182699169     0.129047426141    12.000000000000
         C            1.994322328877    -1.605182699169     0.209047426141    12.000000000000
         H           -1.103677671123    -0.426182699169     2.199047426141     1.007825032230
         H            1.002322328877     0.861817300831     2.335047426141     1.007825032230
         H           -1.212677671123    -2.435182699169     0.797047426141     1.007825032230
         H            0.737322328877    -3.211182699169    -0.489952573859     1.007825032230
         H            3.063322328877     1.391817300831     0.997047426141     1.007825032230
         H            3.889322328877     0.116817300831     0.126047426141     1.007825032230
         H            2.856322328877    -1.930182699169    -0.355952573859     1.007825032230
         H            4.001632328877     0.173300300831     1.889987426141     1.007825032230
         C           -0.848677671123     2.134817300831    -0.654952573859    12.000000000000
         C           -3.382677671123     1.345817300831    -1.361952573859    12.000000000000
         S           -1.646677671123     1.032817300831    -1.792952573859    31.972071174400
         H           -1.028677671123     1.816817300831     0.371047426141     1.007825032230
         H            0.225322328877     2.126817300831    -0.838952573859     1.007825032230
         H           -1.230677671123     3.143817300831    -0.802952573859     1.007825032230
         H           -3.998677671123     0.850817300831    -2.108952573859     1.007825032230
         H           -3.578677671123     2.416817300831    -1.400952573859     1.007825032230
         H           -3.641467671123     0.960487300831    -0.364682573859     1.007825032230

  Running in c1 symmetry.

  Rotational constants: A =      0.05569  B =      0.01783  C =      0.01609 [cm^-1]
  Rotational constants: A =   1669.58217  B =    534.65791  C =    482.43269 [MHz]
  Nuclear repulsion =  566.781702054428592

  Charge       = 0
  Multiplicity = 1
  Electrons    = 84
  Nalpha       = 42
  Nbeta        = 42

  ==> Algorithm <==

  SCF Algorithm Type is PK.
  DIIS enabled.
  MOM disabled.
  Fractional occupation disabled.
  Guess Type is SAD.
  Energy threshold   = 1.00e-06
  Density threshold  = 1.00e-10
  Integral threshold = 0.00e+00

  ==> Primary Basis <==

  Basis Set: CC-PVDZ
    Blend: CC-PVDZ
    Number of shells: 104
    Number of basis function: 214
    Number of Cartesian functions: 224
    Spherical Harmonics?: true
    Max angular momentum: 2

  ==> Pre-Iterations <==

   -------------------------------------------------------
    Irrep   Nso     Nmo     Nalpha   Nbeta   Ndocc  Nsocc
   -------------------------------------------------------
     A        214     214       0       0       0       0
   -------------------------------------------------------
    Total     214     214      42      42      42       0
   -------------------------------------------------------

  ==> Integral Setup <==

  Using integral reordering PK algorithm.
  Sizing the integral batches needed.
  Building batch lookup table.
   Calculation information:
      Number of atoms:                  24
      Number of AO shells:             104
      Number of primitives:            318
      Number of atomic orbitals:       224
      Number of basis functions:       214

      Integral cutoff                 1.00e-12
      Number of threads:                 1

	Batch   1 pq = [       0,    9405] index = [             0,44231715] size =     44231715
	Batch   2 pq = [    9405,   13301] index = [      44231715,88464951] size =     44233236
	Batch   3 pq = [   13301,   16290] index = [      88464951,132690195] size =     44225244
	Batch   4 pq = [   16290,   18810] index = [     132690195,176917455] size =     44227260
	Batch   5 pq = [   18810,   21030] index = [     176917455,221140965] size =     44223510
	Batch   6 pq = [   21030,   23005] index = [     221140965,264626515] size =     43485550
  Task number: 24
  Buffer size: 11059200
  Buffer per thread: 2
  We computed 13840683 shell quartets total.
  Whereas there are 14908530 unique shell quartets.

  ==> DiskJK: Disk-Based J/K Matrices <==

    J tasked:                  Yes
    K tasked:                  Yes
    wK tasked:                  No
    Memory [MiB]:              375
    Schwarz Cutoff:          1E-12

    OpenMP threads:              1

  Minimum eigenvalue in the overlap matrix is 3.1110609318E-04.
  Using Symmetric Orthogonalization.

  SCF Guess: Superposition of Atomic Densities via on-the-fly atomic UHF.

  ==> Iterations <==

                        Total Energy        Delta E     RMS |[F,P]|

   @RHF iter SAD:  -745.49139155367743   -7.45491e+02   0.00000e+00
   @RHF iter   1:  -746.29992685243064   -8.08535e-01   2.53393e-03 DIIS
   @RHF iter   2:  -746.48486609597740   -1.84939e-01   1.00975e-03 DIIS
   @RHF iter   3:  -746.51084866882866   -2.59826e-02   2.47196e-04 DIIS
   @RHF iter   4:  -746.51340403584948   -2.55537e-03   5.19211e-05 DIIS
   @RHF iter   5:  -746.51349217667575   -8.81408e-05   1.55439e-05 DIIS
   @RHF iter   6:  -746.51349944000413   -7.26333e-06   4.37635e-06 DIIS
   @RHF iter   7:  -746.51350016802814   -7.28024e-07   1.47671e-06 DIIS
   @RHF iter   8:  -746.51350026844000   -1.00412e-07   4.63337e-07 DIIS
   @RHF iter   9:  -746.51350029163257   -2.31926e-08   2.17007e-07 DIIS
   @RHF iter  10:  -746.51350029742093   -5.78837e-09   9.83869e-08 DIIS
   @RHF iter  11:  -746.51350029886487   -1.44394e-09   3.36409e-08 DIIS
   @RHF iter  12:  -746.51350029902369   -1.58821e-10   9.96439e-09 DIIS
   @RHF iter  13:  -746.51350029903040   -6.70752e-12   2.93806e-09 DIIS
   @RHF iter  14:  -746.51350029903392   -3.52429e-12   1.14348e-09 DIIS
   @RHF iter  15:  -746.51350029903483   -9.09495e-13   4.84597e-10 DIIS
   @RHF iter  16:  -746.51350029903369    1.13687e-12   2.45874e-10 DIIS
   @RHF iter  17:  -746.51350029903404   -3.41061e-13   1.12766e-10 DIIS
   @RHF iter  18:  -746.51350029903256    1.47793e-12   3.46924e-11 DIIS
  Energy and wave function converged.

  ==> Post-Iterations <==

    Orbital Energies [Eh]
    ---------------------

    Doubly Occupied:

       1A    -91.928346     2A    -11.252950     3A    -11.245462
       4A    -11.237595     5A    -11.232560     6A    -11.232081
       7A    -11.229865     8A    -11.228263     9A    -11.226534
      10A    -11.226478    11A     -8.932443    12A     -6.614525
      13A     -6.612932    14A     -6.610642    15A     -1.153562
      16A     -1.059040    17A     -1.043324    18A     -1.013832
      19A     -0.946340    20A     -0.927944    21A     -0.825471
      22A     -0.798711    23A     -0.793609    24A     -0.690004
      25A     -0.631186    26A     -0.630305    27A     -0.600492
      28A     -0.595331    29A     -0.586817    30A     -0.575040
      31A     -0.569227    32A     -0.556983    33A     -0.555697
      34A     -0.531127    35A     -0.490999    36A     -0.487382
      37A     -0.485334    38A     -0.477021    39A     -0.422095
      40A     -0.332692    41A     -0.327331    42A     -0.315795

    Virtual:

      43A      0.135775    44A      0.143163    45A      0.167913
      46A      0.183157    47A      0.198329    48A      0.202523
      49A      0.218737    50A      0.236558    51A      0.242979
      52A      0.247405    53A      0.256775    54A      0.260814
      55A      0.269256    56A      0.285367    57A      0.293097
      58A      0.297666    59A      0.306064    60A      0.318833
      61A      0.370369    62A      0.382189    63A      0.457301
      64A      0.463336    65A      0.478471    66A      0.497520
      67A      0.515877    68A      0.556139    69A      0.569549
      70A      0.583899    71A      0.602560    72A      0.615254
      73A      0.626750    74A      0.648746    75A      0.660587
      76A      0.681534    77A      0.692271    78A      0.707818
      79A      0.712008    80A      0.737377    81A      0.743458
      82A      0.745431    83A      0.754209    84A      0.761508
      85A      0.765957    86A      0.781864    87A      0.793386
      88A      0.802540    89A      0.814842    90A      0.833052
      91A      0.846807    92A      0.856497    93A      0.864172
      94A      0.866335    95A      0.877892    96A      0.883344
      97A      0.885652    98A      0.887826    99A      0.898326
     100A      0.904347   101A      0.905004   102A      0.915121
     103A      0.916928   104A      0.921100   105A      0.933192
     106A      0.946989   107A      0.956351   108A      0.983400
     109A      0.995718   110A      1.006071   111A      1.030961
     112A      1.055209   113A      1.129763   114A      1.142201
     115A      1.148381   116A      1.164183   117A      1.175734
     118A      1.194140   119A      1.239864   120A      1.247594
     121A      1.254844   122A      1.264016   123A      1.270566
     124A      1.301168   125A      1.310162   126A      1.318234
     127A      1.320281   128A      1.328142   129A      1.340641
     130A      1.382219   131A      1.402696   132A      1.409783
     133A      1.473414   134A      1.479995   135A      1.505871
     136A      1.521533   137A      1.561338   138A      1.602807
     139A      1.669689   140A      1.675002   141A      1.695506
     142A      1.704159   143A      1.740220   144A      1.761721
     145A      1.774293   146A      1.789672   147A      1.819009
     148A      1.861824   149A      1.878251   150A      1.890721
     151A      1.892664   152A      1.900000   153A      1.911922
     154A      1.914507   155A      1.917155   156A      1.924405
     157A      1.928626   158A      1.949648   159A      1.954275
     160A      1.957304   161A      1.977311   162A      1.983660
     163A      1.989635   164A      1.999848   165A      2.001857
     166A      2.020113   167A      2.038126   168A      2.045364
     169A      2.057261   170A      2.077980   171A      2.080739
     172A      2.119431   173A      2.149485   174A      2.166586
     175A      2.168908   176A      2.187008   177A      2.189701
     178A      2.225577   179A      2.239350   180A      2.247328
     181A      2.276928   182A      2.298562   183A      2.310416
     184A      2.326029   185A      2.331553   186A      2.410522
     187A      2.444069   188A      2.447671   189A      2.465818
     190A      2.467659   191A      2.478995   192A      2.513253
     193A      2.552853   194A      2.617491   195A      2.733009
     196A      2.747474   197A      2.759745   198A      2.767298
     199A      2.770109   200A      2.776329   201A      2.790711
     202A      2.801667   203A      2.806670   204A      2.818667
     205A      2.855692   206A      2.868247   207A      2.876162
     208A      2.978539   209A      3.021324   210A      3.040164
     211A      3.159431   212A      3.211627   213A      3.312826
     214A      3.986840

    Final Occupation by Irrep:
              A
    DOCC [    42 ]

  @RHF Final Energy:  -746.51350029903256

   => Energetics <=

    Nuclear Repulsion Energy =            566.7817020544285924
    One-Electron Energy =               -2146.1236777869717116
    Two-Electron Energy =                 832.8284754335106754
    Total Energy =                       -746.5135002990325575

Computation Completed

Properties will be evaluated at   0.000000,   0.000000,   0.000000 [a0]

Properties computed using the SCF density matrix

  Nuclear Dipole Moment: [e a0]
     X:    -0.0612      Y:     5.5176      Z:     2.1584

  Electronic Dipole Moment: [e a0]
     X:    -0.0880      Y:    -5.1427      Z:    -1.7561

  Dipole Moment: [e a0]
     X:    -0.1493      Y:     0.3749      Z:     0.4024     Total:     0.5698

  Dipole Moment: [D]
     X:    -0.3794      Y:     0.9529      Z:     1.0227     Total:     1.4484

*** tstop() called on ds3 at Tue Apr 28 16:08:41 2020
Module time:
	user time   =     120.48 seconds =       2.01 minutes
	system time =      39.16 seconds =       0.65 minutes
	total time  =        282 seconds =       4.70 minutes
Total time:
	user time   =     120.48 seconds =       2.01 minutes
	system time =      39.16 seconds =       0.65 minutes
	total time  =        282 seconds =       4.70 minutes
                                     G D M A

                                 by Anthony Stone

                           version 2.2.06, 22 June 2011

               Distributed Multipoles from Gaussian wavefunctions

Starting at 16:8:41 on 28 Apr 2020

Using SCF density matrix from file ./SSI/SSI-103PHE-122MET-1-dimer.test.30344.fchk

                         Distributed Multipole Analysis

Standard DMA

Positions and radii in angstrom
Multipole moments in atomic units, ea_0^k for rank k

C          x =  3.327322  y =  0.334817  z =  1.036047 angstrom
           Maximum rank =  0   Radius =  0.650 angstrom
                   Q00  =  -0.197999

C          x = -0.232678  y = -0.747183  z =  1.647047 angstrom
           Maximum rank =  0   Radius =  0.650 angstrom
                   Q00  =  -0.075042

C          x =  0.949322  y = -0.030183  z =  1.727047 angstrom
           Maximum rank =  0   Radius =  0.650 angstrom
                   Q00  =  -0.102203

C          x = -0.285678  y = -1.881183  z =  0.851047 angstrom
           Maximum rank =  0   Radius =  0.650 angstrom
                   Q00  =   0.017805

C          x =  2.061322  y = -0.467183  z =  0.997047 angstrom
           Maximum rank =  0   Radius =  0.650 angstrom
                   Q00  =  -0.075040

C          x =  0.806322  y = -2.328183  z =  0.129047 angstrom
           Maximum rank =  0   Radius =  0.650 angstrom
                   Q00  =  -0.069985

C          x =  1.994322  y = -1.605183  z =  0.209047 angstrom
           Maximum rank =  0   Radius =  0.650 angstrom
                   Q00  =  -0.086035

H          x = -1.103678  y = -0.426183  z =  2.199047 angstrom
           Maximum rank =  0   Radius =  0.325 angstrom
                   Q00  =   0.060540

H          x =  1.002322  y =  0.861817  z =  2.335047 angstrom
           Maximum rank =  0   Radius =  0.325 angstrom
                   Q00  =   0.055712

H          x = -1.212678  y = -2.435183  z =  0.797047 angstrom
           Maximum rank =  0   Radius =  0.325 angstrom
                   Q00  =   0.056853

H          x =  0.737322  y = -3.211183  z = -0.489953 angstrom
           Maximum rank =  0   Radius =  0.325 angstrom
                   Q00  =   0.067939

H          x =  3.063322  y =  1.391817  z =  0.997047 angstrom
           Maximum rank =  0   Radius =  0.325 angstrom
                   Q00  =   0.091622

H          x =  3.889322  y =  0.116817  z =  0.126047 angstrom
           Maximum rank =  0   Radius =  0.325 angstrom
                   Q00  =   0.092780

H          x =  2.856322  y = -1.930183  z = -0.355953 angstrom
           Maximum rank =  0   Radius =  0.325 angstrom
                   Q00  =   0.058502

H          x =  4.001632  y =  0.173300  z =  1.889987 angstrom
           Maximum rank =  0   Radius =  0.325 angstrom
                   Q00  =   0.103271

C          x = -0.848678  y =  2.134817  z = -0.654953 angstrom
           Maximum rank =  0   Radius =  0.650 angstrom
                   Q00  =  -0.339816

C          x = -3.382678  y =  1.345817  z = -1.361953 angstrom
           Maximum rank =  0   Radius =  0.650 angstrom
                   Q00  =  -0.365306

S          x = -1.646678  y =  1.032817  z = -1.792953 angstrom
           Maximum rank =  0   Radius =  0.650 angstrom
                   Q00  =   0.137209

H          x = -1.028678  y =  1.816817  z =  0.371047 angstrom
           Maximum rank =  0   Radius =  0.325 angstrom
                   Q00  =   0.081194

H          x =  0.225322  y =  2.126817  z = -0.838953 angstrom
           Maximum rank =  0   Radius =  0.325 angstrom
                   Q00  =   0.120630

H          x = -1.230678  y =  3.143817  z = -0.802953 angstrom
           Maximum rank =  0   Radius =  0.325 angstrom
                   Q00  =   0.075229

H          x = -3.998678  y =  0.850817  z = -2.108953 angstrom
           Maximum rank =  0   Radius =  0.325 angstrom
                   Q00  =   0.119119

H          x = -3.578678  y =  2.416817  z = -1.400953 angstrom
           Maximum rank =  0   Radius =  0.325 angstrom
                   Q00  =   0.086119

H          x = -3.641468  y =  0.960487  z = -0.364683 angstrom
           Maximum rank =  0   Radius =  0.325 angstrom
                   Q00  =   0.086904

Total multipoles referred to origin at
           x =   0.000000,  y =    0.000000,  z =    0.000000 angstrom
                   Q00  =  -0.000000

Finished at 16:8:42 on 28 Apr 2020

  DMA results are available in the Python driver through the
	  variable('DMA DISTRIBUTED MULTIPOLES')
  and
	  variable('DMA TOTAL MULTIPOLES')
  commands.

    Psi4 stopped on: Tuesday, 28 April 2020 04:08PM
    Psi4 wall time for execution: 0:04:42.30

*** Psi4 exiting successfully. Buy a developer a beer!
