                               Psi4 1.3.2 release

  ==> Input File <==

--------------------------------------------------------------------------
import numpy as np
set {scf_type pk
basis cc-pvdz
d_convergence 10
gdma_switch   0
gdma_limit    0
gdma_origin   [ 0.0,  0.0,  0.0 ]
}
molecule test {
    units Angstrom
    0 1
    --
    0 1
    C               -0.922446882272977     2.253835240957432    -2.995054876104167
    C                0.212553117727023     2.253835240957432    -1.976054876104167
    O               -0.056446882272977     2.079835240957431    -0.764054876104167
    O                1.381553117727023     2.404835240957431    -2.395054876104167
    H               -1.176446882272977     1.219835240957431    -3.237054876104167
    H               -0.590446882272977     2.726835240957432    -3.919054876104167
    H               -1.830286882272977     2.756745240957431    -2.630474876104167
    C               -1.141446882272977    -2.362164759042568     3.227945123895833
    C                0.127553117727023    -1.662164759042568     1.222945123895833
    N               -0.583446882272977    -0.553164759042568     1.125945123895833
    N               -0.110446882272977    -2.530164759042568     2.193945123895833
    N                1.087553117727023    -1.899164759042569     0.350945123895833
    H               -1.266446882272977    -0.340164759042568     1.831945123895833
    H               -0.350446882272977     0.154835240957432     0.437945123895833
    H                0.498553117727023    -3.333164759042569     2.262945123895833
    H                1.675553117727023    -2.712164759042568     0.447945123895833
    H                1.293553117727023    -1.222164759042568    -0.367054876104167
    H               -1.987446882272977    -1.784164759042568     2.850945123895833
    H               -0.713446882272977    -1.833164759042569     4.082945123895834
    H               -1.527886882272977    -3.334774759042568     3.566625123895833

}
e, wfn = energy('scf', return_wfn=True)
gdma(wfn)
dmavals = variable('DMA DISTRIBUTED MULTIPOLES')
charges = np.array(dmavals)
print(charges)
np.save('SSI-036GLU-056ARG-1-dimer.npy', np.array(charges))--------------------------------------------------------------------------

*** tstart() called on ds3
*** at Mon Apr 27 05:45:46 2020

   => Loading Basis Set <=

    Name: CC-PVDZ
    Role: ORBITAL
    Keyword: BASIS
    atoms 1-2, 8-9   entry C          line   138 file /theoryfs2/ds/metcalf/miniconda2/envs/tf2gpu/share/psi4/basis/cc-pvdz.gbs
    atoms 3-4        entry O          line   198 file /theoryfs2/ds/metcalf/miniconda2/envs/tf2gpu/share/psi4/basis/cc-pvdz.gbs
    atoms 5-7, 13-20 entry H          line    22 file /theoryfs2/ds/metcalf/miniconda2/envs/tf2gpu/share/psi4/basis/cc-pvdz.gbs
    atoms 10-12      entry N          line   168 file /theoryfs2/ds/metcalf/miniconda2/envs/tf2gpu/share/psi4/basis/cc-pvdz.gbs

         ---------------------------------------------------------
                                   SCF
               by Justin Turney, Rob Parrish, Andy Simmonett
                          and Daniel G. A. Smith
                              RHF Reference
                        1 Threads,    500 MiB Core
         ---------------------------------------------------------

  ==> Geometry <==

    Molecular point group: c1
    Full point group: C1

    Geometry (in Angstrom), charge = 0, multiplicity = 1:

       Center              X                  Y                   Z               Mass
    ------------   -----------------  -----------------  -----------------  -----------------
         C           -0.922446882273     2.253835240957    -2.995054876104    12.000000000000
         C            0.212553117727     2.253835240957    -1.976054876104    12.000000000000
         O           -0.056446882273     2.079835240957    -0.764054876104    15.994914619570
         O            1.381553117727     2.404835240957    -2.395054876104    15.994914619570
         H           -1.176446882273     1.219835240957    -3.237054876104     1.007825032230
         H           -0.590446882273     2.726835240957    -3.919054876104     1.007825032230
         H           -1.830286882273     2.756745240957    -2.630474876104     1.007825032230
         C           -1.141446882273    -2.362164759043     3.227945123896    12.000000000000
         C            0.127553117727    -1.662164759043     1.222945123896    12.000000000000
         N           -0.583446882273    -0.553164759043     1.125945123896    14.003074004430
         N           -0.110446882273    -2.530164759043     2.193945123896    14.003074004430
         N            1.087553117727    -1.899164759043     0.350945123896    14.003074004430
         H           -1.266446882273    -0.340164759043     1.831945123896     1.007825032230
         H           -0.350446882273     0.154835240957     0.437945123896     1.007825032230
         H            0.498553117727    -3.333164759043     2.262945123896     1.007825032230
         H            1.675553117727    -2.712164759043     0.447945123896     1.007825032230
         H            1.293553117727    -1.222164759043    -0.367054876104     1.007825032230
         H           -1.987446882273    -1.784164759043     2.850945123896     1.007825032230
         H           -0.713446882273    -1.833164759043     4.082945123896     1.007825032230
         H           -1.527886882273    -3.334774759043     3.566625123896     1.007825032230

  Running in c1 symmetry.

  Rotational constants: A =      0.11590  B =      0.01482  C =      0.01396 [cm^-1]
  Rotational constants: A =   3474.72722  B =    444.35439  C =    418.38203 [MHz]
  Nuclear repulsion =  431.461319751176063

  Charge       = 0
  Multiplicity = 1
  Electrons    = 72
  Nalpha       = 36
  Nbeta        = 36

  ==> Algorithm <==

  SCF Algorithm Type is PK.
  DIIS enabled.
  MOM disabled.
  Fractional occupation disabled.
  Guess Type is SAD.
  Energy threshold   = 1.00e-06
  Density threshold  = 1.00e-10
  Integral threshold = 0.00e+00

  ==> Primary Basis <==

  Basis Set: CC-PVDZ
    Blend: CC-PVDZ
    Number of shells: 87
    Number of basis function: 181
    Number of Cartesian functions: 190
    Spherical Harmonics?: true
    Max angular momentum: 2

  ==> Pre-Iterations <==

   -------------------------------------------------------
    Irrep   Nso     Nmo     Nalpha   Nbeta   Ndocc  Nsocc
   -------------------------------------------------------
     A        181     181       0       0       0       0
   -------------------------------------------------------
    Total     181     181      36      36      36       0
   -------------------------------------------------------

  ==> Integral Setup <==

  Using integral reordering PK algorithm.
  Sizing the integral batches needed.
  Building batch lookup table.
   Calculation information:
      Number of atoms:                  20
      Number of AO shells:              87
      Number of primitives:            253
      Number of atomic orbitals:       190
      Number of basis functions:       181

      Integral cutoff                 1.00e-12
      Number of threads:                 1

	Batch   1 pq = [       0,    9405] index = [             0,44231715] size =     44231715
	Batch   2 pq = [    9405,   13301] index = [      44231715,88464951] size =     44233236
	Batch   3 pq = [   13301,   16471] index = [      88464951,135655156] size =     47190205
  Task number: 13
  Buffer size: 11059200
  Buffer per thread: 2
  We computed 4798144 shell quartets total.
  Whereas there are 7328706 unique shell quartets.

  ==> DiskJK: Disk-Based J/K Matrices <==

    J tasked:                  Yes
    K tasked:                  Yes
    wK tasked:                  No
    Memory [MiB]:              375
    Schwarz Cutoff:          1E-12

    OpenMP threads:              1

  Minimum eigenvalue in the overlap matrix is 3.9164616479E-03.
  Using Symmetric Orthogonalization.

  SCF Guess: Superposition of Atomic Densities via on-the-fly atomic UHF.

  ==> Iterations <==

                        Total Energy        Delta E     RMS |[F,P]|

   @RHF iter SAD:  -469.60671037393399   -4.69607e+02   0.00000e+00
   @RHF iter   1:  -470.65395163382573   -1.04724e+00   4.32046e-03 DIIS
   @RHF iter   2:  -470.88574027582604   -2.31789e-01   2.30499e-03 DIIS
   @RHF iter   3:  -470.94835972618063   -6.26195e-02   3.96897e-04 DIIS
   @RHF iter   4:  -470.95171895167994   -3.35923e-03   1.41288e-04 DIIS
   @RHF iter   5:  -470.95213131602310   -4.12364e-04   2.66608e-05 DIIS
   @RHF iter   6:  -470.95215364993879   -2.23339e-05   1.29626e-05 DIIS
   @RHF iter   7:  -470.95215702334843   -3.37341e-06   3.49229e-06 DIIS
   @RHF iter   8:  -470.95215756870965   -5.45361e-07   1.61533e-06 DIIS
   @RHF iter   9:  -470.95215765391191   -8.52023e-08   5.63830e-07 DIIS
   @RHF iter  10:  -470.95215767126535   -1.73534e-08   1.99666e-07 DIIS
   @RHF iter  11:  -470.95215767324436   -1.97900e-09   5.15284e-08 DIIS
   @RHF iter  12:  -470.95215767334724   -1.02887e-10   1.89718e-08 DIIS
   @RHF iter  13:  -470.95215767336231   -1.50635e-11   5.15543e-09 DIIS
   @RHF iter  14:  -470.95215767336163    6.82121e-13   1.63665e-09 DIIS
   @RHF iter  15:  -470.95215767336111    5.11591e-13   7.05395e-10 DIIS
   @RHF iter  16:  -470.95215767335918    1.93268e-12   2.74649e-10 DIIS
   @RHF iter  17:  -470.95215767336305   -3.86535e-12   1.06460e-10 DIIS
   @RHF iter  18:  -470.95215767335867    4.37694e-12   4.23416e-11 DIIS
  Energy and wave function converged.

  ==> Post-Iterations <==

    Orbital Energies [Eh]
    ---------------------

    Doubly Occupied:

       1A    -20.380848     2A    -20.367346     3A    -15.685227
       4A    -15.672767     5A    -15.655210     6A    -11.474587
       7A    -11.355335     8A    -11.227800     9A    -11.147103
      10A     -1.432125    11A     -1.294820    12A     -1.268411
      13A     -1.262001    14A     -1.148135    15A     -1.045970
      16A     -0.924044    17A     -0.894290    18A     -0.865404
      19A     -0.825961    20A     -0.743306    21A     -0.729146
      22A     -0.720809    23A     -0.696228    24A     -0.643299
      25A     -0.634920    26A     -0.608389    27A     -0.516945
      28A     -0.509728    29A     -0.506998    30A     -0.493499
      31A     -0.482864    32A     -0.448179    33A     -0.413239
      34A     -0.298050    35A     -0.282635    36A     -0.275845

    Virtual:

      37A      0.094385    38A      0.124806    39A      0.139035
      40A      0.149252    41A      0.189051    42A      0.195285
      43A      0.201294    44A      0.230474    45A      0.255851
      46A      0.276829    47A      0.296974    48A      0.323303
      49A      0.332326    50A      0.379761    51A      0.388448
      52A      0.441798    53A      0.454648    54A      0.478739
      55A      0.524193    56A      0.561480    57A      0.588131
      58A      0.611015    59A      0.615708    60A      0.639442
      61A      0.655997    62A      0.666475    63A      0.671438
      64A      0.677077    65A      0.723676    66A      0.770635
      67A      0.777800    68A      0.782845    69A      0.799696
      70A      0.808127    71A      0.829439    72A      0.843508
      73A      0.863627    74A      0.876630    75A      0.918439
      76A      0.921319    77A      0.927281    78A      0.935809
      79A      0.941970    80A      0.950527    81A      0.978973
      82A      0.995917    83A      1.005850    84A      1.019488
      85A      1.029671    86A      1.080508    87A      1.106451
      88A      1.113679    89A      1.165117    90A      1.214945
      91A      1.240023    92A      1.242232    93A      1.247767
      94A      1.256338    95A      1.279742    96A      1.317504
      97A      1.329405    98A      1.356610    99A      1.409825
     100A      1.456360   101A      1.462646   102A      1.471497
     103A      1.479907   104A      1.487947   105A      1.545338
     106A      1.567094   107A      1.591830   108A      1.600054
     109A      1.634434   110A      1.638336   111A      1.643272
     112A      1.681156   113A      1.731551   114A      1.740410
     115A      1.750844   116A      1.772981   117A      1.808050
     118A      1.827795   119A      1.837899   120A      1.853391
     121A      1.868913   122A      1.871321   123A      1.918511
     124A      1.957695   125A      1.959583   126A      1.970773
     127A      1.983400   128A      1.990621   129A      2.013737
     130A      2.036981   131A      2.090007   132A      2.107944
     133A      2.123652   134A      2.142114   135A      2.165428
     136A      2.232623   137A      2.239919   138A      2.244621
     139A      2.255551   140A      2.310669   141A      2.332337
     142A      2.338825   143A      2.382905   144A      2.410570
     145A      2.425885   146A      2.444417   147A      2.462211
     148A      2.504099   149A      2.533492   150A      2.575095
     151A      2.590835   152A      2.612572   153A      2.654718
     154A      2.665784   155A      2.673740   156A      2.700058
     157A      2.712908   158A      2.817331   159A      2.831624
     160A      2.860481   161A      2.867371   162A      2.889409
     163A      2.898590   164A      2.930324   165A      2.958899
     166A      2.996220   167A      3.126013   168A      3.159356
     169A      3.167967   170A      3.179966   171A      3.205915
     172A      3.241711   173A      3.254655   174A      3.521613
     175A      3.668890   176A      3.682215   177A      3.717631
     178A      3.768135   179A      3.952489   180A      3.978211
     181A      4.078864

    Final Occupation by Irrep:
              A
    DOCC [    36 ]

  @RHF Final Energy:  -470.95215767335867

   => Energetics <=

    Nuclear Repulsion Energy =            431.4613197511760632
    One-Electron Energy =               -1498.9640356628742666
    Two-Electron Energy =                 596.5505582383395904
    Total Energy =                       -470.9521576733586699

Computation Completed

Properties will be evaluated at   0.000000,   0.000000,   0.000000 [a0]

Properties computed using the SCF density matrix

  Nuclear Dipole Moment: [e a0]
     X:    -5.5963      Y:    -7.1839      Z:     4.9687

  Electronic Dipole Moment: [e a0]
     X:     4.4362      Y:     0.5594      Z:    -0.1710

  Dipole Moment: [e a0]
     X:    -1.1601      Y:    -6.6245      Z:     4.7977     Total:     8.2612

  Dipole Moment: [D]
     X:    -2.9487      Y:   -16.8378      Z:    12.1945     Total:    20.9979

*** tstop() called on ds3 at Mon Apr 27 05:46:39 2020
Module time:
	user time   =      33.71 seconds =       0.56 minutes
	system time =      20.21 seconds =       0.34 minutes
	total time  =         53 seconds =       0.88 minutes
Total time:
	user time   =      33.71 seconds =       0.56 minutes
	system time =      20.21 seconds =       0.34 minutes
	total time  =         53 seconds =       0.88 minutes
                                     G D M A

                                 by Anthony Stone

                           version 2.2.06, 22 June 2011

               Distributed Multipoles from Gaussian wavefunctions

Starting at 5:46:39 on 27 Apr 2020

Using SCF density matrix from file ./SSI/SSI-036GLU-056ARG-1-dimer.test.30790.fchk

                         Distributed Multipole Analysis

Standard DMA

Positions and radii in angstrom
Multipole moments in atomic units, ea_0^k for rank k

C          x = -0.922447  y =  2.253835  z = -2.995055 angstrom
           Maximum rank =  0   Radius =  0.650 angstrom
                   Q00  =  -0.282184

C          x =  0.212553  y =  2.253835  z = -1.976055 angstrom
           Maximum rank =  0   Radius =  0.650 angstrom
                   Q00  =   0.946824

O          x = -0.056447  y =  2.079835  z = -0.764055 angstrom
           Maximum rank =  0   Radius =  0.650 angstrom
                   Q00  =  -0.966423

O          x =  1.381553  y =  2.404835  z = -2.395055 angstrom
           Maximum rank =  0   Radius =  0.650 angstrom
                   Q00  =  -0.896171

H          x = -1.176447  y =  1.219835  z = -3.237055 angstrom
           Maximum rank =  0   Radius =  0.325 angstrom
                   Q00  =   0.072624

H          x = -0.590447  y =  2.726835  z = -3.919055 angstrom
           Maximum rank =  0   Radius =  0.325 angstrom
                   Q00  =   0.081559

H          x = -1.830287  y =  2.756745  z = -2.630475 angstrom
           Maximum rank =  0   Radius =  0.325 angstrom
                   Q00  =   0.069209

C          x = -1.141447  y = -2.362165  z =  3.227945 angstrom
           Maximum rank =  0   Radius =  0.650 angstrom
                   Q00  =  -0.116484

C          x =  0.127553  y = -1.662165  z =  1.222945 angstrom
           Maximum rank =  0   Radius =  0.650 angstrom
                   Q00  =   1.077743

N          x = -0.583447  y = -0.553165  z =  1.125945 angstrom
           Maximum rank =  0   Radius =  0.650 angstrom
                   Q00  =  -0.559006

N          x = -0.110447  y = -2.530165  z =  2.193945 angstrom
           Maximum rank =  0   Radius =  0.650 angstrom
                   Q00  =  -0.499377

N          x =  1.087553  y = -1.899165  z =  0.350945 angstrom
           Maximum rank =  0   Radius =  0.650 angstrom
                   Q00  =  -0.593032

H          x = -1.266447  y = -0.340165  z =  1.831945 angstrom
           Maximum rank =  0   Radius =  0.325 angstrom
                   Q00  =   0.250051

H          x = -0.350447  y =  0.154835  z =  0.437945 angstrom
           Maximum rank =  0   Radius =  0.325 angstrom
                   Q00  =   0.287670

H          x =  0.498553  y = -3.333165  z =  2.262945 angstrom
           Maximum rank =  0   Radius =  0.325 angstrom
                   Q00  =   0.217513

H          x =  1.675553  y = -2.712165  z =  0.447945 angstrom
           Maximum rank =  0   Radius =  0.325 angstrom
                   Q00  =   0.244376

H          x =  1.293553  y = -1.222165  z = -0.367055 angstrom
           Maximum rank =  0   Radius =  0.325 angstrom
                   Q00  =   0.289460

H          x = -1.987447  y = -1.784165  z =  2.850945 angstrom
           Maximum rank =  0   Radius =  0.325 angstrom
                   Q00  =   0.115015

H          x = -0.713447  y = -1.833165  z =  4.082945 angstrom
           Maximum rank =  0   Radius =  0.325 angstrom
                   Q00  =   0.118088

H          x = -1.527887  y = -3.334775  z =  3.566625 angstrom
           Maximum rank =  0   Radius =  0.325 angstrom
                   Q00  =   0.142546

Total multipoles referred to origin at
           x =   0.000000,  y =    0.000000,  z =    0.000000 angstrom
                   Q00  =  -0.000000

Finished at 5:46:39 on 27 Apr 2020

  DMA results are available in the Python driver through the
	  variable('DMA DISTRIBUTED MULTIPOLES')
  and
	  variable('DMA TOTAL MULTIPOLES')
  commands.

    Psi4 stopped on: Monday, 27 April 2020 05:46AM
    Psi4 wall time for execution: 0:00:52.63

*** Psi4 exiting successfully. Buy a developer a beer!
