                               Psi4 1.3.2 release

  ==> Input File <==

--------------------------------------------------------------------------
import numpy as np
set {scf_type pk
basis cc-pvdz
d_convergence 10
gdma_switch   0
gdma_limit    0
gdma_origin   [ 0.0,  0.0,  0.0 ]
}
molecule test {
    units Angstrom
    0 1
    --
    0 1
    C               -1.103484067704468     1.311432147596962     0.285647256571837
    C               -1.826484067704468     1.750432147596962     1.563647256571837
    H               -1.326484067704468     0.266432147596962     0.060647256571837
    H               -1.407484067704468     1.925432147596962    -0.560352743428163
    H               -0.026484067704468     1.440432147596962     0.388647256571837
    H               -1.488484067704468     2.754432147596962     1.819647256571837
    H               -1.592054067704468     1.076972147596962     2.401207256571837
    H               -2.910564067704468     1.754712147596962     1.377253256571837
    C                1.517515932295532    -0.868567852403038    -1.287352743428163
    C                1.412515932295532    -2.198567852403039    -0.558352743428163
    H                2.365515932295532    -0.882567852403038    -1.972352743428163
    H                0.603515932295532    -0.684567852403038    -1.850352743428163
    H                1.651515932295532    -0.062567852403038    -0.566352743428163
    H                0.534515932295532    -2.153567852403039     0.084647256571837
    H                2.318095932295532    -2.348657852403039     0.047775256571837
    H                1.277635932295532    -3.023717852403039    -1.273147743428163

}
e, wfn = energy('scf', return_wfn=True)
gdma(wfn)
dmavals = variable('DMA DISTRIBUTED MULTIPOLES')
charges = np.array(dmavals)
print(charges)
np.save('SSI-030ILE-034LEU-1-dimer.npy', np.array(charges))--------------------------------------------------------------------------

*** tstart() called on ds3
*** at Tue Apr 28 00:23:57 2020

   => Loading Basis Set <=

    Name: CC-PVDZ
    Role: ORBITAL
    Keyword: BASIS
    atoms 1-2, 9-10  entry C          line   138 file /theoryfs2/ds/metcalf/miniconda2/envs/tf2gpu/share/psi4/basis/cc-pvdz.gbs
    atoms 3-8, 11-16 entry H          line    22 file /theoryfs2/ds/metcalf/miniconda2/envs/tf2gpu/share/psi4/basis/cc-pvdz.gbs

         ---------------------------------------------------------
                                   SCF
               by Justin Turney, Rob Parrish, Andy Simmonett
                          and Daniel G. A. Smith
                              RHF Reference
                        1 Threads,    500 MiB Core
         ---------------------------------------------------------

  ==> Geometry <==

    Molecular point group: c1
    Full point group: C1

    Geometry (in Angstrom), charge = 0, multiplicity = 1:

       Center              X                  Y                   Z               Mass
    ------------   -----------------  -----------------  -----------------  -----------------
         C           -1.103484067704     1.311432147597     0.285647256572    12.000000000000
         C           -1.826484067704     1.750432147597     1.563647256572    12.000000000000
         H           -1.326484067704     0.266432147597     0.060647256572     1.007825032230
         H           -1.407484067704     1.925432147597    -0.560352743428     1.007825032230
         H           -0.026484067704     1.440432147597     0.388647256572     1.007825032230
         H           -1.488484067704     2.754432147597     1.819647256572     1.007825032230
         H           -1.592054067704     1.076972147597     2.401207256572     1.007825032230
         H           -2.910564067704     1.754712147597     1.377253256572     1.007825032230
         C            1.517515932296    -0.868567852403    -1.287352743428    12.000000000000
         C            1.412515932296    -2.198567852403    -0.558352743428    12.000000000000
         H            2.365515932296    -0.882567852403    -1.972352743428     1.007825032230
         H            0.603515932296    -0.684567852403    -1.850352743428     1.007825032230
         H            1.651515932296    -0.062567852403    -0.566352743428     1.007825032230
         H            0.534515932296    -2.153567852403     0.084647256572     1.007825032230
         H            2.318095932296    -2.348657852403     0.047775256572     1.007825032230
         H            1.277635932296    -3.023717852403    -1.273147743428     1.007825032230

  Running in c1 symmetry.

  Rotational constants: A =      0.48101  B =      0.04820  C =      0.04560 [cm^-1]
  Rotational constants: A =  14420.31161  B =   1445.09644  C =   1367.03396 [MHz]
  Nuclear repulsion =  121.924432352869616

  Charge       = 0
  Multiplicity = 1
  Electrons    = 36
  Nalpha       = 18
  Nbeta        = 18

  ==> Algorithm <==

  SCF Algorithm Type is PK.
  DIIS enabled.
  MOM disabled.
  Fractional occupation disabled.
  Guess Type is SAD.
  Energy threshold   = 1.00e-06
  Density threshold  = 1.00e-10
  Integral threshold = 0.00e+00

  ==> Primary Basis <==

  Basis Set: CC-PVDZ
    Blend: CC-PVDZ
    Number of shells: 60
    Number of basis function: 116
    Number of Cartesian functions: 120
    Spherical Harmonics?: true
    Max angular momentum: 2

  ==> Pre-Iterations <==

   -------------------------------------------------------
    Irrep   Nso     Nmo     Nalpha   Nbeta   Ndocc  Nsocc
   -------------------------------------------------------
     A        116     116       0       0       0       0
   -------------------------------------------------------
    Total     116     116      18      18      18       0
   -------------------------------------------------------

  ==> Integral Setup <==

  Using integral reordering PK algorithm.
  Sizing the integral batches needed.
  Building batch lookup table.
   Calculation information:
      Number of atoms:                  16
      Number of AO shells:              60
      Number of primitives:            148
      Number of atomic orbitals:       120
      Number of basis functions:       116

      Integral cutoff                 1.00e-12
      Number of threads:                 1

	Batch   1 pq = [       0,    6786] index = [             0,23028291] size =     23028291
  Task number: 3
  Buffer size: 11059200
  Buffer per thread: 2
  We computed 1416662 shell quartets total.
  Whereas there are 1675365 unique shell quartets.

  ==> DiskJK: Disk-Based J/K Matrices <==

    J tasked:                  Yes
    K tasked:                  Yes
    wK tasked:                  No
    Memory [MiB]:              375
    Schwarz Cutoff:          1E-12

    OpenMP threads:              1

  Minimum eigenvalue in the overlap matrix is 7.2878448254E-03.
  Using Symmetric Orthogonalization.

  SCF Guess: Superposition of Atomic Densities via on-the-fly atomic UHF.

  ==> Iterations <==

                        Total Energy        Delta E     RMS |[F,P]|

   @RHF iter SAD:  -157.35350501063024   -1.57354e+02   0.00000e+00
   @RHF iter   1:  -158.30684122860211   -9.53336e-01   4.22437e-03 DIIS
   @RHF iter   2:  -158.44080206607163   -1.33961e-01   1.80476e-03 DIIS
   @RHF iter   3:  -158.46441313351383   -2.36111e-02   3.50059e-04 DIIS
   @RHF iter   4:  -158.46624471535830   -1.83158e-03   3.85684e-05 DIIS
   @RHF iter   5:  -158.46626802265575   -2.33073e-05   6.43638e-06 DIIS
   @RHF iter   6:  -158.46626864277840   -6.20123e-07   9.43777e-07 DIIS
   @RHF iter   7:  -158.46626865200943   -9.23103e-09   2.95951e-07 DIIS
   @RHF iter   8:  -158.46626865273683   -7.27397e-10   3.56207e-08 DIIS
   @RHF iter   9:  -158.46626865275536   -1.85310e-11   6.26015e-09 DIIS
   @RHF iter  10:  -158.46626865275613   -7.67386e-13   1.75082e-09 DIIS
   @RHF iter  11:  -158.46626865275584    2.84217e-13   5.41964e-10 DIIS
   @RHF iter  12:  -158.46626865275553    3.12639e-13   1.23738e-10 DIIS
   @RHF iter  13:  -158.46626865275550    2.84217e-14   1.86696e-11 DIIS
  Energy and wave function converged.

  ==> Post-Iterations <==

    Orbital Energies [Eh]
    ---------------------

    Doubly Occupied:

       1A    -11.220303     2A    -11.218064     3A    -11.217094
       4A    -11.214461     5A     -1.020531     6A     -1.017028
       7A     -0.838701     8A     -0.832875     9A     -0.602204
      10A     -0.601048    11A     -0.597956    12A     -0.592882
      13A     -0.503378    14A     -0.497398    15A     -0.489729
      16A     -0.486129    17A     -0.484550    18A     -0.479176

    Virtual:

      19A      0.169947    20A      0.197943    21A      0.224153
      22A      0.231318    23A      0.242739    24A      0.256190
      25A      0.264582    26A      0.274556    27A      0.281578
      28A      0.286910    29A      0.319145    30A      0.358826
      31A      0.395357    32A      0.398634    33A      0.568545
      34A      0.587431    35A      0.597580    36A      0.604854
      37A      0.609107    38A      0.627951    39A      0.680721
      40A      0.682903    41A      0.686718    42A      0.775880
      43A      0.848262    44A      0.864220    45A      0.887650
      46A      0.890200    47A      0.892850    48A      0.898699
      49A      0.904256    50A      0.905370    51A      0.914258
      52A      0.915722    53A      0.932179    54A      0.960409
      55A      0.979635    56A      0.987393    57A      1.120170
      58A      1.128050    59A      1.130248    60A      1.148241
      61A      1.217789    62A      1.263511    63A      1.468890
      64A      1.477658    65A      1.480417    66A      1.495337
      67A      1.562662    68A      1.580441    69A      1.676928
      70A      1.679206    71A      1.691767    72A      1.706087
      73A      1.848755    74A      1.859251    75A      1.862460
      76A      1.878749    77A      1.902998    78A      1.913064
      79A      1.938830    80A      1.940723    81A      1.942733
      82A      1.945373    83A      1.950215    84A      1.958201
      85A      1.966061    86A      1.967025    87A      1.981664
      88A      2.034214    89A      2.098542    90A      2.107957
      91A      2.116377    92A      2.122071    93A      2.285510
      94A      2.297216    95A      2.318973    96A      2.324935
      97A      2.449332    98A      2.451250    99A      2.464521
     100A      2.473998   101A      2.558366   102A      2.566789
     103A      2.571871   104A      2.581147   105A      2.759023
     106A      2.764298   107A      2.785903   108A      2.799140
     109A      2.843708   110A      2.848309   111A      2.852319
     112A      2.857266   113A      2.943150   114A      2.955915
     115A      2.963320   116A      2.972337

    Final Occupation by Irrep:
              A
    DOCC [    18 ]

  @RHF Final Energy:  -158.46626865275550

   => Energetics <=

    Nuclear Repulsion Energy =            121.9244323528696157
    One-Electron Energy =                -452.9543878092349587
    Two-Electron Energy =                 172.5636868036098122
    Total Energy =                       -158.4662686527555024

Computation Completed

Properties will be evaluated at   0.000000,   0.000000,   0.000000 [a0]

Properties computed using the SCF density matrix

  Nuclear Dipole Moment: [e a0]
     X:    -0.0007      Y:     0.0588      Z:    -0.0401

  Electronic Dipole Moment: [e a0]
     X:    -0.0023      Y:    -0.0353      Z:     0.0332

  Dipole Moment: [e a0]
     X:    -0.0030      Y:     0.0235      Z:    -0.0069     Total:     0.0247

  Dipole Moment: [D]
     X:    -0.0076      Y:     0.0598      Z:    -0.0176     Total:     0.0628

*** tstop() called on ds3 at Tue Apr 28 00:24:11 2020
Module time:
	user time   =       7.73 seconds =       0.13 minutes
	system time =       2.78 seconds =       0.05 minutes
	total time  =         14 seconds =       0.23 minutes
Total time:
	user time   =       7.73 seconds =       0.13 minutes
	system time =       2.78 seconds =       0.05 minutes
	total time  =         14 seconds =       0.23 minutes
                                     G D M A

                                 by Anthony Stone

                           version 2.2.06, 22 June 2011

               Distributed Multipoles from Gaussian wavefunctions

Starting at 0:24:11 on 28 Apr 2020

Using SCF density matrix from file ./SSI/SSI-030ILE-034LEU-1-dimer.test.5241.fchk

                         Distributed Multipole Analysis

Standard DMA

Positions and radii in angstrom
Multipole moments in atomic units, ea_0^k for rank k

C          x = -1.103484  y =  1.311432  z =  0.285647 angstrom
           Maximum rank =  0   Radius =  0.650 angstrom
                   Q00  =  -0.241357

C          x = -1.826484  y =  1.750432  z =  1.563647 angstrom
           Maximum rank =  0   Radius =  0.650 angstrom
                   Q00  =  -0.235100

H          x = -1.326484  y =  0.266432  z =  0.060647 angstrom
           Maximum rank =  0   Radius =  0.325 angstrom
                   Q00  =   0.078414

H          x = -1.407484  y =  1.925432  z = -0.560353 angstrom
           Maximum rank =  0   Radius =  0.325 angstrom
                   Q00  =   0.080119

H          x = -0.026484  y =  1.440432  z =  0.388647 angstrom
           Maximum rank =  0   Radius =  0.325 angstrom
                   Q00  =   0.078534

H          x = -1.488484  y =  2.754432  z =  1.819647 angstrom
           Maximum rank =  0   Radius =  0.325 angstrom
                   Q00  =   0.079682

H          x = -1.592054  y =  1.076972  z =  2.401207 angstrom
           Maximum rank =  0   Radius =  0.325 angstrom
                   Q00  =   0.080345

H          x = -2.910564  y =  1.754712  z =  1.377253 angstrom
           Maximum rank =  0   Radius =  0.325 angstrom
                   Q00  =   0.079254

C          x =  1.517516  y = -0.868568  z = -1.287353 angstrom
           Maximum rank =  0   Radius =  0.650 angstrom
                   Q00  =  -0.233137

C          x =  1.412516  y = -2.198568  z = -0.558353 angstrom
           Maximum rank =  0   Radius =  0.650 angstrom
                   Q00  =  -0.232627

H          x =  2.365516  y = -0.882568  z = -1.972353 angstrom
           Maximum rank =  0   Radius =  0.325 angstrom
                   Q00  =   0.076345

H          x =  0.603516  y = -0.684568  z = -1.850353 angstrom
           Maximum rank =  0   Radius =  0.325 angstrom
                   Q00  =   0.078286

H          x =  1.651516  y = -0.062568  z = -0.566353 angstrom
           Maximum rank =  0   Radius =  0.325 angstrom
                   Q00  =   0.078988

H          x =  0.534516  y = -2.153568  z =  0.084647 angstrom
           Maximum rank =  0   Radius =  0.325 angstrom
                   Q00  =   0.076210

H          x =  2.318096  y = -2.348658  z =  0.047775 angstrom
           Maximum rank =  0   Radius =  0.325 angstrom
                   Q00  =   0.077532

H          x =  1.277636  y = -3.023718  z = -1.273148 angstrom
           Maximum rank =  0   Radius =  0.325 angstrom
                   Q00  =   0.078511

Total multipoles referred to origin at
           x =   0.000000,  y =    0.000000,  z =    0.000000 angstrom
                   Q00  =  -0.000000

Finished at 0:24:11 on 28 Apr 2020

  DMA results are available in the Python driver through the
	  variable('DMA DISTRIBUTED MULTIPOLES')
  and
	  variable('DMA TOTAL MULTIPOLES')
  commands.

    Psi4 stopped on: Tuesday, 28 April 2020 12:24AM
    Psi4 wall time for execution: 0:00:14.99

*** Psi4 exiting successfully. Buy a developer a beer!
