                               Psi4 1.3.2 release

  ==> Input File <==

--------------------------------------------------------------------------
import numpy as np
set {scf_type pk
basis cc-pvdz
d_convergence 10
gdma_switch   0
gdma_limit    0
gdma_origin   [ 0.0,  0.0,  0.0 ]
}
molecule test {
    units Angstrom
    0 1
    --
    0 1
    C                1.773104766979842     1.369731821534182    -3.633299287032175
    C                0.932104766979842     2.643731821534183    -3.518299287032174
    H                2.411104766979842     1.413731821534183    -4.518299287032174
    H                2.408104766979843     1.258731821534183    -2.754299287032175
    H                1.144104766979842     0.479731821534183    -3.687299287032174
    H                0.236104766979842     2.529731821534182    -2.686299287032175
    H                0.349634766979842     2.805569821534182    -4.437279287032175
    H                1.581914766979842     3.506563821534183    -3.310299287032174
    C               -1.027895233020158    -1.666268178465818     3.307700712967825
    C                0.000104766979842     0.111731821534183    -0.457299287032175
    C               -1.314895233020158     0.123731821534183    -0.016299287032175
    C                0.984104766979842    -0.477268178465817     0.322700712967825
    C               -1.643895233020158    -0.452268178465817     1.202700712967825
    C                0.651104766979842    -1.053268178465817     1.541700712967826
    C               -0.663895233020158    -1.045268178465818     1.988700712967826
    H                0.254104766979842     0.555731821534183    -1.406299287032175
    H               -2.085895233020158     0.583731821534183    -0.616299287032175
    H                2.010104766979842    -0.493268178465817    -0.020299287032175
    H               -2.670895233020158    -0.435268178465817     1.542700712967825
    H                1.424104766979842    -1.514268178465817     2.141700712967825
    H               -1.743895233020158    -1.006268178465817     3.797700712967825
    H               -0.146895233020158    -1.716268178465817     3.949700712967825
    H               -1.479905233020158    -2.664720178465818     3.213982712967826

}
e, wfn = energy('scf', return_wfn=True)
gdma(wfn)
dmavals = variable('DMA DISTRIBUTED MULTIPOLES')
charges = np.array(dmavals)
print(charges)
np.save('SSI-182ILE-239PHE-1-dimer.npy', np.array(charges))--------------------------------------------------------------------------

*** tstart() called on ds3
*** at Mon Apr 27 23:30:26 2020

   => Loading Basis Set <=

    Name: CC-PVDZ
    Role: ORBITAL
    Keyword: BASIS
    atoms 1-2, 9-15  entry C          line   138 file /theoryfs2/ds/metcalf/miniconda2/envs/tf2gpu/share/psi4/basis/cc-pvdz.gbs
    atoms 3-8, 16-23 entry H          line    22 file /theoryfs2/ds/metcalf/miniconda2/envs/tf2gpu/share/psi4/basis/cc-pvdz.gbs

         ---------------------------------------------------------
                                   SCF
               by Justin Turney, Rob Parrish, Andy Simmonett
                          and Daniel G. A. Smith
                              RHF Reference
                        1 Threads,    500 MiB Core
         ---------------------------------------------------------

  ==> Geometry <==

    Molecular point group: c1
    Full point group: C1

    Geometry (in Angstrom), charge = 0, multiplicity = 1:

       Center              X                  Y                   Z               Mass
    ------------   -----------------  -----------------  -----------------  -----------------
         C            1.773104766980     1.369731821534    -3.633299287032    12.000000000000
         C            0.932104766980     2.643731821534    -3.518299287032    12.000000000000
         H            2.411104766980     1.413731821534    -4.518299287032     1.007825032230
         H            2.408104766980     1.258731821534    -2.754299287032     1.007825032230
         H            1.144104766980     0.479731821534    -3.687299287032     1.007825032230
         H            0.236104766980     2.529731821534    -2.686299287032     1.007825032230
         H            0.349634766980     2.805569821534    -4.437279287032     1.007825032230
         H            1.581914766980     3.506563821534    -3.310299287032     1.007825032230
         C           -1.027895233020    -1.666268178466     3.307700712968    12.000000000000
         C            0.000104766980     0.111731821534    -0.457299287032    12.000000000000
         C           -1.314895233020     0.123731821534    -0.016299287032    12.000000000000
         C            0.984104766980    -0.477268178466     0.322700712968    12.000000000000
         C           -1.643895233020    -0.452268178466     1.202700712968    12.000000000000
         C            0.651104766980    -1.053268178466     1.541700712968    12.000000000000
         C           -0.663895233020    -1.045268178466     1.988700712968    12.000000000000
         H            0.254104766980     0.555731821534    -1.406299287032     1.007825032230
         H           -2.085895233020     0.583731821534    -0.616299287032     1.007825032230
         H            2.010104766980    -0.493268178466    -0.020299287032     1.007825032230
         H           -2.670895233020    -0.435268178466     1.542700712968     1.007825032230
         H            1.424104766980    -1.514268178466     2.141700712968     1.007825032230
         H           -1.743895233020    -1.006268178466     3.797700712968     1.007825032230
         H           -0.146895233020    -1.716268178466     3.949700712968     1.007825032230
         H           -1.479905233020    -2.664720178466     3.213982712968     1.007825032230

  Running in c1 symmetry.

  Rotational constants: A =      0.14441  B =      0.01768  C =      0.01615 [cm^-1]
  Rotational constants: A =   4329.32782  B =    529.97179  C =    484.15434 [MHz]
  Nuclear repulsion =  398.663356683213181

  Charge       = 0
  Multiplicity = 1
  Electrons    = 68
  Nalpha       = 34
  Nbeta        = 34

  ==> Algorithm <==

  SCF Algorithm Type is PK.
  DIIS enabled.
  MOM disabled.
  Fractional occupation disabled.
  Guess Type is SAD.
  Energy threshold   = 1.00e-06
  Density threshold  = 1.00e-10
  Integral threshold = 0.00e+00

  ==> Primary Basis <==

  Basis Set: CC-PVDZ
    Blend: CC-PVDZ
    Number of shells: 96
    Number of basis function: 196
    Number of Cartesian functions: 205
    Spherical Harmonics?: true
    Max angular momentum: 2

  ==> Pre-Iterations <==

   -------------------------------------------------------
    Irrep   Nso     Nmo     Nalpha   Nbeta   Ndocc  Nsocc
   -------------------------------------------------------
     A        196     196       0       0       0       0
   -------------------------------------------------------
    Total     196     196      34      34      34       0
   -------------------------------------------------------

  ==> Integral Setup <==

  Using integral reordering PK algorithm.
  Sizing the integral batches needed.
  Building batch lookup table.
   Calculation information:
      Number of atoms:                  23
      Number of AO shells:              96
      Number of primitives:            268
      Number of atomic orbitals:       205
      Number of basis functions:       196

      Integral cutoff                 1.00e-12
      Number of threads:                 1

	Batch   1 pq = [       0,    9405] index = [             0,44231715] size =     44231715
	Batch   2 pq = [    9405,   13301] index = [      44231715,88464951] size =     44233236
	Batch   3 pq = [   13301,   16290] index = [      88464951,132690195] size =     44225244
	Batch   4 pq = [   16290,   18810] index = [     132690195,176917455] size =     44227260
	Batch   5 pq = [   18810,   19306] index = [     176917455,186370471] size =      9453016
  Task number: 17
  Buffer size: 11059200
  Buffer per thread: 2
  We computed 8282740 shell quartets total.
  Whereas there are 10841496 unique shell quartets.

  ==> DiskJK: Disk-Based J/K Matrices <==

    J tasked:                  Yes
    K tasked:                  Yes
    wK tasked:                  No
    Memory [MiB]:              375
    Schwarz Cutoff:          1E-12

    OpenMP threads:              1

  Minimum eigenvalue in the overlap matrix is 2.8896963246E-04.
  Using Symmetric Orthogonalization.

  SCF Guess: Superposition of Atomic Densities via on-the-fly atomic UHF.

  ==> Iterations <==

                        Total Energy        Delta E     RMS |[F,P]|

   @RHF iter SAD:  -347.92570814386590   -3.47926e+02   0.00000e+00
   @RHF iter   1:  -348.76710342644304   -8.41395e-01   2.90014e-03 DIIS
   @RHF iter   2:  -348.96063774449442   -1.93534e-01   1.20229e-03 DIIS
   @RHF iter   3:  -348.99088764347817   -3.02499e-02   2.59590e-04 DIIS
   @RHF iter   4:  -348.99337335851550   -2.48572e-03   5.52537e-05 DIIS
   @RHF iter   5:  -348.99345145132708   -7.80928e-05   1.86251e-05 DIIS
   @RHF iter   6:  -348.99345985219276   -8.40087e-06   4.91276e-06 DIIS
   @RHF iter   7:  -348.99346053443281   -6.82240e-07   1.20630e-06 DIIS
   @RHF iter   8:  -348.99346058227468   -4.78419e-08   2.91826e-07 DIIS
   @RHF iter   9:  -348.99346058755600   -5.28132e-09   1.23257e-07 DIIS
   @RHF iter  10:  -348.99346058868753   -1.13153e-09   5.68653e-08 DIIS
   @RHF iter  11:  -348.99346058909896   -4.11433e-10   2.10405e-08 DIIS
   @RHF iter  12:  -348.99346058915216   -5.32054e-11   8.72095e-09 DIIS
   @RHF iter  13:  -348.99346058916325   -1.10845e-11   3.41724e-09 DIIS
   @RHF iter  14:  -348.99346058916308    1.70530e-13   8.73083e-10 DIIS
   @RHF iter  15:  -348.99346058916137    1.70530e-12   3.94692e-10 DIIS
   @RHF iter  16:  -348.99346058916166   -2.84217e-13   1.52384e-10 DIIS
   @RHF iter  17:  -348.99346058916211   -4.54747e-13   6.24426e-11 DIIS
  Energy and wave function converged.

  ==> Post-Iterations <==

    Orbital Energies [Eh]
    ---------------------

    Doubly Occupied:

       1A    -11.238220     2A    -11.233537     3A    -11.233388
       4A    -11.228596     5A    -11.228422     6A    -11.228349
       7A    -11.228100     8A    -11.221958     9A    -11.219843
      10A     -1.154701    11A     -1.045177    12A     -1.019865
      13A     -1.012323    14A     -0.931024    15A     -0.839869
      16A     -0.824801    17A     -0.795641    18A     -0.692077
      19A     -0.632004    20A     -0.628772    21A     -0.601644
      22A     -0.598710    23A     -0.582470    24A     -0.576833
      25A     -0.560109    26A     -0.534287    27A     -0.503616
      28A     -0.489308    29A     -0.487972    30A     -0.486682
      31A     -0.483915    32A     -0.480602    33A     -0.332511
      34A     -0.321996

    Virtual:

      35A      0.137127    36A      0.142400    37A      0.169956
      38A      0.192688    39A      0.205675    40A      0.214370
      41A      0.231820    42A      0.244768    43A      0.247849
      44A      0.266151    45A      0.267274    46A      0.274769
      47A      0.283454    48A      0.295828    49A      0.314542
      50A      0.351343    51A      0.370689    52A      0.383126
      53A      0.392130    54A      0.458586    55A      0.468323
      56A      0.481626    57A      0.496381    58A      0.563681
      59A      0.594863    60A      0.598709    61A      0.603971
      62A      0.631687    63A      0.639295    64A      0.685965
      65A      0.686986    66A      0.688788    67A      0.697800
      68A      0.713958    69A      0.736066    70A      0.742748
      71A      0.745642    72A      0.747652    73A      0.754135
      74A      0.777073    75A      0.785372    76A      0.789827
      77A      0.834526    78A      0.839695    79A      0.853750
      80A      0.861967    81A      0.878810    82A      0.887291
      83A      0.889676    84A      0.892467    85A      0.897429
      86A      0.901405    87A      0.907390    88A      0.927020
      89A      0.934185    90A      0.940630    91A      0.956378
      92A      0.967827    93A      0.976821    94A      1.016476
      95A      1.046670    96A      1.087471    97A      1.111422
      98A      1.130100    99A      1.143069   100A      1.156034
     101A      1.160856   102A      1.180479   103A      1.213550
     104A      1.232908   105A      1.246784   106A      1.251920
     107A      1.258742   108A      1.295649   109A      1.308134
     110A      1.319156   111A      1.325260   112A      1.347737
     113A      1.420806   114A      1.467080   115A      1.481902
     116A      1.510240   117A      1.532568   118A      1.563425
     119A      1.590742   120A      1.608459   121A      1.676818
     122A      1.681134   123A      1.697324   124A      1.699745
     125A      1.735445   126A      1.750663   127A      1.761129
     128A      1.792236   129A      1.814918   130A      1.859496
     131A      1.862905   132A      1.876865   133A      1.881888
     134A      1.897177   135A      1.900747   136A      1.907584
     137A      1.917145   138A      1.923466   139A      1.941423
     140A      1.943087   141A      1.947574   142A      1.952772
     143A      1.954028   144A      1.959431   145A      1.978606
     146A      1.989989   147A      2.003057   148A      2.017125
     149A      2.048099   150A      2.062417   151A      2.079457
     152A      2.105281   153A      2.112056   154A      2.114453
     155A      2.147428   156A      2.164810   157A      2.180582
     158A      2.184446   159A      2.198411   160A      2.252223
     161A      2.278090   162A      2.292540   163A      2.296476
     164A      2.303337   165A      2.323572   166A      2.333122
     167A      2.361990   168A      2.444685   169A      2.453274
     170A      2.470119   171A      2.474329   172A      2.509895
     173A      2.543652   174A      2.555831   175A      2.575950
     176A      2.628418   177A      2.743471   178A      2.758936
     179A      2.768459   180A      2.769924   181A      2.787834
     182A      2.805434   183A      2.810607   184A      2.847920
     185A      2.853337   186A      2.875590   187A      2.891161
     188A      2.943852   189A      2.969885   190A      2.996398
     191A      3.017902   192A      3.037850   193A      3.164680
     194A      3.225245   195A      3.308805   196A      3.987361

    Final Occupation by Irrep:
              A
    DOCC [    34 ]

  @RHF Final Energy:  -348.99346058916211

   => Energetics <=

    Nuclear Repulsion Energy =            398.6633566832131805
    One-Electron Energy =               -1259.9589948554876173
    Two-Electron Energy =                 512.3021775831124387
    Total Energy =                       -348.9934605891620549

Computation Completed

Properties will be evaluated at   0.000000,   0.000000,   0.000000 [a0]

Properties computed using the SCF density matrix

  Nuclear Dipole Moment: [e a0]
     X:     3.4609      Y:     4.9718      Z:    -8.2412

  Electronic Dipole Moment: [e a0]
     X:    -3.4882      Y:    -5.0159      Z:     8.3372

  Dipole Moment: [e a0]
     X:    -0.0273      Y:    -0.0441      Z:     0.0960     Total:     0.1091

  Dipole Moment: [D]
     X:    -0.0694      Y:    -0.1120      Z:     0.2439     Total:     0.2772

*** tstop() called on ds3 at Mon Apr 27 23:31:59 2020
Module time:
	user time   =      64.18 seconds =       1.07 minutes
	system time =      32.94 seconds =       0.55 minutes
	total time  =         93 seconds =       1.55 minutes
Total time:
	user time   =      64.18 seconds =       1.07 minutes
	system time =      32.94 seconds =       0.55 minutes
	total time  =         93 seconds =       1.55 minutes
                                     G D M A

                                 by Anthony Stone

                           version 2.2.06, 22 June 2011

               Distributed Multipoles from Gaussian wavefunctions

Starting at 23:31:59 on 27 Apr 2020

Using SCF density matrix from file ./SSI/SSI-182ILE-239PHE-1-dimer.test.3050.fchk

                         Distributed Multipole Analysis

Standard DMA

Positions and radii in angstrom
Multipole moments in atomic units, ea_0^k for rank k

C          x =  1.773105  y =  1.369732  z = -3.633299 angstrom
           Maximum rank =  0   Radius =  0.650 angstrom
                   Q00  =  -0.249474

C          x =  0.932105  y =  2.643732  z = -3.518299 angstrom
           Maximum rank =  0   Radius =  0.650 angstrom
                   Q00  =  -0.229572

H          x =  2.411105  y =  1.413732  z = -4.518299 angstrom
           Maximum rank =  0   Radius =  0.325 angstrom
                   Q00  =   0.083027

H          x =  2.408105  y =  1.258732  z = -2.754299 angstrom
           Maximum rank =  0   Radius =  0.325 angstrom
                   Q00  =   0.077199

H          x =  1.144105  y =  0.479732  z = -3.687299 angstrom
           Maximum rank =  0   Radius =  0.325 angstrom
                   Q00  =   0.078618

H          x =  0.236105  y =  2.529732  z = -2.686299 angstrom
           Maximum rank =  0   Radius =  0.325 angstrom
                   Q00  =   0.076467

H          x =  0.349635  y =  2.805570  z = -4.437279 angstrom
           Maximum rank =  0   Radius =  0.325 angstrom
                   Q00  =   0.080954

H          x =  1.581915  y =  3.506564  z = -3.310299 angstrom
           Maximum rank =  0   Radius =  0.325 angstrom
                   Q00  =   0.082861

C          x = -1.027895  y = -1.666268  z =  3.307701 angstrom
           Maximum rank =  0   Radius =  0.650 angstrom
                   Q00  =  -0.197885

C          x =  0.000105  y =  0.111732  z = -0.457299 angstrom
           Maximum rank =  0   Radius =  0.650 angstrom
                   Q00  =  -0.078671

C          x = -1.314895  y =  0.123732  z = -0.016299 angstrom
           Maximum rank =  0   Radius =  0.650 angstrom
                   Q00  =  -0.066414

C          x =  0.984105  y = -0.477268  z =  0.322701 angstrom
           Maximum rank =  0   Radius =  0.650 angstrom
                   Q00  =  -0.078160

C          x = -1.643895  y = -0.452268  z =  1.202701 angstrom
           Maximum rank =  0   Radius =  0.650 angstrom
                   Q00  =  -0.059350

C          x =  0.651105  y = -1.053268  z =  1.541701 angstrom
           Maximum rank =  0   Radius =  0.650 angstrom
                   Q00  =  -0.008793

C          x = -0.663895  y = -1.045268  z =  1.988701 angstrom
           Maximum rank =  0   Radius =  0.650 angstrom
                   Q00  =  -0.099204

H          x =  0.254105  y =  0.555732  z = -1.406299 angstrom
           Maximum rank =  0   Radius =  0.325 angstrom
                   Q00  =   0.057761

H          x = -2.085895  y =  0.583732  z = -0.616299 angstrom
           Maximum rank =  0   Radius =  0.325 angstrom
                   Q00  =   0.060082

H          x =  2.010105  y = -0.493268  z = -0.020299 angstrom
           Maximum rank =  0   Radius =  0.325 angstrom
                   Q00  =   0.060883

H          x = -2.670895  y = -0.435268  z =  1.542701 angstrom
           Maximum rank =  0   Radius =  0.325 angstrom
                   Q00  =   0.054313

H          x =  1.424105  y = -1.514268  z =  2.141701 angstrom
           Maximum rank =  0   Radius =  0.325 angstrom
                   Q00  =   0.056028

H          x = -1.743895  y = -1.006268  z =  3.797701 angstrom
           Maximum rank =  0   Radius =  0.325 angstrom
                   Q00  =   0.096563

H          x = -0.146895  y = -1.716268  z =  3.949701 angstrom
           Maximum rank =  0   Radius =  0.325 angstrom
                   Q00  =   0.097783

H          x = -1.479905  y = -2.664720  z =  3.213983 angstrom
           Maximum rank =  0   Radius =  0.325 angstrom
                   Q00  =   0.104983

Total multipoles referred to origin at
           x =   0.000000,  y =    0.000000,  z =    0.000000 angstrom
                   Q00  =  -0.000000

Finished at 23:31:59 on 27 Apr 2020

  DMA results are available in the Python driver through the
	  variable('DMA DISTRIBUTED MULTIPOLES')
  and
	  variable('DMA TOTAL MULTIPOLES')
  commands.

    Psi4 stopped on: Monday, 27 April 2020 11:31PM
    Psi4 wall time for execution: 0:01:33.13

*** Psi4 exiting successfully. Buy a developer a beer!
