                               Psi4 1.3.2 release

  ==> Input File <==

--------------------------------------------------------------------------
import numpy as np
set {scf_type pk
basis cc-pvdz
d_convergence 10
gdma_switch   0
gdma_limit    0
gdma_origin   [ 0.0,  0.0,  0.0 ]
}
molecule test {
    units Angstrom
    0 1
    --
    0 1
    C                3.622744523503303     0.339829869882313    -0.321955507725637
    C                2.220744523503304     0.266829869882313     0.263044492274363
    O                1.340744523503303     1.030829869882313    -0.180955507725637
    O                2.006744523503303    -0.537170130117687     1.193044492274363
    H                4.069744523503304    -0.644170130117687    -0.275955507725637
    H                4.208744523503303     1.021829869882313     0.298044492274363
    H                3.634224523503303     0.692822869882313    -1.363715507725637
    C               -1.720255476496697     0.442829869882313    -2.056955507725637
    C               -1.853255476496697    -0.370170130117687     0.272044492274363
    N               -1.218255476496697     0.276829869882313    -0.689955507725637
    N               -3.030255476496696    -0.920170130117687     0.036044492274363
    N               -1.306255476496697    -0.479170130117687     1.466044492274363
    H               -0.291255476496697     0.643829869882313    -0.472955507725637
    H               -2.662255476496696     0.991829869882313    -2.043955507725637
    H               -1.896255476496697    -0.539170130117687    -2.493955507725637
    H               -3.396255476496696    -0.921170130117687    -0.902955507725637
    H               -3.519255476496697    -1.416170130117687     0.763044492274363
    H               -0.355255476496697    -0.153170130117687     1.587044492274363
    H               -1.770255476496697    -0.975170130117687     2.208044492274363
    H               -0.997375476496697     0.971981869882313    -2.695265507725637

}
e, wfn = energy('scf', return_wfn=True)
gdma(wfn)
dmavals = variable('DMA DISTRIBUTED MULTIPOLES')
charges = np.array(dmavals)
print(charges)
np.save('SSI-073ASP-135ARG-1-dimer.npy', np.array(charges))--------------------------------------------------------------------------

*** tstart() called on ds3
*** at Tue Apr 28 09:26:53 2020

   => Loading Basis Set <=

    Name: CC-PVDZ
    Role: ORBITAL
    Keyword: BASIS
    atoms 1-2, 8-9   entry C          line   138 file /theoryfs2/ds/metcalf/miniconda2/envs/tf2gpu/share/psi4/basis/cc-pvdz.gbs
    atoms 3-4        entry O          line   198 file /theoryfs2/ds/metcalf/miniconda2/envs/tf2gpu/share/psi4/basis/cc-pvdz.gbs
    atoms 5-7, 13-20 entry H          line    22 file /theoryfs2/ds/metcalf/miniconda2/envs/tf2gpu/share/psi4/basis/cc-pvdz.gbs
    atoms 10-12      entry N          line   168 file /theoryfs2/ds/metcalf/miniconda2/envs/tf2gpu/share/psi4/basis/cc-pvdz.gbs

         ---------------------------------------------------------
                                   SCF
               by Justin Turney, Rob Parrish, Andy Simmonett
                          and Daniel G. A. Smith
                              RHF Reference
                        1 Threads,    500 MiB Core
         ---------------------------------------------------------

  ==> Geometry <==

    Molecular point group: c1
    Full point group: C1

    Geometry (in Angstrom), charge = 0, multiplicity = 1:

       Center              X                  Y                   Z               Mass
    ------------   -----------------  -----------------  -----------------  -----------------
         C            3.622744523503     0.339829869882    -0.321955507726    12.000000000000
         C            2.220744523503     0.266829869882     0.263044492274    12.000000000000
         O            1.340744523503     1.030829869882    -0.180955507726    15.994914619570
         O            2.006744523503    -0.537170130118     1.193044492274    15.994914619570
         H            4.069744523503    -0.644170130118    -0.275955507726     1.007825032230
         H            4.208744523503     1.021829869882     0.298044492274     1.007825032230
         H            3.634224523503     0.692822869882    -1.363715507726     1.007825032230
         C           -1.720255476497     0.442829869882    -2.056955507726    12.000000000000
         C           -1.853255476497    -0.370170130118     0.272044492274    12.000000000000
         N           -1.218255476497     0.276829869882    -0.689955507726    14.003074004430
         N           -3.030255476497    -0.920170130118     0.036044492274    14.003074004430
         N           -1.306255476497    -0.479170130118     1.466044492274    14.003074004430
         H           -0.291255476497     0.643829869882    -0.472955507726     1.007825032230
         H           -2.662255476497     0.991829869882    -2.043955507726     1.007825032230
         H           -1.896255476497    -0.539170130118    -2.493955507726     1.007825032230
         H           -3.396255476497    -0.921170130118    -0.902955507726     1.007825032230
         H           -3.519255476497    -1.416170130118     0.763044492274     1.007825032230
         H           -0.355255476497    -0.153170130118     1.587044492274     1.007825032230
         H           -1.770255476497    -0.975170130118     2.208044492274     1.007825032230
         H           -0.997375476497     0.971981869882    -2.695265507726     1.007825032230

  Running in c1 symmetry.

  Rotational constants: A =      0.09334  B =      0.02476  C =      0.02049 [cm^-1]
  Rotational constants: A =   2798.23950  B =    742.26614  C =    614.24098 [MHz]
  Nuclear repulsion =  464.101207088979379

  Charge       = 0
  Multiplicity = 1
  Electrons    = 72
  Nalpha       = 36
  Nbeta        = 36

  ==> Algorithm <==

  SCF Algorithm Type is PK.
  DIIS enabled.
  MOM disabled.
  Fractional occupation disabled.
  Guess Type is SAD.
  Energy threshold   = 1.00e-06
  Density threshold  = 1.00e-10
  Integral threshold = 0.00e+00

  ==> Primary Basis <==

  Basis Set: CC-PVDZ
    Blend: CC-PVDZ
    Number of shells: 87
    Number of basis function: 181
    Number of Cartesian functions: 190
    Spherical Harmonics?: true
    Max angular momentum: 2

  ==> Pre-Iterations <==

   -------------------------------------------------------
    Irrep   Nso     Nmo     Nalpha   Nbeta   Ndocc  Nsocc
   -------------------------------------------------------
     A        181     181       0       0       0       0
   -------------------------------------------------------
    Total     181     181      36      36      36       0
   -------------------------------------------------------

  ==> Integral Setup <==

  Using integral reordering PK algorithm.
  Sizing the integral batches needed.
  Building batch lookup table.
   Calculation information:
      Number of atoms:                  20
      Number of AO shells:              87
      Number of primitives:            253
      Number of atomic orbitals:       190
      Number of basis functions:       181

      Integral cutoff                 1.00e-12
      Number of threads:                 1

	Batch   1 pq = [       0,    9405] index = [             0,44231715] size =     44231715
	Batch   2 pq = [    9405,   13301] index = [      44231715,88464951] size =     44233236
	Batch   3 pq = [   13301,   16471] index = [      88464951,135655156] size =     47190205
  Task number: 13
  Buffer size: 11059200
  Buffer per thread: 2
  We computed 5996851 shell quartets total.
  Whereas there are 7328706 unique shell quartets.

  ==> DiskJK: Disk-Based J/K Matrices <==

    J tasked:                  Yes
    K tasked:                  Yes
    wK tasked:                  No
    Memory [MiB]:              375
    Schwarz Cutoff:          1E-12

    OpenMP threads:              1

  Minimum eigenvalue in the overlap matrix is 3.7853907491E-03.
  Using Symmetric Orthogonalization.

  SCF Guess: Superposition of Atomic Densities via on-the-fly atomic UHF.

  ==> Iterations <==

                        Total Energy        Delta E     RMS |[F,P]|

   @RHF iter SAD:  -469.75582892284046   -4.69756e+02   0.00000e+00
   @RHF iter   1:  -470.71839096067242   -9.62562e-01   4.20337e-03 DIIS
   @RHF iter   2:  -470.94051064643008   -2.22120e-01   2.17481e-03 DIIS
   @RHF iter   3:  -470.99676485500345   -5.62542e-02   3.89394e-04 DIIS
   @RHF iter   4:  -470.99990239446339   -3.13754e-03   1.36276e-04 DIIS
   @RHF iter   5:  -471.00027207026898   -3.69676e-04   2.70023e-05 DIIS
   @RHF iter   6:  -471.00029044336446   -1.83731e-05   1.28600e-05 DIIS
   @RHF iter   7:  -471.00029350076125   -3.05740e-06   3.04474e-06 DIIS
   @RHF iter   8:  -471.00029382923054   -3.28469e-07   1.17911e-06 DIIS
   @RHF iter   9:  -471.00029387490588   -4.56753e-08   3.97501e-07 DIIS
   @RHF iter  10:  -471.00029388234270   -7.43682e-09   1.50310e-07 DIIS
   @RHF iter  11:  -471.00029388354994   -1.20724e-09   4.70210e-08 DIIS
   @RHF iter  12:  -471.00029388366323   -1.13289e-10   1.83128e-08 DIIS
   @RHF iter  13:  -471.00029388367273   -9.49285e-12   5.14144e-09 DIIS
   @RHF iter  14:  -471.00029388367506   -2.33058e-12   1.21995e-09 DIIS
   @RHF iter  15:  -471.00029388367710   -2.04636e-12   4.65372e-10 DIIS
   @RHF iter  16:  -471.00029388367568    1.42109e-12   1.52781e-10 DIIS
   @RHF iter  17:  -471.00029388367523    4.54747e-13   7.10536e-11 DIIS
  Energy and wave function converged.

  ==> Post-Iterations <==

    Orbital Energies [Eh]
    ---------------------

    Doubly Occupied:

       1A    -20.423466     2A    -20.412764     3A    -15.651572
       4A    -15.622006     5A    -15.605577     6A    -11.430689
       7A    -11.304503     8A    -11.265679     9A    -11.168046
      10A     -1.390745    11A     -1.312114    12A     -1.245032
      13A     -1.236213    14A     -1.195243    15A     -0.994600
      16A     -0.921075    17A     -0.885867    18A     -0.824297
      19A     -0.788536    20A     -0.712757    21A     -0.698623
      22A     -0.674867    23A     -0.651802    24A     -0.631712
      25A     -0.603117    26A     -0.581928    27A     -0.554812
      28A     -0.541791    29A     -0.538949    30A     -0.479612
      31A     -0.473221    32A     -0.451072    33A     -0.420134
      34A     -0.341054    35A     -0.326518    36A     -0.323218

    Virtual:

      37A      0.121698    38A      0.154365    39A      0.176147
      40A      0.201214    41A      0.215211    42A      0.235827
      43A      0.245660    44A      0.251869    45A      0.280321
      46A      0.299309    47A      0.308182    48A      0.312225
      49A      0.352018    50A      0.411272    51A      0.433355
      52A      0.454207    53A      0.479523    54A      0.488935
      55A      0.578820    56A      0.594351    57A      0.597167
      58A      0.616409    59A      0.653781    60A      0.672468
      61A      0.676423    62A      0.685479    63A      0.705151
      64A      0.716367    65A      0.722762    66A      0.758458
      67A      0.802435    68A      0.826250    69A      0.835470
      70A      0.842011    71A      0.844579    72A      0.861625
      73A      0.891944    74A      0.913123    75A      0.915807
      76A      0.921157    77A      0.928662    78A      0.946656
      79A      0.954970    80A      0.975298    81A      0.981882
      82A      1.001498    83A      1.041450    84A      1.061961
      85A      1.086635    86A      1.093354    87A      1.109708
      88A      1.170617    89A      1.189343    90A      1.219082
      91A      1.236506    92A      1.245147    93A      1.272136
      94A      1.281161    95A      1.321671    96A      1.353120
      97A      1.374538    98A      1.387596    99A      1.423511
     100A      1.432663   101A      1.451563   102A      1.483314
     103A      1.491311   104A      1.563113   105A      1.566861
     106A      1.594095   107A      1.613250   108A      1.635912
     109A      1.658168   110A      1.674954   111A      1.697989
     112A      1.712280   113A      1.725067   114A      1.736785
     115A      1.799922   116A      1.822243   117A      1.857406
     118A      1.868326   119A      1.882640   120A      1.902710
     121A      1.906833   122A      1.935996   123A      1.943206
     124A      1.951153   125A      1.972999   126A      1.981140
     127A      1.984937   128A      2.022092   129A      2.031272
     130A      2.067778   131A      2.083144   132A      2.120535
     133A      2.166422   134A      2.194915   135A      2.203753
     136A      2.241692   137A      2.256978   138A      2.279586
     139A      2.300455   140A      2.313922   141A      2.371712
     142A      2.404038   143A      2.407365   144A      2.436878
     145A      2.459654   146A      2.493718   147A      2.509159
     148A      2.551156   149A      2.565920   150A      2.580273
     151A      2.595409   152A      2.632749   153A      2.650367
     154A      2.698011   155A      2.733560   156A      2.757184
     157A      2.795126   158A      2.810225   159A      2.854495
     160A      2.871753   161A      2.885504   162A      2.917855
     163A      2.940785   164A      2.972468   165A      2.986068
     166A      3.042951   167A      3.101767   168A      3.121644
     169A      3.152133   170A      3.210732   171A      3.240753
     172A      3.278620   173A      3.378273   174A      3.485241
     175A      3.627400   176A      3.671596   177A      3.781984
     178A      3.828093   179A      3.927648   180A      3.947544
     181A      4.077115

    Final Occupation by Irrep:
              A
    DOCC [    36 ]

  @RHF Final Energy:  -471.00029388367523

   => Energetics <=

    Nuclear Repulsion Energy =            464.1012070889793790
    One-Electron Energy =               -1564.8365832035815401
    Two-Electron Energy =                 629.7350822309268779
    Total Energy =                       -471.0002938836752264

Computation Completed

Properties will be evaluated at   0.000000,   0.000000,   0.000000 [a0]

Properties computed using the SCF density matrix

  Nuclear Dipole Moment: [e a0]
     X:    -2.7572      Y:    -0.3007      Z:    -5.0529

  Electronic Dipole Moment: [e a0]
     X:    -1.9062      Y:    -0.6796      Z:     4.3133

  Dipole Moment: [e a0]
     X:    -4.6633      Y:    -0.9802      Z:    -0.7396     Total:     4.8223

  Dipole Moment: [D]
     X:   -11.8530      Y:    -2.4915      Z:    -1.8798     Total:    12.2571

*** tstop() called on ds3 at Tue Apr 28 09:28:17 2020
Module time:
	user time   =      46.59 seconds =       0.78 minutes
	system time =      20.86 seconds =       0.35 minutes
	total time  =         84 seconds =       1.40 minutes
Total time:
	user time   =      46.59 seconds =       0.78 minutes
	system time =      20.86 seconds =       0.35 minutes
	total time  =         84 seconds =       1.40 minutes
                                     G D M A

                                 by Anthony Stone

                           version 2.2.06, 22 June 2011

               Distributed Multipoles from Gaussian wavefunctions

Starting at 9:28:17 on 28 Apr 2020

Using SCF density matrix from file ./SSI/SSI-073ASP-135ARG-1-dimer.test.10495.fchk

                         Distributed Multipole Analysis

Standard DMA

Positions and radii in angstrom
Multipole moments in atomic units, ea_0^k for rank k

C          x =  3.622745  y =  0.339830  z = -0.321956 angstrom
           Maximum rank =  0   Radius =  0.650 angstrom
                   Q00  =  -0.255032

C          x =  2.220745  y =  0.266830  z =  0.263044 angstrom
           Maximum rank =  0   Radius =  0.650 angstrom
                   Q00  =   0.879266

O          x =  1.340745  y =  1.030830  z = -0.180956 angstrom
           Maximum rank =  0   Radius =  0.650 angstrom
                   Q00  =  -0.959342

O          x =  2.006745  y = -0.537170  z =  1.193044 angstrom
           Maximum rank =  0   Radius =  0.650 angstrom
                   Q00  =  -0.896073

H          x =  4.069745  y = -0.644170  z = -0.275956 angstrom
           Maximum rank =  0   Radius =  0.325 angstrom
                   Q00  =   0.086022

H          x =  4.208745  y =  1.021830  z =  0.298044 angstrom
           Maximum rank =  0   Radius =  0.325 angstrom
                   Q00  =   0.108240

H          x =  3.634225  y =  0.692823  z = -1.363716 angstrom
           Maximum rank =  0   Radius =  0.325 angstrom
                   Q00  =   0.072549

C          x = -1.720255  y =  0.442830  z = -2.056956 angstrom
           Maximum rank =  0   Radius =  0.650 angstrom
                   Q00  =  -0.099859

C          x = -1.853255  y = -0.370170  z =  0.272044 angstrom
           Maximum rank =  0   Radius =  0.650 angstrom
                   Q00  =   1.058471

N          x = -1.218255  y =  0.276830  z = -0.689956 angstrom
           Maximum rank =  0   Radius =  0.650 angstrom
                   Q00  =  -0.530878

N          x = -3.030255  y = -0.920170  z =  0.036044 angstrom
           Maximum rank =  0   Radius =  0.650 angstrom
                   Q00  =  -0.578090

N          x = -1.306255  y = -0.479170  z =  1.466044 angstrom
           Maximum rank =  0   Radius =  0.650 angstrom
                   Q00  =  -0.577688

H          x = -0.291255  y =  0.643830  z = -0.472956 angstrom
           Maximum rank =  0   Radius =  0.325 angstrom
                   Q00  =   0.369075

H          x = -2.662255  y =  0.991830  z = -2.043956 angstrom
           Maximum rank =  0   Radius =  0.325 angstrom
                   Q00  =   0.082716

H          x = -1.896255  y = -0.539170  z = -2.493956 angstrom
           Maximum rank =  0   Radius =  0.325 angstrom
                   Q00  =   0.079579

H          x = -3.396255  y = -0.921170  z = -0.902956 angstrom
           Maximum rank =  0   Radius =  0.325 angstrom
                   Q00  =   0.247133

H          x = -3.519255  y = -1.416170  z =  0.763044 angstrom
           Maximum rank =  0   Radius =  0.325 angstrom
                   Q00  =   0.238034

H          x = -0.355255  y = -0.153170  z =  1.587044 angstrom
           Maximum rank =  0   Radius =  0.325 angstrom
                   Q00  =   0.284551

H          x = -1.770255  y = -0.975170  z =  2.208044 angstrom
           Maximum rank =  0   Radius =  0.325 angstrom
                   Q00  =   0.231407

H          x = -0.997375  y =  0.971982  z = -2.695266 angstrom
           Maximum rank =  0   Radius =  0.325 angstrom
                   Q00  =   0.159917

Total multipoles referred to origin at
           x =   0.000000,  y =    0.000000,  z =    0.000000 angstrom
                   Q00  =  -0.000000

Finished at 9:28:17 on 28 Apr 2020

  DMA results are available in the Python driver through the
	  variable('DMA DISTRIBUTED MULTIPOLES')
  and
	  variable('DMA TOTAL MULTIPOLES')
  commands.

    Psi4 stopped on: Tuesday, 28 April 2020 09:28AM
    Psi4 wall time for execution: 0:01:23.93

*** Psi4 exiting successfully. Buy a developer a beer!
