                               Psi4 1.3.2 release

  ==> Input File <==

--------------------------------------------------------------------------
import numpy as np
set {scf_type pk
basis cc-pvdz
d_convergence 10
gdma_switch   0
gdma_limit    0
gdma_origin   [ 0.0,  0.0,  0.0 ]
}
molecule test {
    units Angstrom
    0 1
    --
    0 1
    C                0.186110977720257    -2.524547763354681     2.982892711543160
    C                0.865110977720257    -2.916547763354681     4.297892711543160
    H                0.664110977720257    -3.017547763354681     2.142892711543160
    H               -0.871889022279743    -2.781547763354681     2.996892711543159
    H                0.270110977720257    -1.444547763354681     2.863892711543159
    H                0.249110977720257    -2.578547763354680     5.131892711543159
    H                1.858400977720257    -2.446605763354680     4.348243711543160
    H                1.015430977720257    -4.004745763354681     4.354711711543160
    C                0.225110977720257     2.494452236645319    -3.007107288456841
    C               -0.472889022279743    -0.360547763354681     0.167892711543159
    C                0.825110977720257     0.058452236645319    -0.137107288456841
    C               -1.559889022279743     0.175452236645319    -0.537107288456841
    C                1.064110977720257     0.996452236645319    -1.141107288456840
    C               -1.316889022279743     1.119452236645319    -1.559107288456841
    C               -0.017889022279743     1.531452236645319    -1.869107288456841
    H               -0.653889022279743    -1.104547763354681     0.922892711543159
    H                1.659110977720257    -0.353547763354681     0.416892711543159
    H               -2.568889022279743    -0.145547763354681    -0.316107288456840
    H                2.078110977720257     1.298452236645319    -1.364107288456840
    H               -2.154889022279743     1.510452236645319    -2.120107288456841
    H                0.998110977720257     3.175452236645319    -2.706107288456840
    H               -0.681889022279743     3.071452236645319    -3.194107288456840
    H                0.544140977720257     1.986022236645319    -3.928908288456840

}
e, wfn = energy('scf', return_wfn=True)
gdma(wfn)
dmavals = variable('DMA DISTRIBUTED MULTIPOLES')
charges = np.array(dmavals)
print(charges)
np.save('SSI-012ALA-055PHE-1-dimer.npy', np.array(charges))--------------------------------------------------------------------------

*** tstart() called on ds3
*** at Tue Apr 28 07:41:53 2020

   => Loading Basis Set <=

    Name: CC-PVDZ
    Role: ORBITAL
    Keyword: BASIS
    atoms 1-2, 9-15  entry C          line   138 file /theoryfs2/ds/metcalf/miniconda2/envs/tf2gpu/share/psi4/basis/cc-pvdz.gbs
    atoms 3-8, 16-23 entry H          line    22 file /theoryfs2/ds/metcalf/miniconda2/envs/tf2gpu/share/psi4/basis/cc-pvdz.gbs

         ---------------------------------------------------------
                                   SCF
               by Justin Turney, Rob Parrish, Andy Simmonett
                          and Daniel G. A. Smith
                              RHF Reference
                        1 Threads,    500 MiB Core
         ---------------------------------------------------------

  ==> Geometry <==

    Molecular point group: c1
    Full point group: C1

    Geometry (in Angstrom), charge = 0, multiplicity = 1:

       Center              X                  Y                   Z               Mass
    ------------   -----------------  -----------------  -----------------  -----------------
         C            0.186110977720    -2.524547763355     2.982892711543    12.000000000000
         C            0.865110977720    -2.916547763355     4.297892711543    12.000000000000
         H            0.664110977720    -3.017547763355     2.142892711543     1.007825032230
         H           -0.871889022280    -2.781547763355     2.996892711543     1.007825032230
         H            0.270110977720    -1.444547763355     2.863892711543     1.007825032230
         H            0.249110977720    -2.578547763355     5.131892711543     1.007825032230
         H            1.858400977720    -2.446605763355     4.348243711543     1.007825032230
         H            1.015430977720    -4.004745763355     4.354711711543     1.007825032230
         C            0.225110977720     2.494452236645    -3.007107288457    12.000000000000
         C           -0.472889022280    -0.360547763355     0.167892711543    12.000000000000
         C            0.825110977720     0.058452236645    -0.137107288457    12.000000000000
         C           -1.559889022280     0.175452236645    -0.537107288457    12.000000000000
         C            1.064110977720     0.996452236645    -1.141107288457    12.000000000000
         C           -1.316889022280     1.119452236645    -1.559107288457    12.000000000000
         C           -0.017889022280     1.531452236645    -1.869107288457    12.000000000000
         H           -0.653889022280    -1.104547763355     0.922892711543     1.007825032230
         H            1.659110977720    -0.353547763355     0.416892711543     1.007825032230
         H           -2.568889022280    -0.145547763355    -0.316107288457     1.007825032230
         H            2.078110977720     1.298452236645    -1.364107288457     1.007825032230
         H           -2.154889022280     1.510452236645    -2.120107288457     1.007825032230
         H            0.998110977720     3.175452236645    -2.706107288457     1.007825032230
         H           -0.681889022280     3.071452236645    -3.194107288457     1.007825032230
         H            0.544140977720     1.986022236645    -3.928908288457     1.007825032230

  Running in c1 symmetry.

  Rotational constants: A =      0.15101  B =      0.01607  C =      0.01470 [cm^-1]
  Rotational constants: A =   4527.07131  B =    481.90066  C =    440.84203 [MHz]
  Nuclear repulsion =  393.366695707820270

  Charge       = 0
  Multiplicity = 1
  Electrons    = 68
  Nalpha       = 34
  Nbeta        = 34

  ==> Algorithm <==

  SCF Algorithm Type is PK.
  DIIS enabled.
  MOM disabled.
  Fractional occupation disabled.
  Guess Type is SAD.
  Energy threshold   = 1.00e-06
  Density threshold  = 1.00e-10
  Integral threshold = 0.00e+00

  ==> Primary Basis <==

  Basis Set: CC-PVDZ
    Blend: CC-PVDZ
    Number of shells: 96
    Number of basis function: 196
    Number of Cartesian functions: 205
    Spherical Harmonics?: true
    Max angular momentum: 2

  ==> Pre-Iterations <==

   -------------------------------------------------------
    Irrep   Nso     Nmo     Nalpha   Nbeta   Ndocc  Nsocc
   -------------------------------------------------------
     A        196     196       0       0       0       0
   -------------------------------------------------------
    Total     196     196      34      34      34       0
   -------------------------------------------------------

  ==> Integral Setup <==

  Using integral reordering PK algorithm.
  Sizing the integral batches needed.
  Building batch lookup table.
   Calculation information:
      Number of atoms:                  23
      Number of AO shells:              96
      Number of primitives:            268
      Number of atomic orbitals:       205
      Number of basis functions:       196

      Integral cutoff                 1.00e-12
      Number of threads:                 1

	Batch   1 pq = [       0,    9405] index = [             0,44231715] size =     44231715
	Batch   2 pq = [    9405,   13301] index = [      44231715,88464951] size =     44233236
	Batch   3 pq = [   13301,   16290] index = [      88464951,132690195] size =     44225244
	Batch   4 pq = [   16290,   18810] index = [     132690195,176917455] size =     44227260
	Batch   5 pq = [   18810,   19306] index = [     176917455,186370471] size =      9453016
  Task number: 17
  Buffer size: 11059200
  Buffer per thread: 2
  We computed 7875554 shell quartets total.
  Whereas there are 10841496 unique shell quartets.

  ==> DiskJK: Disk-Based J/K Matrices <==

    J tasked:                  Yes
    K tasked:                  Yes
    wK tasked:                  No
    Memory [MiB]:              375
    Schwarz Cutoff:          1E-12

    OpenMP threads:              1

  Minimum eigenvalue in the overlap matrix is 3.2205496184E-04.
  Using Symmetric Orthogonalization.

  SCF Guess: Superposition of Atomic Densities via on-the-fly atomic UHF.

  ==> Iterations <==

                        Total Energy        Delta E     RMS |[F,P]|

   @RHF iter SAD:  -347.78099744723880   -3.47781e+02   0.00000e+00
   @RHF iter   1:  -348.76913901982846   -9.88142e-01   2.86128e-03 DIIS
   @RHF iter   2:  -348.95923364259005   -1.90095e-01   1.16926e-03 DIIS
   @RHF iter   3:  -348.98805835584773   -2.88247e-02   2.57898e-04 DIIS
   @RHF iter   4:  -348.99053419568713   -2.47584e-03   5.34710e-05 DIIS
   @RHF iter   5:  -348.99060896673984   -7.47711e-05   1.89014e-05 DIIS
   @RHF iter   6:  -348.99061774743006   -8.78069e-06   4.93713e-06 DIIS
   @RHF iter   7:  -348.99061849155345   -7.44123e-07   1.32154e-06 DIIS
   @RHF iter   8:  -348.99061856556460   -7.40112e-08   4.03053e-07 DIIS
   @RHF iter   9:  -348.99061858105540   -1.54908e-08   1.90041e-07 DIIS
   @RHF iter  10:  -348.99061858520923   -4.15383e-09   8.93237e-08 DIIS
   @RHF iter  11:  -348.99061858639794   -1.18871e-09   2.86789e-08 DIIS
   @RHF iter  12:  -348.99061858648747   -8.95284e-11   1.14747e-08 DIIS
   @RHF iter  13:  -348.99061858649554   -8.07177e-12   4.26128e-09 DIIS
   @RHF iter  14:  -348.99061858649492    6.25278e-13   1.20200e-09 DIIS
   @RHF iter  15:  -348.99061858649640   -1.47793e-12   5.16825e-10 DIIS
   @RHF iter  16:  -348.99061858649469    1.70530e-12   2.24841e-10 DIIS
   @RHF iter  17:  -348.99061858649492   -2.27374e-13   8.73997e-11 DIIS
  Energy and wave function converged.

  ==> Post-Iterations <==

    Orbital Energies [Eh]
    ---------------------

    Doubly Occupied:

       1A    -11.242264     2A    -11.237576     3A    -11.235653
       4A    -11.232251     5A    -11.231658     6A    -11.229849
       7A    -11.227594     8A    -11.221065     9A    -11.218710
      10A     -1.145165    11A     -1.040751    12A     -1.020340
      13A     -1.006404    14A     -0.929875    15A     -0.840553
      16A     -0.821630    17A     -0.792223    18A     -0.687643
      19A     -0.630322    20A     -0.626929    21A     -0.603395
      22A     -0.597636    23A     -0.579536    24A     -0.576062
      25A     -0.561239    26A     -0.536703    27A     -0.502214
      28A     -0.492143    29A     -0.486125    30A     -0.483994
      31A     -0.481904    32A     -0.474973    33A     -0.328745
      34A     -0.318722

    Virtual:

      35A      0.132677    36A      0.142185    37A      0.176655
      38A      0.190039    39A      0.206992    40A      0.217494
      41A      0.232615    42A      0.241793    43A      0.251510
      44A      0.255342    45A      0.268737    46A      0.284990
      47A      0.289362    48A      0.292040    49A      0.296910
      50A      0.320577    51A      0.363500    52A      0.375034
      53A      0.409864    54A      0.453440    55A      0.465954
      56A      0.473668    57A      0.493663    58A      0.558855
      59A      0.592391    60A      0.595901    61A      0.603944
      62A      0.634973    63A      0.660979    64A      0.672420
      65A      0.679810    66A      0.692992    67A      0.709721
      68A      0.717434    69A      0.731551    70A      0.737275
      71A      0.739705    72A      0.746368    73A      0.748197
      74A      0.768936    75A      0.781760    76A      0.795142
      77A      0.836905    78A      0.855091    79A      0.862437
      80A      0.875166    81A      0.879016    82A      0.886564
      83A      0.889509    84A      0.895947    85A      0.903212
      86A      0.913953    87A      0.916992    88A      0.921786
      89A      0.927388    90A      0.930123    91A      0.943307
      92A      0.949223    93A      0.981404    94A      1.002183
      95A      1.045043    96A      1.054537    97A      1.108001
      98A      1.125422    99A      1.139355   100A      1.140142
     101A      1.154385   102A      1.176605   103A      1.198502
     104A      1.227768   105A      1.244990   106A      1.246999
     107A      1.251641   108A      1.292939   109A      1.297750
     110A      1.303109   111A      1.319436   112A      1.342671
     113A      1.424966   114A      1.473228   115A      1.477535
     116A      1.509211   117A      1.528592   118A      1.562945
     119A      1.587160   120A      1.614956   121A      1.675227
     122A      1.679380   123A      1.691768   124A      1.701135
     125A      1.732130   126A      1.740316   127A      1.755801
     128A      1.785781   129A      1.805234   130A      1.850919
     131A      1.859899   132A      1.870571   133A      1.885347
     134A      1.891898   135A      1.902872   136A      1.909082
     137A      1.914146   138A      1.924335   139A      1.930702
     140A      1.935778   141A      1.942787   142A      1.949902
     143A      1.951286   144A      1.955175   145A      1.976427
     146A      1.987243   147A      2.000600   148A      2.022707
     149A      2.048202   150A      2.056646   151A      2.069389
     152A      2.104414   153A      2.115240   154A      2.126328
     155A      2.137765   156A      2.160735   157A      2.169372
     158A      2.183567   159A      2.196218   160A      2.243791
     161A      2.271395   162A      2.283288   163A      2.295201
     164A      2.302885   165A      2.315375   166A      2.327748
     167A      2.382529   168A      2.445962   169A      2.456307
     170A      2.459993   171A      2.469109   172A      2.503626
     173A      2.534894   174A      2.573788   175A      2.581187
     176A      2.619487   177A      2.734009   178A      2.749546
     179A      2.759818   180A      2.776572   181A      2.777717
     182A      2.799359   183A      2.814633   184A      2.837427
     185A      2.849399   186A      2.858738   187A      2.886223
     188A      2.944177   189A      2.951785   190A      2.965847
     191A      3.004200   192A      3.022140   193A      3.141626
     194A      3.194641   195A      3.280678   196A      3.937302

    Final Occupation by Irrep:
              A
    DOCC [    34 ]

  @RHF Final Energy:  -348.99061858649492

   => Energetics <=

    Nuclear Repulsion Energy =            393.3666957078202699
    One-Electron Energy =               -1249.4309360719923916
    Two-Electron Energy =                 507.0736217776771468
    Total Energy =                       -348.9906185864949180

Computation Completed

Properties will be evaluated at   0.000000,   0.000000,   0.000000 [a0]

Properties computed using the SCF density matrix

  Nuclear Dipole Moment: [e a0]
     X:     2.2548      Y:    -6.4079      Z:     8.9518

  Electronic Dipole Moment: [e a0]
     X:    -2.2251      Y:     6.4541      Z:    -9.0354

  Dipole Moment: [e a0]
     X:     0.0297      Y:     0.0461      Z:    -0.0836     Total:     0.1000

  Dipole Moment: [D]
     X:     0.0755      Y:     0.1172      Z:    -0.2126     Total:     0.2542

*** tstop() called on ds3 at Tue Apr 28 07:43:11 2020
Module time:
	user time   =      52.88 seconds =       0.88 minutes
	system time =      27.88 seconds =       0.46 minutes
	total time  =         78 seconds =       1.30 minutes
Total time:
	user time   =      52.88 seconds =       0.88 minutes
	system time =      27.88 seconds =       0.46 minutes
	total time  =         78 seconds =       1.30 minutes
                                     G D M A

                                 by Anthony Stone

                           version 2.2.06, 22 June 2011

               Distributed Multipoles from Gaussian wavefunctions

Starting at 7:43:11 on 28 Apr 2020

Using SCF density matrix from file ./SSI/SSI-012ALA-055PHE-1-dimer.test.6599.fchk

                         Distributed Multipole Analysis

Standard DMA

Positions and radii in angstrom
Multipole moments in atomic units, ea_0^k for rank k

C          x =  0.186111  y = -2.524548  z =  2.982893 angstrom
           Maximum rank =  0   Radius =  0.650 angstrom
                   Q00  =  -0.261664

C          x =  0.865111  y = -2.916548  z =  4.297893 angstrom
           Maximum rank =  0   Radius =  0.650 angstrom
                   Q00  =  -0.215616

H          x =  0.664111  y = -3.017548  z =  2.142893 angstrom
           Maximum rank =  0   Radius =  0.325 angstrom
                   Q00  =   0.081580

H          x = -0.871889  y = -2.781548  z =  2.996893 angstrom
           Maximum rank =  0   Radius =  0.325 angstrom
                   Q00  =   0.080113

H          x =  0.270111  y = -1.444548  z =  2.863893 angstrom
           Maximum rank =  0   Radius =  0.325 angstrom
                   Q00  =   0.076584

H          x =  0.249111  y = -2.578548  z =  5.131893 angstrom
           Maximum rank =  0   Radius =  0.325 angstrom
                   Q00  =   0.083577

H          x =  1.858401  y = -2.446606  z =  4.348244 angstrom
           Maximum rank =  0   Radius =  0.325 angstrom
                   Q00  =   0.078891

H          x =  1.015431  y = -4.004746  z =  4.354712 angstrom
           Maximum rank =  0   Radius =  0.325 angstrom
                   Q00  =   0.080132

C          x =  0.225111  y =  2.494452  z = -3.007107 angstrom
           Maximum rank =  0   Radius =  0.650 angstrom
                   Q00  =  -0.200531

C          x = -0.472889  y = -0.360548  z =  0.167893 angstrom
           Maximum rank =  0   Radius =  0.650 angstrom
                   Q00  =  -0.101705

C          x =  0.825111  y =  0.058452  z = -0.137107 angstrom
           Maximum rank =  0   Radius =  0.650 angstrom
                   Q00  =   0.026927

C          x = -1.559889  y =  0.175452  z = -0.537107 angstrom
           Maximum rank =  0   Radius =  0.650 angstrom
                   Q00  =  -0.071868

C          x =  1.064111  y =  0.996452  z = -1.141107 angstrom
           Maximum rank =  0   Radius =  0.650 angstrom
                   Q00  =  -0.095437

C          x = -1.316889  y =  1.119452  z = -1.559107 angstrom
           Maximum rank =  0   Radius =  0.650 angstrom
                   Q00  =  -0.075063

C          x = -0.017889  y =  1.531452  z = -1.869107 angstrom
           Maximum rank =  0   Radius =  0.650 angstrom
                   Q00  =  -0.101148

H          x = -0.653889  y = -1.104548  z =  0.922893 angstrom
           Maximum rank =  0   Radius =  0.325 angstrom
                   Q00  =   0.066038

H          x =  1.659111  y = -0.353548  z =  0.416893 angstrom
           Maximum rank =  0   Radius =  0.325 angstrom
                   Q00  =   0.061511

H          x = -2.568889  y = -0.145548  z = -0.316107 angstrom
           Maximum rank =  0   Radius =  0.325 angstrom
                   Q00  =   0.067490

H          x =  2.078111  y =  1.298452  z = -1.364107 angstrom
           Maximum rank =  0   Radius =  0.325 angstrom
                   Q00  =   0.058712

H          x = -2.154889  y =  1.510452  z = -2.120107 angstrom
           Maximum rank =  0   Radius =  0.325 angstrom
                   Q00  =   0.057886

H          x =  0.998111  y =  3.175452  z = -2.706107 angstrom
           Maximum rank =  0   Radius =  0.325 angstrom
                   Q00  =   0.101269

H          x = -0.681889  y =  3.071452  z = -3.194107 angstrom
           Maximum rank =  0   Radius =  0.325 angstrom
                   Q00  =   0.098050

H          x =  0.544141  y =  1.986022  z = -3.928908 angstrom
           Maximum rank =  0   Radius =  0.325 angstrom
                   Q00  =   0.104269

Total multipoles referred to origin at
           x =   0.000000,  y =    0.000000,  z =    0.000000 angstrom
                   Q00  =  -0.000000

Finished at 7:43:11 on 28 Apr 2020

  DMA results are available in the Python driver through the
	  variable('DMA DISTRIBUTED MULTIPOLES')
  and
	  variable('DMA TOTAL MULTIPOLES')
  commands.

    Psi4 stopped on: Tuesday, 28 April 2020 07:43AM
    Psi4 wall time for execution: 0:01:18.20

*** Psi4 exiting successfully. Buy a developer a beer!
