                               Psi4 1.3.2 release

  ==> Input File <==

--------------------------------------------------------------------------
import numpy as np
set {scf_type pk
basis cc-pvdz
d_convergence 10
gdma_switch   0
gdma_limit    0
gdma_origin   [ 0.0,  0.0,  0.0 ]
}
molecule test {
    units Angstrom
    0 1
    --
    0 1
    C                1.763114485805822    -2.016302299139406     3.864097232371141
    C               -0.469885514194178    -0.406302299139406     1.261097232371141
    C               -1.730885514194178    -0.698302299139406     1.768097232371141
    C                0.656114485805822    -0.839302299139406     1.946097232371141
    C                0.541114485805822    -1.556302299139406     3.128097232371141
    C               -1.852885514194178    -1.419302299139406     2.956097232371140
    C               -0.722885514194178    -1.846302299139406     3.634097232371140
    H               -0.371885514194178     0.151697700860594     0.340097232371141
    H               -2.614885514194178    -0.374302299139406     1.238097232371141
    H                1.632114485805822    -0.604302299139406     1.547097232371141
    H               -2.834885514194178    -1.651302299139406     3.345097232371141
    H                1.523114485805822    -2.124302299139406     4.922097232371141
    H                2.539114485805821    -1.253302299139406     3.777097232371141
    H               -0.824885514194178    -2.405302299139406     4.552097232371141
    H                2.149014485805822    -2.980682299139406     3.502087232371141
    C               -1.597885514194178     3.394697700860593    -2.353902767628859
    C                1.042114485805822     0.004697700860594    -2.248902767628859
    C               -0.235885514194178    -0.121302299139406    -2.782902767628860
    C                1.458114485805822     1.230697700860594    -1.722902767628859
    C               -1.076885514194178     0.974697700860594    -2.799902767628859
    C                0.608114485805822     2.314697700860594    -1.754902767628859
    C               -0.671885514194178     2.209697700860593    -2.286902767628859
    O                1.858114485805822    -1.065302299139406    -2.235902767628859
    H               -0.573885514194178    -1.072302299139406    -3.164902767628859
    H                1.457114485805822    -1.830302299139406    -2.643902767628859
    H                2.455114485805822     1.320697700860594    -1.318902767628859
    H               -2.081885514194178     0.859697700860594    -3.171902767628859
    H                0.951114485805822     3.250697700860594    -1.375902767628859
    H               -1.744885514194178     3.829697700860593    -1.380902767628859
    H               -2.569885514194179     3.015697700860594    -2.659902767628859
    H               -1.307875514194178     4.180027700860594    -3.067452767628859

}
e, wfn = energy('scf', return_wfn=True)
gdma(wfn)
dmavals = variable('DMA DISTRIBUTED MULTIPOLES')
charges = np.array(dmavals)
print(charges)
np.save('SSI-194PHE-241TYR-1-dimer.npy', np.array(charges))--------------------------------------------------------------------------

*** tstart() called on ds3
*** at Mon Apr 27 19:11:16 2020

   => Loading Basis Set <=

    Name: CC-PVDZ
    Role: ORBITAL
    Keyword: BASIS
    atoms 1-7, 16-22  entry C          line   138 file /theoryfs2/ds/metcalf/miniconda2/envs/tf2gpu/share/psi4/basis/cc-pvdz.gbs
    atoms 8-15, 24-31 entry H          line    22 file /theoryfs2/ds/metcalf/miniconda2/envs/tf2gpu/share/psi4/basis/cc-pvdz.gbs
    atoms 23          entry O          line   198 file /theoryfs2/ds/metcalf/miniconda2/envs/tf2gpu/share/psi4/basis/cc-pvdz.gbs

         ---------------------------------------------------------
                                   SCF
               by Justin Turney, Rob Parrish, Andy Simmonett
                          and Daniel G. A. Smith
                              RHF Reference
                        1 Threads,    500 MiB Core
         ---------------------------------------------------------

  ==> Geometry <==

    Molecular point group: c1
    Full point group: C1

    Geometry (in Angstrom), charge = 0, multiplicity = 1:

       Center              X                  Y                   Z               Mass
    ------------   -----------------  -----------------  -----------------  -----------------
         C            1.763114485806    -2.016302299139     3.864097232371    12.000000000000
         C           -0.469885514194    -0.406302299139     1.261097232371    12.000000000000
         C           -1.730885514194    -0.698302299139     1.768097232371    12.000000000000
         C            0.656114485806    -0.839302299139     1.946097232371    12.000000000000
         C            0.541114485806    -1.556302299139     3.128097232371    12.000000000000
         C           -1.852885514194    -1.419302299139     2.956097232371    12.000000000000
         C           -0.722885514194    -1.846302299139     3.634097232371    12.000000000000
         H           -0.371885514194     0.151697700861     0.340097232371     1.007825032230
         H           -2.614885514194    -0.374302299139     1.238097232371     1.007825032230
         H            1.632114485806    -0.604302299139     1.547097232371     1.007825032230
         H           -2.834885514194    -1.651302299139     3.345097232371     1.007825032230
         H            1.523114485806    -2.124302299139     4.922097232371     1.007825032230
         H            2.539114485806    -1.253302299139     3.777097232371     1.007825032230
         H           -0.824885514194    -2.405302299139     4.552097232371     1.007825032230
         H            2.149014485806    -2.980682299139     3.502087232371     1.007825032230
         C           -1.597885514194     3.394697700861    -2.353902767629    12.000000000000
         C            1.042114485806     0.004697700861    -2.248902767629    12.000000000000
         C           -0.235885514194    -0.121302299139    -2.782902767629    12.000000000000
         C            1.458114485806     1.230697700861    -1.722902767629    12.000000000000
         C           -1.076885514194     0.974697700861    -2.799902767629    12.000000000000
         C            0.608114485806     2.314697700861    -1.754902767629    12.000000000000
         C           -0.671885514194     2.209697700861    -2.286902767629    12.000000000000
         O            1.858114485806    -1.065302299139    -2.235902767629    15.994914619570
         H           -0.573885514194    -1.072302299139    -3.164902767629     1.007825032230
         H            1.457114485806    -1.830302299139    -2.643902767629     1.007825032230
         H            2.455114485806     1.320697700861    -1.318902767629     1.007825032230
         H           -2.081885514194     0.859697700861    -3.171902767629     1.007825032230
         H            0.951114485806     3.250697700861    -1.375902767629     1.007825032230
         H           -1.744885514194     3.829697700861    -1.380902767629     1.007825032230
         H           -2.569885514194     3.015697700861    -2.659902767629     1.007825032230
         H           -1.307875514194     4.180027700861    -3.067452767629     1.007825032230

  Running in c1 symmetry.

  Rotational constants: A =      0.03066  B =      0.00927  C =      0.00815 [cm^-1]
  Rotational constants: A =    919.13729  B =    277.93650  C =    244.34450 [MHz]
  Nuclear repulsion =  881.810485715803793

  Charge       = 0
  Multiplicity = 1
  Electrons    = 108
  Nalpha       = 54
  Nbeta        = 54

  ==> Algorithm <==

  SCF Algorithm Type is PK.
  DIIS enabled.
  MOM disabled.
  Fractional occupation disabled.
  Guess Type is SAD.
  Energy threshold   = 1.00e-06
  Density threshold  = 1.00e-10
  Integral threshold = 0.00e+00

  ==> Primary Basis <==

  Basis Set: CC-PVDZ
    Blend: CC-PVDZ
    Number of shells: 138
    Number of basis function: 290
    Number of Cartesian functions: 305
    Spherical Harmonics?: true
    Max angular momentum: 2

  ==> Pre-Iterations <==

   -------------------------------------------------------
    Irrep   Nso     Nmo     Nalpha   Nbeta   Ndocc  Nsocc
   -------------------------------------------------------
     A        290     290       0       0       0       0
   -------------------------------------------------------
    Total     290     290      54      54      54       0
   -------------------------------------------------------

  ==> Integral Setup <==

  Using integral reordering PK algorithm.
  Sizing the integral batches needed.
  Building batch lookup table.
   Calculation information:
      Number of atoms:                  31
      Number of AO shells:             138
      Number of primitives:            410
      Number of atomic orbitals:       305
      Number of basis functions:       290

      Integral cutoff                 1.00e-12
      Number of threads:                 1

	Batch   1 pq = [       0,    9405] index = [             0,44231715] size =     44231715
	Batch   2 pq = [    9405,   13301] index = [      44231715,88464951] size =     44233236
	Batch   3 pq = [   13301,   16290] index = [      88464951,132690195] size =     44225244
	Batch   4 pq = [   16290,   18810] index = [     132690195,176917455] size =     44227260
	Batch   5 pq = [   18810,   21030] index = [     176917455,221140965] size =     44223510
	Batch   6 pq = [   21030,   23037] index = [     221140965,265363203] size =     44222238
	Batch   7 pq = [   23037,   24883] index = [     265363203,309594286] size =     44231083
	Batch   8 pq = [   24883,   26601] index = [     309594286,353819901] size =     44225615
	Batch   9 pq = [   26601,   28214] index = [     353819901,398029005] size =     44209104
	Batch  10 pq = [   28214,   29740] index = [     398029005,442248670] size =     44219665
	Batch  11 pq = [   29740,   31191] index = [     442248670,486454836] size =     44206166
	Batch  12 pq = [   31191,   32578] index = [     486454836,530679331] size =     44224495
	Batch  13 pq = [   32578,   33908] index = [     530679331,574893186] size =     44213855
	Batch  14 pq = [   33908,   35188] index = [     574893186,619115266] size =     44222080
	Batch  15 pq = [   35188,   36423] index = [     619115266,663335676] size =     44220410
	Batch  16 pq = [   36423,   37617] index = [     663335676,707538153] size =     44202477
	Batch  17 pq = [   37617,   38775] index = [     707538153,751769700] size =     44231547
	Batch  18 pq = [   38775,   39899] index = [     751769700,795985050] size =     44215350
	Batch  19 pq = [   39899,   40992] index = [     795985050,840192528] size =     44207478
	Batch  20 pq = [   40992,   42057] index = [     840192528,884416653] size =     44224125
	Batch  21 pq = [   42057,   42195] index = [     884416653,890230110] size =      5813457
  Task number: 81
  Buffer size: 11059200
  Buffer per thread: 2
  We computed 41697172 shell quartets total.
  Whereas there are 45998436 unique shell quartets.

  ==> DiskJK: Disk-Based J/K Matrices <==

    J tasked:                  Yes
    K tasked:                  Yes
    wK tasked:                  No
    Memory [MiB]:              375
    Schwarz Cutoff:          1E-12

    OpenMP threads:              1

  Minimum eigenvalue in the overlap matrix is 2.9315089574E-04.
  Using Symmetric Orthogonalization.

  SCF Guess: Superposition of Atomic Densities via on-the-fly atomic UHF.

  ==> Iterations <==

                        Total Energy        Delta E     RMS |[F,P]|

   @RHF iter SAD:  -613.35236000233567   -6.13352e+02   0.00000e+00
   @RHF iter   1:  -614.06011399374688   -7.07754e-01   2.38862e-03 DIIS
   @RHF iter   2:  -614.33850979741158   -2.78396e-01   9.84940e-04 DIIS
   @RHF iter   3:  -614.38018697381108   -4.16772e-02   2.32789e-04 DIIS
   @RHF iter   4:  -614.38372858142009   -3.54161e-03   9.00869e-05 DIIS
   @RHF iter   5:  -614.38412679362864   -3.98212e-04   1.71757e-05 DIIS
   @RHF iter   6:  -614.38414789320473   -2.10996e-05   5.58173e-06 DIIS
   @RHF iter   7:  -614.38415032645105   -2.43325e-06   1.77402e-06 DIIS
   @RHF iter   8:  -614.38415070891483   -3.82464e-07   7.28174e-07 DIIS
   @RHF iter   9:  -614.38415079054926   -8.16344e-08   3.57290e-07 DIIS
   @RHF iter  10:  -614.38415081101732   -2.04681e-08   1.56709e-07 DIIS
   @RHF iter  11:  -614.38415081739333   -6.37601e-09   5.92954e-08 DIIS
   @RHF iter  12:  -614.38415081805783   -6.64500e-10   2.53983e-08 DIIS
   @RHF iter  13:  -614.38415081814674   -8.89031e-11   6.71034e-09 DIIS
   @RHF iter  14:  -614.38415081815094   -4.20641e-12   1.98602e-09 DIIS
   @RHF iter  15:  -614.38415081815117   -2.27374e-13   7.26229e-10 DIIS
   @RHF iter  16:  -614.38415081814605    5.11591e-12   3.33130e-10 DIIS
   @RHF iter  17:  -614.38415081814969   -3.63798e-12   1.60537e-10 DIIS
   @RHF iter  18:  -614.38415081814583    3.86535e-12   6.69084e-11 DIIS
  Energy and wave function converged.

  ==> Post-Iterations <==

    Orbital Energies [Eh]
    ---------------------

    Doubly Occupied:

       1A    -20.585397     2A    -11.302053     3A    -11.239618
       4A    -11.236962     5A    -11.233722     6A    -11.232011
       7A    -11.231806     8A    -11.230899     9A    -11.228082
      10A    -11.226468    11A    -11.224327    12A    -11.223187
      13A    -11.222746    14A    -11.222496    15A    -11.219942
      16A     -1.411386    17A     -1.155612    18A     -1.147287
      19A     -1.039092    20A     -1.038042    21A     -1.024193
      22A     -1.005813    23A     -0.929785    24A     -0.924483
      25A     -0.847069    26A     -0.817208    27A     -0.809631
      28A     -0.788788    29A     -0.739828    30A     -0.684068
      31A     -0.674164    32A     -0.645528    33A     -0.625289
      34A     -0.622102    35A     -0.607808    36A     -0.594059
      37A     -0.591067    38A     -0.574968    39A     -0.573648
      40A     -0.572653    41A     -0.571708    42A     -0.555153
      43A     -0.528422    44A     -0.524076    45A     -0.503011
      46A     -0.484964    47A     -0.481134    48A     -0.480252
      49A     -0.474159    50A     -0.466921    51A     -0.344882
      52A     -0.325952    53A     -0.314599    54A     -0.301430

    Virtual:

      55A      0.130125    56A      0.145209    57A      0.146511
      58A      0.155409    59A      0.176658    60A      0.184758
      61A      0.193316    62A      0.208280    63A      0.213280
      64A      0.218130    65A      0.234793    66A      0.248482
      67A      0.258411    68A      0.261747    69A      0.270723
      70A      0.272838    71A      0.282249    72A      0.298323
      73A      0.301621    74A      0.310395    75A      0.370439
      76A      0.372731    77A      0.375167    78A      0.383286
      79A      0.433593    80A      0.455012    81A      0.462832
      82A      0.467653    83A      0.475986    84A      0.488961
      85A      0.495073    86A      0.502802    87A      0.521931
      88A      0.568398    89A      0.600228    90A      0.612559
      91A      0.634573    92A      0.642674    93A      0.653001
      94A      0.655504    95A      0.672892    96A      0.679174
      97A      0.686694    98A      0.693016    99A      0.709503
     100A      0.716734   101A      0.722296   102A      0.727786
     103A      0.732256   104A      0.742118   105A      0.749213
     106A      0.750022   107A      0.759944   108A      0.766509
     109A      0.774132   110A      0.776035   111A      0.779784
     112A      0.786647   113A      0.793735   114A      0.801900
     115A      0.817971   116A      0.835373   117A      0.841356
     118A      0.850654   119A      0.857222   120A      0.867192
     121A      0.877518   122A      0.883469   123A      0.885323
     124A      0.891331   125A      0.893222   126A      0.899529
     127A      0.905585   128A      0.906178   129A      0.918683
     130A      0.934317   131A      0.937132   132A      0.944401
     133A      0.946089   134A      0.948186   135A      0.951215
     136A      0.975157   137A      1.004182   138A      1.008254
     139A      1.018913   140A      1.046251   141A      1.050948
     142A      1.110077   143A      1.117074   144A      1.135306
     145A      1.143407   146A      1.150782   147A      1.163847
     148A      1.173485   149A      1.175612   150A      1.191154
     151A      1.206550   152A      1.223914   153A      1.234175
     154A      1.242532   155A      1.253590   156A      1.256764
     157A      1.259838   158A      1.273110   159A      1.288189
     160A      1.297997   161A      1.302522   162A      1.312225
     163A      1.317543   164A      1.321906   165A      1.325991
     166A      1.332553   167A      1.348808   168A      1.352049
     169A      1.362068   170A      1.407873   171A      1.420575
     172A      1.482835   173A      1.495772   174A      1.525627
     175A      1.531042   176A      1.541490   177A      1.550911
     178A      1.568364   179A      1.605181   180A      1.617480
     181A      1.622636   182A      1.682400   183A      1.689811
     184A      1.705165   185A      1.708102   186A      1.732874
     187A      1.741033   188A      1.745760   189A      1.757333
     190A      1.766825   191A      1.781201   192A      1.795260
     193A      1.806963   194A      1.820631   195A      1.839844
     196A      1.867487   197A      1.873758   198A      1.888866
     199A      1.896329   200A      1.899588   201A      1.907302
     202A      1.909783   203A      1.915485   204A      1.920704
     205A      1.925155   206A      1.929796   207A      1.936606
     208A      1.949308   209A      1.954073   210A      1.960611
     211A      1.971361   212A      1.973953   213A      1.985209
     214A      1.998364   215A      2.001392   216A      2.006323
     217A      2.020658   218A      2.046178   219A      2.056299
     220A      2.067423   221A      2.076838   222A      2.078516
     223A      2.082672   224A      2.088532   225A      2.116963
     226A      2.123169   227A      2.147731   228A      2.157744
     229A      2.165043   230A      2.173840   231A      2.177728
     232A      2.188213   233A      2.199680   234A      2.214297
     235A      2.228993   236A      2.260357   237A      2.274750
     238A      2.278488   239A      2.295044   240A      2.303152
     241A      2.306685   242A      2.315576   243A      2.322733
     244A      2.350215   245A      2.355352   246A      2.378115
     247A      2.410815   248A      2.471966   249A      2.481122
     250A      2.484871   251A      2.489534   252A      2.505727
     253A      2.508941   254A      2.535481   255A      2.553418
     256A      2.573972   257A      2.617480   258A      2.634692
     259A      2.658332   260A      2.754670   261A      2.757898
     262A      2.770041   263A      2.778767   264A      2.781867
     265A      2.797798   266A      2.803949   267A      2.821099
     268A      2.849080   269A      2.858369   270A      2.868952
     271A      2.878427   272A      2.909145   273A      2.978124
     274A      2.997956   275A      3.005702   276A      3.027003
     277A      3.032512   278A      3.109804   279A      3.131456
     280A      3.170445   281A      3.219567   282A      3.258813
     283A      3.299404   284A      3.320069   285A      3.357845
     286A      3.590950   287A      3.690809   288A      3.989525
     289A      3.995646   290A      4.203716

    Final Occupation by Irrep:
              A
    DOCC [    54 ]

  @RHF Final Energy:  -614.38415081814583

   => Energetics <=

    Nuclear Repulsion Energy =            881.8104857158037930
    One-Electron Energy =               -2583.0693799775626758
    Two-Electron Energy =                1086.8747434436131698
    Total Energy =                       -614.3841508181458266

Computation Completed

Properties will be evaluated at   0.000000,   0.000000,   0.000000 [a0]

Properties computed using the SCF density matrix

  Nuclear Dipole Moment: [e a0]
     X:    -2.0706      Y:     2.1624      Z:     4.1516

  Electronic Dipole Moment: [e a0]
     X:     1.7462      Y:    -2.3164      Z:    -4.4870

  Dipole Moment: [e a0]
     X:    -0.3244      Y:    -0.1539      Z:    -0.3353     Total:     0.4913

  Dipole Moment: [D]
     X:    -0.8245      Y:    -0.3913      Z:    -0.8523     Total:     1.2488

*** tstop() called on ds3 at Mon Apr 27 19:24:51 2020
Module time:
	user time   =     357.88 seconds =       5.96 minutes
	system time =     150.92 seconds =       2.52 minutes
	total time  =        815 seconds =      13.58 minutes
Total time:
	user time   =     357.88 seconds =       5.96 minutes
	system time =     150.92 seconds =       2.52 minutes
	total time  =        815 seconds =      13.58 minutes
                                     G D M A

                                 by Anthony Stone

                           version 2.2.06, 22 June 2011

               Distributed Multipoles from Gaussian wavefunctions

Starting at 19:24:52 on 27 Apr 2020

Using SCF density matrix from file ./SSI/SSI-194PHE-241TYR-1-dimer.test.4335.fchk

                         Distributed Multipole Analysis

Standard DMA

Positions and radii in angstrom
Multipole moments in atomic units, ea_0^k for rank k

C          x =  1.763114  y = -2.016302  z =  3.864097 angstrom
           Maximum rank =  0   Radius =  0.650 angstrom
                   Q00  =  -0.197328

C          x = -0.469886  y = -0.406302  z =  1.261097 angstrom
           Maximum rank =  0   Radius =  0.650 angstrom
                   Q00  =  -0.061926

C          x = -1.730886  y = -0.698302  z =  1.768097 angstrom
           Maximum rank =  0   Radius =  0.650 angstrom
                   Q00  =  -0.091498

C          x =  0.656114  y = -0.839302  z =  1.946097 angstrom
           Maximum rank =  0   Radius =  0.650 angstrom
                   Q00  =   0.006900

C          x =  0.541114  y = -1.556302  z =  3.128097 angstrom
           Maximum rank =  0   Radius =  0.650 angstrom
                   Q00  =  -0.103260

C          x = -1.852886  y = -1.419302  z =  2.956097 angstrom
           Maximum rank =  0   Radius =  0.650 angstrom
                   Q00  =  -0.061753

C          x = -0.722886  y = -1.846302  z =  3.634097 angstrom
           Maximum rank =  0   Radius =  0.650 angstrom
                   Q00  =  -0.088590

H          x = -0.371886  y =  0.151698  z =  0.340097 angstrom
           Maximum rank =  0   Radius =  0.325 angstrom
                   Q00  =   0.075310

H          x = -2.614886  y = -0.374302  z =  1.238097 angstrom
           Maximum rank =  0   Radius =  0.325 angstrom
                   Q00  =   0.054572

H          x =  1.632114  y = -0.604302  z =  1.547097 angstrom
           Maximum rank =  0   Radius =  0.325 angstrom
                   Q00  =   0.051844

H          x = -2.834886  y = -1.651302  z =  3.345097 angstrom
           Maximum rank =  0   Radius =  0.325 angstrom
                   Q00  =   0.060328

H          x =  1.523114  y = -2.124302  z =  4.922097 angstrom
           Maximum rank =  0   Radius =  0.325 angstrom
                   Q00  =   0.094121

H          x =  2.539114  y = -1.253302  z =  3.777097 angstrom
           Maximum rank =  0   Radius =  0.325 angstrom
                   Q00  =   0.097634

H          x = -0.824886  y = -2.405302  z =  4.552097 angstrom
           Maximum rank =  0   Radius =  0.325 angstrom
                   Q00  =   0.053979

H          x =  2.149014  y = -2.980682  z =  3.502087 angstrom
           Maximum rank =  0   Radius =  0.325 angstrom
                   Q00  =   0.102962

C          x = -1.597886  y =  3.394698  z = -2.353903 angstrom
           Maximum rank =  0   Radius =  0.650 angstrom
                   Q00  =  -0.204410

C          x =  1.042114  y =  0.004698  z = -2.248903 angstrom
           Maximum rank =  0   Radius =  0.650 angstrom
                   Q00  =   0.316839

C          x = -0.235886  y = -0.121302  z = -2.782903 angstrom
           Maximum rank =  0   Radius =  0.650 angstrom
                   Q00  =  -0.184276

C          x =  1.458114  y =  1.230698  z = -1.722903 angstrom
           Maximum rank =  0   Radius =  0.650 angstrom
                   Q00  =  -0.131319

C          x = -1.076886  y =  0.974698  z = -2.799903 angstrom
           Maximum rank =  0   Radius =  0.650 angstrom
                   Q00  =   0.039949

C          x =  0.608114  y =  2.314698  z = -1.754903 angstrom
           Maximum rank =  0   Radius =  0.650 angstrom
                   Q00  =  -0.005446

C          x = -0.671886  y =  2.209698  z = -2.286903 angstrom
           Maximum rank =  0   Radius =  0.650 angstrom
                   Q00  =  -0.147600

O          x =  1.858114  y = -1.065302  z = -2.235903 angstrom
           Maximum rank =  0   Radius =  0.650 angstrom
                   Q00  =  -0.660229

H          x = -0.573886  y = -1.072302  z = -3.164903 angstrom
           Maximum rank =  0   Radius =  0.325 angstrom
                   Q00  =   0.072839

H          x =  1.457114  y = -1.830302  z = -2.643903 angstrom
           Maximum rank =  0   Radius =  0.325 angstrom
                   Q00  =   0.406995

H          x =  2.455114  y =  1.320698  z = -1.318903 angstrom
           Maximum rank =  0   Radius =  0.325 angstrom
                   Q00  =   0.078902

H          x = -2.081886  y =  0.859698  z = -3.171903 angstrom
           Maximum rank =  0   Radius =  0.325 angstrom
                   Q00  =   0.069106

H          x =  0.951114  y =  3.250698  z = -1.375903 angstrom
           Maximum rank =  0   Radius =  0.325 angstrom
                   Q00  =   0.060781

H          x = -1.744886  y =  3.829698  z = -1.380903 angstrom
           Maximum rank =  0   Radius =  0.325 angstrom
                   Q00  =   0.102883

H          x = -2.569886  y =  3.015698  z = -2.659903 angstrom
           Maximum rank =  0   Radius =  0.325 angstrom
                   Q00  =   0.091512

H          x = -1.307876  y =  4.180028  z = -3.067453 angstrom
           Maximum rank =  0   Radius =  0.325 angstrom
                   Q00  =   0.100178

Total multipoles referred to origin at
           x =   0.000000,  y =    0.000000,  z =    0.000000 angstrom
                   Q00  =  -0.000000

Finished at 19:24:52 on 27 Apr 2020

  DMA results are available in the Python driver through the
	  variable('DMA DISTRIBUTED MULTIPOLES')
  and
	  variable('DMA TOTAL MULTIPOLES')
  commands.

    Psi4 stopped on: Monday, 27 April 2020 07:24PM
    Psi4 wall time for execution: 0:13:36.11

*** Psi4 exiting successfully. Buy a developer a beer!
