                               Psi4 1.3.2 release

  ==> Input File <==

--------------------------------------------------------------------------
import numpy as np
set {scf_type pk
basis cc-pvdz
d_convergence 10
gdma_switch   0
gdma_limit    0
gdma_origin   [ 0.0,  0.0,  0.0 ]
}
molecule test {
    units Angstrom
    -2 1
    --
    -2 1
    C               -1.170073152259899     0.589042865555129     0.993204094535468
    C               -2.255073152259899     0.977042865555129     1.996204094535468
    C                0.225926847740101     0.594042865555129     1.595204094535468
    O                0.526926847740101     1.491042865555129     2.417204094535468
    O                1.043926847740101    -0.277957134444871     1.236204094535468
    H               -1.402073152259899    -0.391957134444871     0.580204094535468
    H               -1.198073152259899     1.317042865555129     0.181204094535468
    H               -2.024073152259898     1.979042865555129     2.359204094535468
    H               -2.273953152259899     0.279352865555129     2.846424094535468
    H               -3.210213152259898     1.035472865555129     1.453714094535468
    C                0.296926847740101    -1.336957134444871    -3.393795905464532
    C                0.401926847740101    -0.807957134444871    -1.969795905464532
    O                0.383926847740101     0.429042865555129    -1.783795905464532
    O                0.505926847740101    -1.639957134444871    -1.046795905464532
    H               -0.518073152259899    -2.058957134444871    -3.459795905464532
    H                1.229926847740101    -1.851957134444871    -3.632795905464532
    H                0.114746847740101    -0.523657134444871    -4.111675905464533

}
e, wfn = energy('scf', return_wfn=True)
gdma(wfn)
dmavals = variable('DMA DISTRIBUTED MULTIPOLES')
charges = np.array(dmavals)
print(charges)
np.save('SSI-112ASP-183GLU-1-dimer.npy', np.array(charges))--------------------------------------------------------------------------

*** tstart() called on ds3
*** at Mon Apr 27 07:37:56 2020

   => Loading Basis Set <=

    Name: CC-PVDZ
    Role: ORBITAL
    Keyword: BASIS
    atoms 1-3, 11-12  entry C          line   138 file /theoryfs2/ds/metcalf/miniconda2/envs/tf2gpu/share/psi4/basis/cc-pvdz.gbs
    atoms 4-5, 13-14  entry O          line   198 file /theoryfs2/ds/metcalf/miniconda2/envs/tf2gpu/share/psi4/basis/cc-pvdz.gbs
    atoms 6-10, 15-17 entry H          line    22 file /theoryfs2/ds/metcalf/miniconda2/envs/tf2gpu/share/psi4/basis/cc-pvdz.gbs

         ---------------------------------------------------------
                                   SCF
               by Justin Turney, Rob Parrish, Andy Simmonett
                          and Daniel G. A. Smith
                              RHF Reference
                        1 Threads,    500 MiB Core
         ---------------------------------------------------------

  ==> Geometry <==

    Molecular point group: c1
    Full point group: C1

    Geometry (in Angstrom), charge = -2, multiplicity = 1:

       Center              X                  Y                   Z               Mass
    ------------   -----------------  -----------------  -----------------  -----------------
         C           -1.170073152260     0.589042865555     0.993204094535    12.000000000000
         C           -2.255073152260     0.977042865555     1.996204094535    12.000000000000
         C            0.225926847740     0.594042865555     1.595204094535    12.000000000000
         O            0.526926847740     1.491042865555     2.417204094535    15.994914619570
         O            1.043926847740    -0.277957134445     1.236204094535    15.994914619570
         H           -1.402073152260    -0.391957134445     0.580204094535     1.007825032230
         H           -1.198073152260     1.317042865555     0.181204094535     1.007825032230
         H           -2.024073152260     1.979042865555     2.359204094535     1.007825032230
         H           -2.273953152260     0.279352865555     2.846424094535     1.007825032230
         H           -3.210213152260     1.035472865555     1.453714094535     1.007825032230
         C            0.296926847740    -1.336957134445    -3.393795905465    12.000000000000
         C            0.401926847740    -0.807957134445    -1.969795905465    12.000000000000
         O            0.383926847740     0.429042865555    -1.783795905465    15.994914619570
         O            0.505926847740    -1.639957134445    -1.046795905465    15.994914619570
         H           -0.518073152260    -2.058957134445    -3.459795905465     1.007825032230
         H            1.229926847740    -1.851957134445    -3.632795905465     1.007825032230
         H            0.114746847740    -0.523657134445    -4.111675905465     1.007825032230

  Running in c1 symmetry.

  Rotational constants: A =      0.09901  B =      0.02470  C =      0.02249 [cm^-1]
  Rotational constants: A =   2968.30149  B =    740.35521  C =    674.22020 [MHz]
  Nuclear repulsion =  434.812606635676843

  Charge       = -2
  Multiplicity = 1
  Electrons    = 72
  Nalpha       = 36
  Nbeta        = 36

  ==> Algorithm <==

  SCF Algorithm Type is PK.
  DIIS enabled.
  MOM disabled.
  Fractional occupation disabled.
  Guess Type is SAD.
  Energy threshold   = 1.00e-06
  Density threshold  = 1.00e-10
  Integral threshold = 0.00e+00

  ==> Primary Basis <==

  Basis Set: CC-PVDZ
    Blend: CC-PVDZ
    Number of shells: 78
    Number of basis function: 166
    Number of Cartesian functions: 175
    Spherical Harmonics?: true
    Max angular momentum: 2

  ==> Pre-Iterations <==

   -------------------------------------------------------
    Irrep   Nso     Nmo     Nalpha   Nbeta   Ndocc  Nsocc
   -------------------------------------------------------
     A        166     166       0       0       0       0
   -------------------------------------------------------
    Total     166     166      36      36      36       0
   -------------------------------------------------------

  ==> Integral Setup <==

  Using integral reordering PK algorithm.
  Sizing the integral batches needed.
  Building batch lookup table.
   Calculation information:
      Number of atoms:                  17
      Number of AO shells:              78
      Number of primitives:            238
      Number of atomic orbitals:       175
      Number of basis functions:       166

      Integral cutoff                 1.00e-12
      Number of threads:                 1

	Batch   1 pq = [       0,    9405] index = [             0,44231715] size =     44231715
	Batch   2 pq = [    9405,   13301] index = [      44231715,88464951] size =     44233236
	Batch   3 pq = [   13301,   13861] index = [      88464951,96070591] size =      7605640
  Task number: 9
  Buffer size: 11059200
  Buffer per thread: 2
  We computed 3797661 shell quartets total.
  Whereas there are 4747821 unique shell quartets.

  ==> DiskJK: Disk-Based J/K Matrices <==

    J tasked:                  Yes
    K tasked:                  Yes
    wK tasked:                  No
    Memory [MiB]:              375
    Schwarz Cutoff:          1E-12

    OpenMP threads:              1

  Minimum eigenvalue in the overlap matrix is 4.0025732410E-03.
  Using Symmetric Orthogonalization.

  SCF Guess: Superposition of Atomic Densities via on-the-fly atomic UHF.

  ==> Iterations <==

                        Total Energy        Delta E     RMS |[F,P]|

   @RHF iter SAD:  -491.37464069238916   -4.91375e+02   0.00000e+00
   @RHF iter   1:  -492.95702018331104   -1.58238e+00   5.64622e-03 DIIS
   @RHF iter   2:  -493.26029118027640   -3.03271e-01   3.33023e-03 DIIS
   @RHF iter   3:  -493.36671231978073   -1.06421e-01   4.49273e-04 DIIS
   @RHF iter   4:  -493.37032686315058   -3.61454e-03   1.71756e-04 DIIS
   @RHF iter   5:  -493.37092827931599   -6.01416e-04   3.60043e-05 DIIS
   @RHF iter   6:  -493.37095314023611   -2.48609e-05   1.78391e-05 DIIS
   @RHF iter   7:  -493.37095770932177   -4.56909e-06   3.40519e-06 DIIS
   @RHF iter   8:  -493.37095813013912   -4.20817e-07   1.49296e-06 DIIS
   @RHF iter   9:  -493.37095820402925   -7.38901e-08   6.32554e-07 DIIS
   @RHF iter  10:  -493.37095822010292   -1.60737e-08   2.36425e-07 DIIS
   @RHF iter  11:  -493.37095822212513   -2.02220e-09   9.57660e-08 DIIS
   @RHF iter  12:  -493.37095822236211   -2.36980e-10   2.58655e-08 DIIS
   @RHF iter  13:  -493.37095822238314   -2.10321e-11   7.92662e-09 DIIS
   @RHF iter  14:  -493.37095822238638   -3.24007e-12   3.49177e-09 DIIS
   @RHF iter  15:  -493.37095822238661   -2.27374e-13   1.11433e-09 DIIS
   @RHF iter  16:  -493.37095822238643    1.70530e-13   5.18865e-10 DIIS
   @RHF iter  17:  -493.37095822238803   -1.59162e-12   2.29337e-10 DIIS
   @RHF iter  18:  -493.37095822238985   -1.81899e-12   9.33676e-11 DIIS
  Energy and wave function converged.

  ==> Post-Iterations <==

    Orbital Energies [Eh]
    ---------------------

    Doubly Occupied:

       1A    -20.131461     2A    -20.123286     3A    -20.112417
       4A    -20.094172     5A    -10.989573     6A    -10.958579
       7A    -10.950406     8A    -10.949934     9A    -10.898951
      10A     -1.019236    11A     -0.996196    12A     -0.906061
      13A     -0.878409    14A     -0.735264    15A     -0.692444
      16A     -0.559262    17A     -0.381796    18A     -0.361925
      19A     -0.321806    20A     -0.308877    21A     -0.300529
      22A     -0.291204    23A     -0.277747    24A     -0.241543
      25A     -0.227408    26A     -0.217377    27A     -0.213336
      28A     -0.182266    29A     -0.172287    30A     -0.148030
      31A     -0.056274    32A     -0.042178    33A     -0.034336
      34A     -0.027289    35A     -0.006426    36A      0.001175

    Virtual:

      37A      0.444131    38A      0.447775    39A      0.490534
      40A      0.500718    41A      0.505257    42A      0.524082
      43A      0.552531    44A      0.569076    45A      0.605742
      46A      0.637955    47A      0.672196    48A      0.684913
      49A      0.758248    50A      0.815231    51A      0.832191
      52A      0.844787    53A      0.863782    54A      0.896508
      55A      0.920372    56A      0.940851    57A      0.967391
      58A      1.001728    59A      1.071844    60A      1.087660
      61A      1.117174    62A      1.122122    63A      1.133357
      64A      1.135399    65A      1.136620    66A      1.152092
      67A      1.162066    68A      1.164528    69A      1.186491
      70A      1.187826    71A      1.201922    72A      1.215493
      73A      1.254791    74A      1.261769    75A      1.292994
      76A      1.317279    77A      1.341685    78A      1.389181
      79A      1.438060    80A      1.453396    81A      1.467553
      82A      1.471703    83A      1.522662    84A      1.563761
      85A      1.605568    86A      1.637705    87A      1.663597
      88A      1.677469    89A      1.688162    90A      1.704874
      91A      1.733112    92A      1.755468    93A      1.795332
      94A      1.801298    95A      1.817796    96A      1.834134
      97A      1.848651    98A      1.867847    99A      1.910199
     100A      1.934763   101A      1.945973   102A      1.970900
     103A      2.011672   104A      2.039252   105A      2.086747
     106A      2.145373   107A      2.151716   108A      2.156108
     109A      2.186346   110A      2.200342   111A      2.215154
     112A      2.237644   113A      2.251017   114A      2.291147
     115A      2.302239   116A      2.316765   117A      2.322679
     118A      2.340694   119A      2.374872   120A      2.397085
     121A      2.428615   122A      2.455138   123A      2.516952
     124A      2.533034   125A      2.548295   126A      2.582473
     127A      2.615167   128A      2.633787   129A      2.682703
     130A      2.719024   131A      2.747909   132A      2.753913
     133A      2.807488   134A      2.835112   135A      2.861274
     136A      2.894421   137A      2.905902   138A      2.994619
     139A      3.014412   140A      3.031269   141A      3.063731
     142A      3.090703   143A      3.117354   144A      3.138888
     145A      3.186407   146A      3.274360   147A      3.379631
     148A      3.404565   149A      3.413130   150A      3.435700
     151A      3.447007   152A      3.460907   153A      3.498834
     154A      3.522182   155A      3.766431   156A      3.798219
     157A      3.927944   158A      3.933706   159A      3.965423
     160A      3.979670   161A      4.195147   162A      4.205905
     163A      4.216733   164A      4.256071   165A      4.352625
     166A      4.365299

    Final Occupation by Irrep:
              A
    DOCC [    36 ]

  @RHF Final Energy:  -493.37095822238985

   => Energetics <=

    Nuclear Repulsion Energy =            434.8126066356768433
    One-Electron Energy =               -1566.7529098821630669
    Two-Electron Energy =                 638.5693450240962648
    Total Energy =                       -493.3709582223898451

Computation Completed

Properties will be evaluated at   0.000000,   0.000000,   0.000000 [a0]

Properties computed using the SCF density matrix

  Nuclear Dipole Moment: [e a0]
     X:    -8.6896      Y:    -0.2021      Z:    -3.5430

  Electronic Dipole Moment: [e a0]
     X:     6.7494      Y:    -0.1565      Z:     2.1879

  Dipole Moment: [e a0]
     X:    -1.9401      Y:    -0.3587      Z:    -1.3550     Total:     2.3935

  Dipole Moment: [D]
     X:    -4.9313      Y:    -0.9117      Z:    -3.4442     Total:     6.0837

*** tstop() called on ds3 at Mon Apr 27 07:39:02 2020
Module time:
	user time   =      33.25 seconds =       0.55 minutes
	system time =      14.55 seconds =       0.24 minutes
	total time  =         66 seconds =       1.10 minutes
Total time:
	user time   =      33.25 seconds =       0.55 minutes
	system time =      14.55 seconds =       0.24 minutes
	total time  =         66 seconds =       1.10 minutes
                                     G D M A

                                 by Anthony Stone

                           version 2.2.06, 22 June 2011

               Distributed Multipoles from Gaussian wavefunctions

Starting at 7:39:2 on 27 Apr 2020

Using SCF density matrix from file ./SSI/SSI-112ASP-183GLU-1-dimer.test.28254.fchk

                         Distributed Multipole Analysis

Standard DMA

Positions and radii in angstrom
Multipole moments in atomic units, ea_0^k for rank k

C          x = -1.170073  y =  0.589043  z =  0.993204 angstrom
           Maximum rank =  0   Radius =  0.650 angstrom
                   Q00  =  -0.116162

C          x = -2.255073  y =  0.977043  z =  1.996204 angstrom
           Maximum rank =  0   Radius =  0.650 angstrom
                   Q00  =  -0.213641

C          x =  0.225927  y =  0.594043  z =  1.595204 angstrom
           Maximum rank =  0   Radius =  0.650 angstrom
                   Q00  =   1.031361

O          x =  0.526927  y =  1.491043  z =  2.417204 angstrom
           Maximum rank =  0   Radius =  0.650 angstrom
                   Q00  =  -1.006645

O          x =  1.043927  y = -0.277957  z =  1.236204 angstrom
           Maximum rank =  0   Radius =  0.650 angstrom
                   Q00  =  -0.900419

H          x = -1.402073  y = -0.391957  z =  0.580204 angstrom
           Maximum rank =  0   Radius =  0.325 angstrom
                   Q00  =   0.044375

H          x = -1.198073  y =  1.317043  z =  0.181204 angstrom
           Maximum rank =  0   Radius =  0.325 angstrom
                   Q00  =   0.060498

H          x = -2.024073  y =  1.979043  z =  2.359204 angstrom
           Maximum rank =  0   Radius =  0.325 angstrom
                   Q00  =   0.059230

H          x = -2.273953  y =  0.279353  z =  2.846424 angstrom
           Maximum rank =  0   Radius =  0.325 angstrom
                   Q00  =   0.042958

H          x = -3.210213  y =  1.035473  z =  1.453714 angstrom
           Maximum rank =  0   Radius =  0.325 angstrom
                   Q00  =  -0.017122

C          x =  0.296927  y = -1.336957  z = -3.393796 angstrom
           Maximum rank =  0   Radius =  0.650 angstrom
                   Q00  =  -0.241762

C          x =  0.401927  y = -0.807957  z = -1.969796 angstrom
           Maximum rank =  0   Radius =  0.650 angstrom
                   Q00  =   0.928859

O          x =  0.383927  y =  0.429043  z = -1.783796 angstrom
           Maximum rank =  0   Radius =  0.650 angstrom
                   Q00  =  -0.903641

O          x =  0.505927  y = -1.639957  z = -1.046796 angstrom
           Maximum rank =  0   Radius =  0.650 angstrom
                   Q00  =  -0.873710

H          x = -0.518073  y = -2.058957  z = -3.459796 angstrom
           Maximum rank =  0   Radius =  0.325 angstrom
                   Q00  =   0.039898

H          x =  1.229927  y = -1.851957  z = -3.632796 angstrom
           Maximum rank =  0   Radius =  0.325 angstrom
                   Q00  =   0.051234

H          x =  0.114747  y = -0.523657  z = -4.111676 angstrom
           Maximum rank =  0   Radius =  0.325 angstrom
                   Q00  =   0.014689

Total multipoles referred to origin at
           x =   0.000000,  y =    0.000000,  z =    0.000000 angstrom
                   Q00  =  -2.000000

Finished at 7:39:2 on 27 Apr 2020

  DMA results are available in the Python driver through the
	  variable('DMA DISTRIBUTED MULTIPOLES')
  and
	  variable('DMA TOTAL MULTIPOLES')
  commands.

    Psi4 stopped on: Monday, 27 April 2020 07:39AM
    Psi4 wall time for execution: 0:01:06.30

*** Psi4 exiting successfully. Buy a developer a beer!
