                               Psi4 1.3.2 release

  ==> Input File <==

--------------------------------------------------------------------------
import numpy as np
set {scf_type pk
basis cc-pvdz
d_convergence 10
gdma_switch   0
gdma_limit    0
gdma_origin   [ 0.0,  0.0,  0.0 ]
}
molecule test {
    units Angstrom
    0 1
    --
    0 1
    C                1.174547250623741     0.517652526621410     1.471427024630873
    C                2.540547250623741    -0.153347473378590     1.596427024630873
    C                0.157547250623741    -0.292347473378590     0.692427024630873
    C               -0.436452749376259    -1.419347473378590     1.268427024630873
    C               -0.181452749376259     0.046652526621410    -0.621572975369127
    C               -1.354452749376259    -2.197347473378590     0.547427024630873
    C               -1.098452749376259    -0.722347473378590    -1.349572975369127
    C               -1.683452749376259    -1.846347473378590    -0.764572975369127
    O               -2.569452749376259    -2.600347473378590    -1.482572975369127
    H                0.777547250623741     0.682652526621410     2.472427024630873
    H                1.325547250623741     1.471652526621410     1.053427024630873
    H                2.405547250623742    -1.063347473378591     2.176427024630873
    H               -0.181452749376259    -1.696347473378590     2.282427024630873
    H                0.282547250623741     0.903652526621410    -1.089572975369127
    H               -1.805452749376259    -3.064347473378590     1.007427024630873
    H               -1.356452749376259    -0.451347473378590    -2.363572975369127
    H               -2.934452749376259    -3.324347473378590    -0.965572975369127
    H                3.255607250623741     0.517162026621410     2.095533724630873
    H                2.923317250623741    -0.424688473378590     0.601510024630873
    C                1.793547250623741     4.354652526621410    -0.828572975369127
    O                1.206547250623741     3.199652526621410    -0.284572975369127
    H                0.250547250623741     3.338652526621410    -0.247572975369127
    H                1.472547250623741     5.231652526621409    -0.263572975369127
    H                1.465547250623741     4.466652526621409    -1.862572975369127
    H                2.891217250623741     4.286948526621410    -0.805524975369127

}
e, wfn = energy('scf', return_wfn=True)
gdma(wfn)
dmavals = variable('DMA DISTRIBUTED MULTIPOLES')
charges = np.array(dmavals)
print(charges)
np.save('SSI-139TYR-148SER-1-dimer.npy', np.array(charges))--------------------------------------------------------------------------

*** tstart() called on ds3
*** at Sun Apr 26 18:06:09 2020

   => Loading Basis Set <=

    Name: CC-PVDZ
    Role: ORBITAL
    Keyword: BASIS
    atoms 1-8, 20      entry C          line   138 file /theoryfs2/ds/metcalf/miniconda2/envs/tf2gpu/share/psi4/basis/cc-pvdz.gbs
    atoms 9, 21        entry O          line   198 file /theoryfs2/ds/metcalf/miniconda2/envs/tf2gpu/share/psi4/basis/cc-pvdz.gbs
    atoms 10-19, 22-25 entry H          line    22 file /theoryfs2/ds/metcalf/miniconda2/envs/tf2gpu/share/psi4/basis/cc-pvdz.gbs

         ---------------------------------------------------------
                                   SCF
               by Justin Turney, Rob Parrish, Andy Simmonett
                          and Daniel G. A. Smith
                              RHF Reference
                        1 Threads,    500 MiB Core
         ---------------------------------------------------------

  ==> Geometry <==

    Molecular point group: c1
    Full point group: C1

    Geometry (in Angstrom), charge = 0, multiplicity = 1:

       Center              X                  Y                   Z               Mass
    ------------   -----------------  -----------------  -----------------  -----------------
         C            1.174547250624     0.517652526621     1.471427024631    12.000000000000
         C            2.540547250624    -0.153347473379     1.596427024631    12.000000000000
         C            0.157547250624    -0.292347473379     0.692427024631    12.000000000000
         C           -0.436452749376    -1.419347473379     1.268427024631    12.000000000000
         C           -0.181452749376     0.046652526621    -0.621572975369    12.000000000000
         C           -1.354452749376    -2.197347473379     0.547427024631    12.000000000000
         C           -1.098452749376    -0.722347473379    -1.349572975369    12.000000000000
         C           -1.683452749376    -1.846347473379    -0.764572975369    12.000000000000
         O           -2.569452749376    -2.600347473379    -1.482572975369    15.994914619570
         H            0.777547250624     0.682652526621     2.472427024631     1.007825032230
         H            1.325547250624     1.471652526621     1.053427024631     1.007825032230
         H            2.405547250624    -1.063347473379     2.176427024631     1.007825032230
         H           -0.181452749376    -1.696347473379     2.282427024631     1.007825032230
         H            0.282547250624     0.903652526621    -1.089572975369     1.007825032230
         H           -1.805452749376    -3.064347473379     1.007427024631     1.007825032230
         H           -1.356452749376    -0.451347473379    -2.363572975369     1.007825032230
         H           -2.934452749376    -3.324347473379    -0.965572975369     1.007825032230
         H            3.255607250624     0.517162026621     2.095533724631     1.007825032230
         H            2.923317250624    -0.424688473379     0.601510024631     1.007825032230
         C            1.793547250624     4.354652526621    -0.828572975369    12.000000000000
         O            1.206547250624     3.199652526621    -0.284572975369    15.994914619570
         H            0.250547250624     3.338652526621    -0.247572975369     1.007825032230
         H            1.472547250624     5.231652526621    -0.263572975369     1.007825032230
         H            1.465547250624     4.466652526621    -1.862572975369     1.007825032230
         H            2.891217250624     4.286948526621    -0.805524975369     1.007825032230

  Running in c1 symmetry.

  Rotational constants: A =      0.05235  B =      0.01630  C =      0.01299 [cm^-1]
  Rotational constants: A =   1569.42265  B =    488.54711  C =    389.28264 [MHz]
  Nuclear repulsion =  581.177779341473070

  Charge       = 0
  Multiplicity = 1
  Electrons    = 84
  Nalpha       = 42
  Nbeta        = 42

  ==> Algorithm <==

  SCF Algorithm Type is PK.
  DIIS enabled.
  MOM disabled.
  Fractional occupation disabled.
  Guess Type is SAD.
  Energy threshold   = 1.00e-06
  Density threshold  = 1.00e-10
  Integral threshold = 0.00e+00

  ==> Primary Basis <==

  Basis Set: CC-PVDZ
    Blend: CC-PVDZ
    Number of shells: 108
    Number of basis function: 224
    Number of Cartesian functions: 235
    Spherical Harmonics?: true
    Max angular momentum: 2

  ==> Pre-Iterations <==

   -------------------------------------------------------
    Irrep   Nso     Nmo     Nalpha   Nbeta   Ndocc  Nsocc
   -------------------------------------------------------
     A        224     224       0       0       0       0
   -------------------------------------------------------
    Total     224     224      42      42      42       0
   -------------------------------------------------------

  ==> Integral Setup <==

  Using integral reordering PK algorithm.
  Sizing the integral batches needed.
  Building batch lookup table.
   Calculation information:
      Number of atoms:                  25
      Number of AO shells:             108
      Number of primitives:            312
      Number of atomic orbitals:       235
      Number of basis functions:       224

      Integral cutoff                 1.00e-12
      Number of threads:                 1

	Batch   1 pq = [       0,    9405] index = [             0,44231715] size =     44231715
	Batch   2 pq = [    9405,   13301] index = [      44231715,88464951] size =     44233236
	Batch   3 pq = [   13301,   16290] index = [      88464951,132690195] size =     44225244
	Batch   4 pq = [   16290,   18810] index = [     132690195,176917455] size =     44227260
	Batch   5 pq = [   18810,   21030] index = [     176917455,221140965] size =     44223510
	Batch   6 pq = [   21030,   23037] index = [     221140965,265363203] size =     44222238
	Batch   7 pq = [   23037,   24883] index = [     265363203,309594286] size =     44231083
	Batch   8 pq = [   24883,   25200] index = [     309594286,317532600] size =      7938314
  Task number: 29
  Buffer size: 11059200
  Buffer per thread: 2
  We computed 14676394 shell quartets total.
  Whereas there are 17325441 unique shell quartets.

  ==> DiskJK: Disk-Based J/K Matrices <==

    J tasked:                  Yes
    K tasked:                  Yes
    wK tasked:                  No
    Memory [MiB]:              375
    Schwarz Cutoff:          1E-12

    OpenMP threads:              1

  Minimum eigenvalue in the overlap matrix is 3.2835699871E-04.
  Using Symmetric Orthogonalization.

  SCF Guess: Superposition of Atomic Densities via on-the-fly atomic UHF.

  ==> Iterations <==

                        Total Energy        Delta E     RMS |[F,P]|

   @RHF iter SAD:  -497.40362166265970   -4.97404e+02   0.00000e+00
   @RHF iter   1:  -498.44362368346196   -1.04000e+00   2.93225e-03 DIIS
   @RHF iter   2:  -498.66548049473045   -2.21857e-01   1.33406e-03 DIIS
   @RHF iter   3:  -498.70529119469541   -3.98107e-02   3.09536e-04 DIIS
   @RHF iter   4:  -498.70863036651895   -3.33917e-03   1.19889e-04 DIIS
   @RHF iter   5:  -498.70904836555223   -4.17999e-04   2.24536e-05 DIIS
   @RHF iter   6:  -498.70906923266591   -2.08671e-05   8.57819e-06 DIIS
   @RHF iter   7:  -498.70907203335912   -2.80069e-06   2.53712e-06 DIIS
   @RHF iter   8:  -498.70907237697213   -3.43613e-07   6.84638e-07 DIIS
   @RHF iter   9:  -498.70907240768486   -3.07127e-08   2.00870e-07 DIIS
   @RHF iter  10:  -498.70907240985463   -2.16977e-09   7.52086e-08 DIIS
   @RHF iter  11:  -498.70907241023389   -3.79259e-10   3.12821e-08 DIIS
   @RHF iter  12:  -498.70907241031466   -8.07745e-11   1.52100e-08 DIIS
   @RHF iter  13:  -498.70907241034445   -2.97860e-11   6.81573e-09 DIIS
   @RHF iter  14:  -498.70907241035110   -6.65068e-12   2.24957e-09 DIIS
   @RHF iter  15:  -498.70907241035263   -1.53477e-12   7.49483e-10 DIIS
   @RHF iter  16:  -498.70907241035468   -2.04636e-12   2.50432e-10 DIIS
   @RHF iter  17:  -498.70907241035820   -3.52429e-12   9.16728e-11 DIIS
  Energy and wave function converged.

  ==> Post-Iterations <==

    Orbital Energies [Eh]
    ---------------------

    Doubly Occupied:

       1A    -20.577599     2A    -20.564878     3A    -11.294189
       4A    -11.283375     5A    -11.232861     6A    -11.229179
       7A    -11.228649     8A    -11.224129     9A    -11.222663
      10A    -11.209118    11A    -11.203599    12A     -1.392397
      13A     -1.368800    14A     -1.139747    15A     -1.045870
      16A     -1.006885    17A     -0.966729    18A     -0.929858
      19A     -0.848265    20A     -0.834878    21A     -0.782293
      22A     -0.723679    23A     -0.696175    24A     -0.663424
      25A     -0.635876    26A     -0.629356    27A     -0.612288
      28A     -0.598217    29A     -0.586199    30A     -0.578395
      31A     -0.575367    32A     -0.559058    33A     -0.537559
      34A     -0.509490    35A     -0.504581    36A     -0.487098
      37A     -0.464285    38A     -0.457847    39A     -0.454080
      40A     -0.449933    41A     -0.329128    42A     -0.293715

    Virtual:

      43A      0.134759    44A      0.161304    45A      0.174838
      46A      0.184896    47A      0.199857    48A      0.213974
      49A      0.226312    50A      0.235197    51A      0.254809
      52A      0.258151    53A      0.260679    54A      0.270635
      55A      0.286755    56A      0.306957    57A      0.322294
      58A      0.338625    59A      0.358607    60A      0.384641
      61A      0.390590    62A      0.428120    63A      0.432408
      64A      0.478249    65A      0.496743    66A      0.503525
      67A      0.523866    68A      0.610413    69A      0.615256
      70A      0.623073    71A      0.626170    72A      0.639553
      73A      0.659794    74A      0.667334    75A      0.683846
      76A      0.700314    77A      0.717900    78A      0.722769
      79A      0.733200    80A      0.742931    81A      0.750583
      82A      0.754834    83A      0.776179    84A      0.791832
      85A      0.809839    86A      0.822397    87A      0.842124
      88A      0.849226    89A      0.857253    90A      0.867824
      91A      0.875455    92A      0.883083    93A      0.892907
      94A      0.896100    95A      0.901118    96A      0.906074
      97A      0.915181    98A      0.917126    99A      0.945466
     100A      0.950959   101A      0.960528   102A      0.973490
     103A      0.990546   104A      1.026148   105A      1.028511
     106A      1.055480   107A      1.088590   108A      1.119970
     109A      1.139840   110A      1.149152   111A      1.153386
     112A      1.161466   113A      1.165397   114A      1.173118
     115A      1.199984   116A      1.224402   117A      1.251404
     118A      1.270808   119A      1.289282   120A      1.296870
     121A      1.307670   122A      1.316574   123A      1.341284
     124A      1.361681   125A      1.372207   126A      1.379378
     127A      1.416641   128A      1.436089   129A      1.458381
     130A      1.498118   131A      1.508786   132A      1.550890
     133A      1.565926   134A      1.607741   135A      1.625019
     136A      1.630192   137A      1.643047   138A      1.664873
     139A      1.668240   140A      1.694818   141A      1.703701
     142A      1.730923   143A      1.754601   144A      1.778915
     145A      1.803477   146A      1.843665   147A      1.851520
     148A      1.855968   149A      1.884335   150A      1.888918
     151A      1.895322   152A      1.903771   153A      1.907793
     154A      1.910188   155A      1.918138   156A      1.926803
     157A      1.940527   158A      1.949759   159A      1.955703
     160A      1.968509   161A      1.981537   162A      2.006356
     163A      2.014045   164A      2.019552   165A      2.035368
     166A      2.044513   167A      2.063955   168A      2.072123
     169A      2.077957   170A      2.105401   171A      2.126633
     172A      2.137245   173A      2.149408   174A      2.174992
     175A      2.194604   176A      2.197346   177A      2.257797
     178A      2.275085   179A      2.279334   180A      2.305306
     181A      2.317880   182A      2.332550   183A      2.340604
     184A      2.354644   185A      2.361465   186A      2.370599
     187A      2.454045   188A      2.461079   189A      2.475224
     190A      2.494644   191A      2.518463   192A      2.521897
     193A      2.541247   194A      2.572921   195A      2.589496
     196A      2.641224   197A      2.678385   198A      2.738509
     199A      2.753485   200A      2.756496   201A      2.766777
     202A      2.779910   203A      2.813802   204A      2.821741
     205A      2.873901   206A      2.902331   207A      2.944902
     208A      2.963783   209A      3.005823   210A      3.034380
     211A      3.092343   212A      3.212682   213A      3.251775
     214A      3.290875   215A      3.295047   216A      3.351505
     217A      3.380225   218A      3.468903   219A      3.570932
     220A      3.591854   221A      3.670071   222A      3.965354
     223A      4.084195   224A      4.195094

    Final Occupation by Irrep:
              A
    DOCC [    42 ]

  @RHF Final Energy:  -498.70907241035820

   => Energetics <=

    Nuclear Repulsion Energy =            581.1777793414730695
    One-Electron Energy =               -1831.9102793677091086
    Two-Electron Energy =                 752.0234276158778357
    Total Energy =                       -498.7090724103582033

Computation Completed

Properties will be evaluated at   0.000000,   0.000000,   0.000000 [a0]

Properties computed using the SCF density matrix

  Nuclear Dipole Moment: [e a0]
     X:    10.0920      Y:    10.1975      Z:     3.8269

  Electronic Dipole Moment: [e a0]
     X:   -10.2680      Y:    -9.5236      Z:    -3.5841

  Dipole Moment: [e a0]
     X:    -0.1759      Y:     0.6739      Z:     0.2428     Total:     0.7376

  Dipole Moment: [D]
     X:    -0.4472      Y:     1.7129      Z:     0.6171     Total:     1.8748

*** tstop() called on ds3 at Sun Apr 26 18:08:49 2020
Module time:
	user time   =     117.04 seconds =       1.95 minutes
	system time =      49.81 seconds =       0.83 minutes
	total time  =        160 seconds =       2.67 minutes
Total time:
	user time   =     117.04 seconds =       1.95 minutes
	system time =      49.81 seconds =       0.83 minutes
	total time  =        160 seconds =       2.67 minutes
                                     G D M A

                                 by Anthony Stone

                           version 2.2.06, 22 June 2011

               Distributed Multipoles from Gaussian wavefunctions

Starting at 18:8:50 on 26 Apr 2020

Using SCF density matrix from file ./SSI/SSI-139TYR-148SER-1-dimer.test.19235.fchk

                         Distributed Multipole Analysis

Standard DMA

Positions and radii in angstrom
Multipole moments in atomic units, ea_0^k for rank k

C          x =  1.174547  y =  0.517653  z =  1.471427 angstrom
           Maximum rank =  0   Radius =  0.650 angstrom
                   Q00  =  -0.031810

C          x =  2.540547  y = -0.153347  z =  1.596427 angstrom
           Maximum rank =  0   Radius =  0.650 angstrom
                   Q00  =  -0.243966

C          x =  0.157547  y = -0.292347  z =  0.692427 angstrom
           Maximum rank =  0   Radius =  0.650 angstrom
                   Q00  =  -0.134003

C          x = -0.436453  y = -1.419347  z =  1.268427 angstrom
           Maximum rank =  0   Radius =  0.650 angstrom
                   Q00  =  -0.038766

C          x = -0.181453  y =  0.046653  z = -0.621573 angstrom
           Maximum rank =  0   Radius =  0.650 angstrom
                   Q00  =   0.045896

C          x = -1.354453  y = -2.197347  z =  0.547427 angstrom
           Maximum rank =  0   Radius =  0.650 angstrom
                   Q00  =  -0.196608

C          x = -1.098453  y = -0.722347  z = -1.349573 angstrom
           Maximum rank =  0   Radius =  0.650 angstrom
                   Q00  =  -0.116490

C          x = -1.683453  y = -1.846347  z = -0.764573 angstrom
           Maximum rank =  0   Radius =  0.650 angstrom
                   Q00  =   0.323531

O          x = -2.569453  y = -2.600347  z = -1.482573 angstrom
           Maximum rank =  0   Radius =  0.650 angstrom
                   Q00  =  -0.676481

H          x =  0.777547  y =  0.682653  z =  2.472427 angstrom
           Maximum rank =  0   Radius =  0.325 angstrom
                   Q00  =   0.047372

H          x =  1.325547  y =  1.471653  z =  1.053427 angstrom
           Maximum rank =  0   Radius =  0.325 angstrom
                   Q00  =   0.091611

H          x =  2.405547  y = -1.063347  z =  2.176427 angstrom
           Maximum rank =  0   Radius =  0.325 angstrom
                   Q00  =   0.068870

H          x = -0.181453  y = -1.696347  z =  2.282427 angstrom
           Maximum rank =  0   Radius =  0.325 angstrom
                   Q00  =   0.067112

H          x =  0.282547  y =  0.903653  z = -1.089573 angstrom
           Maximum rank =  0   Radius =  0.325 angstrom
                   Q00  =   0.056555

H          x = -1.805453  y = -3.064347  z =  1.007427 angstrom
           Maximum rank =  0   Radius =  0.325 angstrom
                   Q00  =   0.070071

H          x = -1.356453  y = -0.451347  z = -2.363573 angstrom
           Maximum rank =  0   Radius =  0.325 angstrom
                   Q00  =   0.076006

H          x = -2.934453  y = -3.324347  z = -0.965573 angstrom
           Maximum rank =  0   Radius =  0.325 angstrom
                   Q00  =   0.404526

H          x =  3.255607  y =  0.517162  z =  2.095534 angstrom
           Maximum rank =  0   Radius =  0.325 angstrom
                   Q00  =   0.079564

H          x =  2.923317  y = -0.424688  z =  0.601510 angstrom
           Maximum rank =  0   Radius =  0.325 angstrom
                   Q00  =   0.081014

C          x =  1.793547  y =  4.354653  z = -0.828573 angstrom
           Maximum rank =  0   Radius =  0.650 angstrom
                   Q00  =  -0.037844

O          x =  1.206547  y =  3.199653  z = -0.284573 angstrom
           Maximum rank =  0   Radius =  0.650 angstrom
                   Q00  =  -0.570271

H          x =  0.250547  y =  3.338653  z = -0.247573 angstrom
           Maximum rank =  0   Radius =  0.325 angstrom
                   Q00  =   0.381587

H          x =  1.472547  y =  5.231653  z = -0.263573 angstrom
           Maximum rank =  0   Radius =  0.325 angstrom
                   Q00  =   0.065744

H          x =  1.465547  y =  4.466653  z = -1.862573 angstrom
           Maximum rank =  0   Radius =  0.325 angstrom
                   Q00  =   0.069534

H          x =  2.891217  y =  4.286949  z = -0.805525 angstrom
           Maximum rank =  0   Radius =  0.325 angstrom
                   Q00  =   0.117247

Total multipoles referred to origin at
           x =   0.000000,  y =    0.000000,  z =    0.000000 angstrom
                   Q00  =  -0.000000

Finished at 18:8:50 on 26 Apr 2020

  DMA results are available in the Python driver through the
	  variable('DMA DISTRIBUTED MULTIPOLES')
  and
	  variable('DMA TOTAL MULTIPOLES')
  commands.

    Psi4 stopped on: Sunday, 26 April 2020 06:08PM
    Psi4 wall time for execution: 0:02:40.33

*** Psi4 exiting successfully. Buy a developer a beer!
