                               Psi4 1.3.2 release

  ==> Input File <==

--------------------------------------------------------------------------
import numpy as np
set {scf_type pk
basis cc-pvdz
d_convergence 10
gdma_switch   0
gdma_limit    0
gdma_origin   [ 0.0,  0.0,  0.0 ]
}
molecule test {
    units Angstrom
    0 1
    --
    0 1
    C                0.802124043419474     1.583663661594677     2.882770887383623
    C               -0.458875956580526     1.002663661594677     3.519770887383622
    H                0.765124043419474     1.501663661594677     1.795770887383623
    H                0.898124043419474     2.638663661594677     3.149770887383622
    H                1.682124043419474     1.053663661594677     3.250770887383623
    H               -0.406875956580526     1.166663661594677     4.597770887383623
    H               -0.528925956580526    -0.075956338405323     3.315650887383622
    H               -1.353795956580526     1.525483661594677     3.151280887383622
    C               -1.803875956580526     0.559663661594677    -2.053229112616377
    C                0.841124043419474    -0.810336338405323     0.013770887383622
    C               -0.635875956580526    -0.192336338405323    -1.492229112616377
    C                0.297124043419474    -0.958336338405323    -2.113229112616378
    N               -0.281875956580526    -0.118336338405323    -0.159229112616378
    N                1.211124043419474    -1.329336338405323    -1.151229112616377
    H                1.395124043419474    -0.907336338405323     0.938770887383622
    H                2.047124043419474    -1.883336338405323    -1.302229112616377
    H                0.323124043419474    -1.196336338405323    -3.166229112616377
    H               -2.652875956580526     0.364663661594677    -1.402229112616378
    H               -2.047875956580526     0.173663661594677    -3.044229112616378
    H               -1.621905956580526     1.643593661594677    -2.097819112616377

}
e, wfn = energy('scf', return_wfn=True)
gdma(wfn)
dmavals = variable('DMA DISTRIBUTED MULTIPOLES')
charges = np.array(dmavals)
print(charges)
np.save('SSI-019ALA-055HIE-1-dimer.npy', np.array(charges))--------------------------------------------------------------------------

*** tstart() called on ds3
*** at Tue Apr 28 11:25:23 2020

   => Loading Basis Set <=

    Name: CC-PVDZ
    Role: ORBITAL
    Keyword: BASIS
    atoms 1-2, 9-12  entry C          line   138 file /theoryfs2/ds/metcalf/miniconda2/envs/tf2gpu/share/psi4/basis/cc-pvdz.gbs
    atoms 3-8, 15-20 entry H          line    22 file /theoryfs2/ds/metcalf/miniconda2/envs/tf2gpu/share/psi4/basis/cc-pvdz.gbs
    atoms 13-14      entry N          line   168 file /theoryfs2/ds/metcalf/miniconda2/envs/tf2gpu/share/psi4/basis/cc-pvdz.gbs

         ---------------------------------------------------------
                                   SCF
               by Justin Turney, Rob Parrish, Andy Simmonett
                          and Daniel G. A. Smith
                              RHF Reference
                        1 Threads,    500 MiB Core
         ---------------------------------------------------------

  ==> Geometry <==

    Molecular point group: c1
    Full point group: C1

    Geometry (in Angstrom), charge = 0, multiplicity = 1:

       Center              X                  Y                   Z               Mass
    ------------   -----------------  -----------------  -----------------  -----------------
         C            0.802124043419     1.583663661595     2.882770887384    12.000000000000
         C           -0.458875956581     1.002663661595     3.519770887384    12.000000000000
         H            0.765124043419     1.501663661595     1.795770887384     1.007825032230
         H            0.898124043419     2.638663661595     3.149770887384     1.007825032230
         H            1.682124043419     1.053663661595     3.250770887384     1.007825032230
         H           -0.406875956581     1.166663661595     4.597770887384     1.007825032230
         H           -0.528925956581    -0.075956338405     3.315650887384     1.007825032230
         H           -1.353795956581     1.525483661595     3.151280887384     1.007825032230
         C           -1.803875956581     0.559663661595    -2.053229112616    12.000000000000
         C            0.841124043419    -0.810336338405     0.013770887384    12.000000000000
         C           -0.635875956581    -0.192336338405    -1.492229112616    12.000000000000
         C            0.297124043419    -0.958336338405    -2.113229112616    12.000000000000
         N           -0.281875956581    -0.118336338405    -0.159229112616    14.003074004430
         N            1.211124043419    -1.329336338405    -1.151229112616    14.003074004430
         H            1.395124043419    -0.907336338405     0.938770887384     1.007825032230
         H            2.047124043419    -1.883336338405    -1.302229112616     1.007825032230
         H            0.323124043419    -1.196336338405    -3.166229112616     1.007825032230
         H           -2.652875956581     0.364663661595    -1.402229112616     1.007825032230
         H           -2.047875956581     0.173663661595    -3.044229112616     1.007825032230
         H           -1.621905956581     1.643593661595    -2.097819112616     1.007825032230

  Running in c1 symmetry.

  Rotational constants: A =      0.10190  B =      0.02940  C =      0.02417 [cm^-1]
  Rotational constants: A =   3054.93610  B =    881.43048  C =    724.47890 [MHz]
  Nuclear repulsion =  353.597565031779709

  Charge       = 0
  Multiplicity = 1
  Electrons    = 62
  Nalpha       = 31
  Nbeta        = 31

  ==> Algorithm <==

  SCF Algorithm Type is PK.
  DIIS enabled.
  MOM disabled.
  Fractional occupation disabled.
  Guess Type is SAD.
  Energy threshold   = 1.00e-06
  Density threshold  = 1.00e-10
  Integral threshold = 0.00e+00

  ==> Primary Basis <==

  Basis Set: CC-PVDZ
    Blend: CC-PVDZ
    Number of shells: 84
    Number of basis function: 172
    Number of Cartesian functions: 180
    Spherical Harmonics?: true
    Max angular momentum: 2

  ==> Pre-Iterations <==

   -------------------------------------------------------
    Irrep   Nso     Nmo     Nalpha   Nbeta   Ndocc  Nsocc
   -------------------------------------------------------
     A        172     172       0       0       0       0
   -------------------------------------------------------
    Total     172     172      31      31      31       0
   -------------------------------------------------------

  ==> Integral Setup <==

  Using integral reordering PK algorithm.
  Sizing the integral batches needed.
  Building batch lookup table.
   Calculation information:
      Number of atoms:                  20
      Number of AO shells:              84
      Number of primitives:            236
      Number of atomic orbitals:       180
      Number of basis functions:       172

      Integral cutoff                 1.00e-12
      Number of threads:                 1

	Batch   1 pq = [       0,    9405] index = [             0,44231715] size =     44231715
	Batch   2 pq = [    9405,   13301] index = [      44231715,88464951] size =     44233236
	Batch   3 pq = [   13301,   14878] index = [      88464951,110684881] size =     22219930
  Task number: 11
  Buffer size: 11059200
  Buffer per thread: 2
  We computed 5223629 shell quartets total.
  Whereas there are 6374235 unique shell quartets.

  ==> DiskJK: Disk-Based J/K Matrices <==

    J tasked:                  Yes
    K tasked:                  Yes
    wK tasked:                  No
    Memory [MiB]:              375
    Schwarz Cutoff:          1E-12

    OpenMP threads:              1

  Minimum eigenvalue in the overlap matrix is 1.2042109543E-03.
  Using Symmetric Orthogonalization.

  SCF Guess: Superposition of Atomic Densities via on-the-fly atomic UHF.

  ==> Iterations <==

                        Total Energy        Delta E     RMS |[F,P]|

   @RHF iter SAD:  -342.20107585985153   -3.42201e+02   0.00000e+00
   @RHF iter   1:  -342.88940916206894   -6.88333e-01   3.36613e-03 DIIS
   @RHF iter   2:  -343.06144912315045   -1.72040e-01   1.71899e-03 DIIS
   @RHF iter   3:  -343.10292612506868   -4.14770e-02   4.40127e-04 DIIS
   @RHF iter   4:  -343.10645414548026   -3.52802e-03   1.83461e-04 DIIS
   @RHF iter   5:  -343.10702702131579   -5.72876e-04   2.63344e-05 DIIS
   @RHF iter   6:  -343.10704754503701   -2.05237e-05   1.14668e-05 DIIS
   @RHF iter   7:  -343.10705090664641   -3.36161e-06   3.97833e-06 DIIS
   @RHF iter   8:  -343.10705163164778   -7.25001e-07   1.60931e-06 DIIS
   @RHF iter   9:  -343.10705178730143   -1.55654e-07   5.69029e-07 DIIS
   @RHF iter  10:  -343.10705180290762   -1.56062e-08   1.76346e-07 DIIS
   @RHF iter  11:  -343.10705180460792   -1.70030e-09   7.86876e-08 DIIS
   @RHF iter  12:  -343.10705180485297   -2.45052e-10   3.10363e-08 DIIS
   @RHF iter  13:  -343.10705180489788   -4.49063e-11   8.74139e-09 DIIS
   @RHF iter  14:  -343.10705180490095   -3.06954e-12   3.23898e-09 DIIS
   @RHF iter  15:  -343.10705180490106   -1.13687e-13   1.30068e-09 DIIS
   @RHF iter  16:  -343.10705180490436   -3.29692e-12   4.29058e-10 DIIS
   @RHF iter  17:  -343.10705180490226    2.10321e-12   1.26322e-10 DIIS
   @RHF iter  18:  -343.10705180490174    5.11591e-13   4.61636e-11 DIIS
  Energy and wave function converged.

  ==> Post-Iterations <==

    Orbital Energies [Eh]
    ---------------------

    Doubly Occupied:

       1A    -15.622592     2A    -15.530963     3A    -11.294936
       4A    -11.251407     5A    -11.242732     6A    -11.224466
       7A    -11.204761     8A    -11.201743     9A     -1.342815
      10A     -1.154961    11A     -1.032421    12A     -1.002943
      13A     -0.942507    14A     -0.821933    15A     -0.819546
      16A     -0.762906    17A     -0.742498    18A     -0.612223
      19A     -0.605302    20A     -0.598307    21A     -0.583542
      22A     -0.580215    23A     -0.554369    24A     -0.539719
      25A     -0.523683    26A     -0.486002    27A     -0.472592
      28A     -0.468907    29A     -0.412403    30A     -0.379076
      31A     -0.311308

    Virtual:

      32A      0.171900    33A      0.186503    34A      0.191999
      35A      0.199533    36A      0.223656    37A      0.234105
      38A      0.237878    39A      0.254041    40A      0.274831
      41A      0.279862    42A      0.287528    43A      0.298046
      44A      0.303268    45A      0.319688    46A      0.378030
      47A      0.401361    48A      0.409145    49A      0.428269
      50A      0.473592    51A      0.486646    52A      0.594719
      53A      0.604018    54A      0.618251    55A      0.624544
      56A      0.639175    57A      0.646132    58A      0.663438
      59A      0.679950    60A      0.695719    61A      0.707459
      62A      0.734659    63A      0.756894    64A      0.772155
      65A      0.794260    66A      0.833164    67A      0.840257
      68A      0.855409    69A      0.860508    70A      0.881009
      71A      0.893469    72A      0.898222    73A      0.907243
      74A      0.908479    75A      0.917610    76A      0.929736
      77A      0.938502    78A      0.961996    79A      0.973992
      80A      0.981395    81A      0.992754    82A      1.031050
      83A      1.061600    84A      1.090164    85A      1.129224
      86A      1.134473    87A      1.143572    88A      1.144947
      89A      1.165916    90A      1.199629    91A      1.248022
      92A      1.266252    93A      1.283894    94A      1.310627
      95A      1.332050    96A      1.342330    97A      1.424994
      98A      1.436947    99A      1.477395   100A      1.489815
     101A      1.499362   102A      1.520420   103A      1.559275
     104A      1.598394   105A      1.608929   106A      1.626966
     107A      1.687399   108A      1.690751   109A      1.699818
     110A      1.709651   111A      1.792098   112A      1.813657
     113A      1.822266   114A      1.854177   115A      1.887438
     116A      1.891993   117A      1.898166   118A      1.905123
     119A      1.918883   120A      1.941290   121A      1.956983
     122A      1.962294   123A      1.966064   124A      1.969239
     125A      1.974571   126A      1.984475   127A      1.988370
     128A      2.004679   129A      2.046873   130A      2.074517
     131A      2.107185   132A      2.123312   133A      2.128588
     134A      2.145989   135A      2.176301   136A      2.211339
     137A      2.229205   138A      2.297490   139A      2.311578
     140A      2.331110   141A      2.348098   142A      2.382668
     143A      2.435028   144A      2.444597   145A      2.465445
     146A      2.478939   147A      2.508503   148A      2.547810
     149A      2.577835   150A      2.585370   151A      2.610959
     152A      2.692265   153A      2.730283   154A      2.751274
     155A      2.775275   156A      2.784027   157A      2.793335
     158A      2.808263   159A      2.830920   160A      2.859096
     161A      2.867160   162A      2.871641   163A      2.892688
     164A      2.916779   165A      2.957397   166A      2.964659
     167A      2.980727   168A      3.085080   169A      3.158390
     170A      3.244070   171A      3.472580   172A      3.794103

    Final Occupation by Irrep:
              A
    DOCC [    31 ]

  @RHF Final Energy:  -343.10705180490174

   => Energetics <=

    Nuclear Repulsion Energy =            353.5975650317797090
    One-Electron Energy =               -1164.7616773543763884
    Two-Electron Energy =                 468.0570605176949357
    Total Energy =                       -343.1070518049017437

Computation Completed

Properties will be evaluated at   0.000000,   0.000000,   0.000000 [a0]

Properties computed using the SCF density matrix

  Nuclear Dipole Moment: [e a0]
     X:    -1.4103      Y:     5.6338      Z:     8.6164

  Electronic Dipole Moment: [e a0]
     X:     2.3594      Y:    -6.3934      Z:    -9.3580

  Dipole Moment: [e a0]
     X:     0.9491      Y:    -0.7596      Z:    -0.7416     Total:     1.4240

  Dipole Moment: [D]
     X:     2.4124      Y:    -1.9307      Z:    -1.8850     Total:     3.6194

*** tstop() called on ds3 at Tue Apr 28 11:26:19 2020
Module time:
	user time   =      39.05 seconds =       0.65 minutes
	system time =      18.39 seconds =       0.31 minutes
	total time  =         56 seconds =       0.93 minutes
Total time:
	user time   =      39.05 seconds =       0.65 minutes
	system time =      18.39 seconds =       0.31 minutes
	total time  =         56 seconds =       0.93 minutes
                                     G D M A

                                 by Anthony Stone

                           version 2.2.06, 22 June 2011

               Distributed Multipoles from Gaussian wavefunctions

Starting at 11:26:19 on 28 Apr 2020

Using SCF density matrix from file ./SSI/SSI-019ALA-055HIE-1-dimer.test.13066.fchk

                         Distributed Multipole Analysis

Standard DMA

Positions and radii in angstrom
Multipole moments in atomic units, ea_0^k for rank k

C          x =  0.802124  y =  1.583664  z =  2.882771 angstrom
           Maximum rank =  0   Radius =  0.650 angstrom
                   Q00  =  -0.230720

C          x = -0.458876  y =  1.002664  z =  3.519771 angstrom
           Maximum rank =  0   Radius =  0.650 angstrom
                   Q00  =  -0.235826

H          x =  0.765124  y =  1.501664  z =  1.795771 angstrom
           Maximum rank =  0   Radius =  0.325 angstrom
                   Q00  =   0.096104

H          x =  0.898124  y =  2.638664  z =  3.149771 angstrom
           Maximum rank =  0   Radius =  0.325 angstrom
                   Q00  =   0.073018

H          x =  1.682124  y =  1.053664  z =  3.250771 angstrom
           Maximum rank =  0   Radius =  0.325 angstrom
                   Q00  =   0.061382

H          x = -0.406876  y =  1.166664  z =  4.597771 angstrom
           Maximum rank =  0   Radius =  0.325 angstrom
                   Q00  =   0.064030

H          x = -0.528926  y = -0.075956  z =  3.315651 angstrom
           Maximum rank =  0   Radius =  0.325 angstrom
                   Q00  =   0.079927

H          x = -1.353796  y =  1.525484  z =  3.151281 angstrom
           Maximum rank =  0   Radius =  0.325 angstrom
                   Q00  =   0.085566

C          x = -1.803876  y =  0.559664  z = -2.053229 angstrom
           Maximum rank =  0   Radius =  0.650 angstrom
                   Q00  =  -0.192169

C          x =  0.841124  y = -0.810336  z =  0.013771 angstrom
           Maximum rank =  0   Radius =  0.650 angstrom
                   Q00  =   0.461609

C          x = -0.635876  y = -0.192336  z = -1.492229 angstrom
           Maximum rank =  0   Radius =  0.650 angstrom
                   Q00  =   0.227476

C          x =  0.297124  y = -0.958336  z = -2.113229 angstrom
           Maximum rank =  0   Radius =  0.650 angstrom
                   Q00  =   0.000094

N          x = -0.281876  y = -0.118336  z = -0.159229 angstrom
           Maximum rank =  0   Radius =  0.650 angstrom
                   Q00  =  -0.774481

N          x =  1.211124  y = -1.329336  z = -1.151229 angstrom
           Maximum rank =  0   Radius =  0.650 angstrom
                   Q00  =  -0.478737

H          x =  1.395124  y = -0.907336  z =  0.938771 angstrom
           Maximum rank =  0   Radius =  0.325 angstrom
                   Q00  =   0.124675

H          x =  2.047124  y = -1.883336  z = -1.302229 angstrom
           Maximum rank =  0   Radius =  0.325 angstrom
                   Q00  =   0.220065

H          x =  0.323124  y = -1.196336  z = -3.166229 angstrom
           Maximum rank =  0   Radius =  0.325 angstrom
                   Q00  =   0.103095

H          x = -2.652876  y =  0.364664  z = -1.402229 angstrom
           Maximum rank =  0   Radius =  0.325 angstrom
                   Q00  =   0.114575

H          x = -2.047876  y =  0.173664  z = -3.044229 angstrom
           Maximum rank =  0   Radius =  0.325 angstrom
                   Q00  =   0.091666

H          x = -1.621906  y =  1.643594  z = -2.097819 angstrom
           Maximum rank =  0   Radius =  0.325 angstrom
                   Q00  =   0.108651

Total multipoles referred to origin at
           x =   0.000000,  y =    0.000000,  z =    0.000000 angstrom
                   Q00  =  -0.000000

Finished at 11:26:19 on 28 Apr 2020

  DMA results are available in the Python driver through the
	  variable('DMA DISTRIBUTED MULTIPOLES')
  and
	  variable('DMA TOTAL MULTIPOLES')
  commands.

    Psi4 stopped on: Tuesday, 28 April 2020 11:26AM
    Psi4 wall time for execution: 0:00:55.74

*** Psi4 exiting successfully. Buy a developer a beer!
