                               Psi4 1.3.2 release

  ==> Input File <==

--------------------------------------------------------------------------
import numpy as np
set {scf_type pk
basis cc-pvdz
d_convergence 10
gdma_switch   0
gdma_limit    0
gdma_origin   [ 0.0,  0.0,  0.0 ]
}
molecule test {
    units Angstrom
    0 1
    --
    0 1
    C                1.054863637948705    -0.877221118956342     0.541008796631030
    C                2.438863637948705    -0.672221118956342     1.134008796631030
    C                0.415863637948705    -2.269221118956342     0.608008796631030
    H                0.382863637948705    -0.196221118956342     1.065008796631030
    H                1.077863637948705    -0.563221118956342    -0.504991203368970
    H                2.421863637948706    -1.066221118956342     2.151008796631030
    H                0.982863637948705    -2.964221118956342    -0.010991203368970
    H                2.649733637948705     0.406958881043658     1.164128796631030
    H                3.219603637948705    -1.206531118956342     0.572798796631030
    H                0.382473637948705    -2.650261118956342     1.639358796631030
    H               -0.616586362051295    -2.210101118956342     0.233098796631030
    C               -1.410136362051295     1.308778881043658    -1.023991203368970
    C               -2.414136362051295     2.445778881043658    -1.218991203368970
    H               -0.962136362051295     1.375778881043658    -0.032991203368970
    H               -1.929136362051295     0.355778881043658    -1.119991203368970
    H               -0.630136362051295     1.341778881043658    -1.784991203368970
    H               -2.797136362051295     2.375778881043658    -2.236991203368970
    H               -1.932726362051295     3.425148881043659    -1.080831203368970
    H               -3.265276362051295     2.338848881043658    -0.530421203368970

}
e, wfn = energy('scf', return_wfn=True)
gdma(wfn)
dmavals = variable('DMA DISTRIBUTED MULTIPOLES')
charges = np.array(dmavals)
print(charges)
np.save('SSI-098LEU-144VAL-2-dimer.npy', np.array(charges))--------------------------------------------------------------------------

*** tstart() called on ds3
*** at Sun Apr 26 17:35:56 2020

   => Loading Basis Set <=

    Name: CC-PVDZ
    Role: ORBITAL
    Keyword: BASIS
    atoms 1-3, 12-13  entry C          line   138 file /theoryfs2/ds/metcalf/miniconda2/envs/tf2gpu/share/psi4/basis/cc-pvdz.gbs
    atoms 4-11, 14-19 entry H          line    22 file /theoryfs2/ds/metcalf/miniconda2/envs/tf2gpu/share/psi4/basis/cc-pvdz.gbs

         ---------------------------------------------------------
                                   SCF
               by Justin Turney, Rob Parrish, Andy Simmonett
                          and Daniel G. A. Smith
                              RHF Reference
                        1 Threads,    500 MiB Core
         ---------------------------------------------------------

  ==> Geometry <==

    Molecular point group: c1
    Full point group: C1

    Geometry (in Angstrom), charge = 0, multiplicity = 1:

       Center              X                  Y                   Z               Mass
    ------------   -----------------  -----------------  -----------------  -----------------
         C            1.054863637949    -0.877221118956     0.541008796631    12.000000000000
         C            2.438863637949    -0.672221118956     1.134008796631    12.000000000000
         C            0.415863637949    -2.269221118956     0.608008796631    12.000000000000
         H            0.382863637949    -0.196221118956     1.065008796631     1.007825032230
         H            1.077863637949    -0.563221118956    -0.504991203369     1.007825032230
         H            2.421863637949    -1.066221118956     2.151008796631     1.007825032230
         H            0.982863637949    -2.964221118956    -0.010991203369     1.007825032230
         H            2.649733637949     0.406958881044     1.164128796631     1.007825032230
         H            3.219603637949    -1.206531118956     0.572798796631     1.007825032230
         H            0.382473637949    -2.650261118956     1.639358796631     1.007825032230
         H           -0.616586362051    -2.210101118956     0.233098796631     1.007825032230
         C           -1.410136362051     1.308778881044    -1.023991203369    12.000000000000
         C           -2.414136362051     2.445778881044    -1.218991203369    12.000000000000
         H           -0.962136362051     1.375778881044    -0.032991203369     1.007825032230
         H           -1.929136362051     0.355778881044    -1.119991203369     1.007825032230
         H           -0.630136362051     1.341778881044    -1.784991203369     1.007825032230
         H           -2.797136362051     2.375778881044    -2.236991203369     1.007825032230
         H           -1.932726362051     3.425148881044    -1.080831203369     1.007825032230
         H           -3.265276362051     2.338848881044    -0.530421203369     1.007825032230

  Running in c1 symmetry.

  Rotational constants: A =      0.24344  B =      0.03593  C =      0.03241 [cm^-1]
  Rotational constants: A =   7298.19851  B =   1077.17351  C =    971.56975 [MHz]
  Nuclear repulsion =  175.537206390034356

  Charge       = 0
  Multiplicity = 1
  Electrons    = 44
  Nalpha       = 22
  Nbeta        = 22

  ==> Algorithm <==

  SCF Algorithm Type is PK.
  DIIS enabled.
  MOM disabled.
  Fractional occupation disabled.
  Guess Type is SAD.
  Energy threshold   = 1.00e-06
  Density threshold  = 1.00e-10
  Integral threshold = 0.00e+00

  ==> Primary Basis <==

  Basis Set: CC-PVDZ
    Blend: CC-PVDZ
    Number of shells: 72
    Number of basis function: 140
    Number of Cartesian functions: 145
    Spherical Harmonics?: true
    Max angular momentum: 2

  ==> Pre-Iterations <==

   -------------------------------------------------------
    Irrep   Nso     Nmo     Nalpha   Nbeta   Ndocc  Nsocc
   -------------------------------------------------------
     A        140     140       0       0       0       0
   -------------------------------------------------------
    Total     140     140      22      22      22       0
   -------------------------------------------------------

  ==> Integral Setup <==

  Using integral reordering PK algorithm.
  Sizing the integral batches needed.
  Building batch lookup table.
   Calculation information:
      Number of atoms:                  19
      Number of AO shells:              72
      Number of primitives:            180
      Number of atomic orbitals:       145
      Number of basis functions:       140

      Integral cutoff                 1.00e-12
      Number of threads:                 1

	Batch   1 pq = [       0,    9405] index = [             0,44231715] size =     44231715
	Batch   2 pq = [    9405,    9870] index = [      44231715,48713385] size =      4481670
  Task number: 5
  Buffer size: 11059200
  Buffer per thread: 2
  We computed 2722210 shell quartets total.
  Whereas there are 3454506 unique shell quartets.

  ==> DiskJK: Disk-Based J/K Matrices <==

    J tasked:                  Yes
    K tasked:                  Yes
    wK tasked:                  No
    Memory [MiB]:              375
    Schwarz Cutoff:          1E-12

    OpenMP threads:              1

  Minimum eigenvalue in the overlap matrix is 5.3170457163E-03.
  Using Symmetric Orthogonalization.

  SCF Guess: Superposition of Atomic Densities via on-the-fly atomic UHF.

  ==> Iterations <==

                        Total Energy        Delta E     RMS |[F,P]|

   @RHF iter SAD:  -196.34639439635708   -1.96346e+02   0.00000e+00
   @RHF iter   1:  -197.31098754109749   -9.64593e-01   3.79550e-03 DIIS
   @RHF iter   2:  -197.47113995591496   -1.60152e-01   1.63021e-03 DIIS
   @RHF iter   3:  -197.49927020102737   -2.81302e-02   3.25776e-04 DIIS
   @RHF iter   4:  -197.50149864740828   -2.22845e-03   5.01944e-05 DIIS
   @RHF iter   5:  -197.50153917357704   -4.05262e-05   1.50027e-05 DIIS
   @RHF iter   6:  -197.50154265935691   -3.48578e-06   2.46950e-06 DIIS
   @RHF iter   7:  -197.50154276962161   -1.10265e-07   4.90118e-07 DIIS
   @RHF iter   8:  -197.50154277477222   -5.15061e-09   1.36079e-07 DIIS
   @RHF iter   9:  -197.50154277514687   -3.74655e-10   4.20113e-08 DIIS
   @RHF iter  10:  -197.50154277518902   -4.21494e-11   8.45863e-09 DIIS
   @RHF iter  11:  -197.50154277519053   -1.50635e-12   1.52477e-09 DIIS
   @RHF iter  12:  -197.50154277519133   -7.95808e-13   2.70169e-10 DIIS
   @RHF iter  13:  -197.50154277519084    4.83169e-13   5.14086e-11 DIIS
  Energy and wave function converged.

  ==> Post-Iterations <==

    Orbital Energies [Eh]
    ---------------------

    Doubly Occupied:

       1A    -11.218949     2A    -11.217939     3A    -11.217438
       4A    -11.216891     5A    -11.216257     6A     -1.050993
       7A     -1.017793     8A     -0.927301     9A     -0.836744
      10A     -0.791782    11A     -0.623561    12A     -0.599195
      13A     -0.596528    14A     -0.591416    15A     -0.552704
      16A     -0.532927    17A     -0.500995    18A     -0.487336
      19A     -0.485235    20A     -0.476269    21A     -0.462733
      22A     -0.458357

    Virtual:

      23A      0.170605    24A      0.193476    25A      0.215545
      26A      0.222814    27A      0.225652    28A      0.250546
      29A      0.256701    30A      0.270587    31A      0.274363
      32A      0.282478    33A      0.300448    34A      0.306205
      35A      0.316400    36A      0.344326    37A      0.365587
      38A      0.401889    39A      0.438133    40A      0.570492
      41A      0.575689    42A      0.593708    43A      0.601250
      44A      0.610837    45A      0.618849    46A      0.626417
      47A      0.677026    48A      0.701694    49A      0.751215
      50A      0.778930    51A      0.800684    52A      0.831119
      53A      0.873620    54A      0.886700    55A      0.889945
      56A      0.893463    57A      0.896552    58A      0.897767
      59A      0.900067    60A      0.905152    61A      0.914518
      62A      0.916573    63A      0.926184    64A      0.944058
      65A      0.961399    66A      0.968308    67A      0.985631
      68A      0.997813    69A      1.117847    70A      1.120972
      71A      1.134520    72A      1.158231    73A      1.207568
      74A      1.253261    75A      1.374016    76A      1.469231
      77A      1.470946    78A      1.481585    79A      1.500746
      80A      1.523118    81A      1.586257    82A      1.639046
      83A      1.677002    84A      1.680993    85A      1.686662
      86A      1.694181    87A      1.695063    88A      1.844602
      89A      1.865378    90A      1.873419    91A      1.880667
      92A      1.888235    93A      1.903417    94A      1.911547
      95A      1.915176    96A      1.932161    97A      1.941070
      98A      1.944978    99A      1.948106   100A      1.956293
     101A      1.969305   102A      1.983476   103A      1.989091
     104A      1.993530   105A      2.017816   106A      2.035338
     107A      2.065081   108A      2.100578   109A      2.119442
     110A      2.133964   111A      2.171666   112A      2.274324
     113A      2.291536   114A      2.303612   115A      2.319897
     116A      2.339494   117A      2.378879   118A      2.454128
     119A      2.465494   120A      2.495788   121A      2.531771
     122A      2.554788   123A      2.578422   124A      2.593978
     125A      2.613807   126A      2.631532   127A      2.747083
     128A      2.753970   129A      2.761796   130A      2.778442
     131A      2.789958   132A      2.803680   133A      2.852817
     134A      2.855425   135A      2.924336   136A      2.947781
     137A      2.948782   138A      2.967741   139A      2.977432
     140A      3.070249

    Final Occupation by Irrep:
              A
    DOCC [    22 ]

  @RHF Final Energy:  -197.50154277519084

   => Energetics <=

    Nuclear Repulsion Energy =            175.5372063900343562
    One-Electron Energy =                -611.9188180989159491
    Two-Electron Energy =                 238.8800689336907226
    Total Energy =                       -197.5015427751908419

Computation Completed

Properties will be evaluated at   0.000000,   0.000000,   0.000000 [a0]

Properties computed using the SCF density matrix

  Nuclear Dipole Moment: [e a0]
     X:    -0.9523      Y:     0.7156      Z:    -0.4470

  Electronic Dipole Moment: [e a0]
     X:     0.9308      Y:    -0.6965      Z:     0.4300

  Dipole Moment: [e a0]
     X:    -0.0215      Y:     0.0190      Z:    -0.0170     Total:     0.0334

  Dipole Moment: [D]
     X:    -0.0547      Y:     0.0483      Z:    -0.0432     Total:     0.0848

*** tstop() called on ds3 at Sun Apr 26 17:36:25 2020
Module time:
	user time   =      14.60 seconds =       0.24 minutes
	system time =       5.97 seconds =       0.10 minutes
	total time  =         29 seconds =       0.48 minutes
Total time:
	user time   =      14.60 seconds =       0.24 minutes
	system time =       5.97 seconds =       0.10 minutes
	total time  =         29 seconds =       0.48 minutes
                                     G D M A

                                 by Anthony Stone

                           version 2.2.06, 22 June 2011

               Distributed Multipoles from Gaussian wavefunctions

Starting at 17:36:25 on 26 Apr 2020

Using SCF density matrix from file ./SSI/SSI-098LEU-144VAL-2-dimer.test.18851.fchk

                         Distributed Multipole Analysis

Standard DMA

Positions and radii in angstrom
Multipole moments in atomic units, ea_0^k for rank k

C          x =  1.054864  y = -0.877221  z =  0.541009 angstrom
           Maximum rank =  0   Radius =  0.650 angstrom
                   Q00  =  -0.085397

C          x =  2.438864  y = -0.672221  z =  1.134009 angstrom
           Maximum rank =  0   Radius =  0.650 angstrom
                   Q00  =  -0.221832

C          x =  0.415864  y = -2.269221  z =  0.608009 angstrom
           Maximum rank =  0   Radius =  0.650 angstrom
                   Q00  =  -0.248494

H          x =  0.382864  y = -0.196221  z =  1.065009 angstrom
           Maximum rank =  0   Radius =  0.325 angstrom
                   Q00  =   0.036422

H          x =  1.077864  y = -0.563221  z = -0.504991 angstrom
           Maximum rank =  0   Radius =  0.325 angstrom
                   Q00  =   0.043370

H          x =  2.421864  y = -1.066221  z =  2.151009 angstrom
           Maximum rank =  0   Radius =  0.325 angstrom
                   Q00  =   0.073852

H          x =  0.982864  y = -2.964221  z = -0.010991 angstrom
           Maximum rank =  0   Radius =  0.325 angstrom
                   Q00  =   0.077567

H          x =  2.649734  y =  0.406959  z =  1.164129 angstrom
           Maximum rank =  0   Radius =  0.325 angstrom
                   Q00  =   0.084634

H          x =  3.219604  y = -1.206531  z =  0.572799 angstrom
           Maximum rank =  0   Radius =  0.325 angstrom
                   Q00  =   0.077835

H          x =  0.382474  y = -2.650261  z =  1.639359 angstrom
           Maximum rank =  0   Radius =  0.325 angstrom
                   Q00  =   0.076373

H          x = -0.616586  y = -2.210101  z =  0.233099 angstrom
           Maximum rank =  0   Radius =  0.325 angstrom
                   Q00  =   0.085917

C          x = -1.410136  y =  1.308779  z = -1.023991 angstrom
           Maximum rank =  0   Radius =  0.650 angstrom
                   Q00  =  -0.239382

C          x = -2.414136  y =  2.445779  z = -1.218991 angstrom
           Maximum rank =  0   Radius =  0.650 angstrom
                   Q00  =  -0.235407

H          x = -0.962136  y =  1.375779  z = -0.032991 angstrom
           Maximum rank =  0   Radius =  0.325 angstrom
                   Q00  =   0.079711

H          x = -1.929136  y =  0.355779  z = -1.119991 angstrom
           Maximum rank =  0   Radius =  0.325 angstrom
                   Q00  =   0.077628

H          x = -0.630136  y =  1.341779  z = -1.784991 angstrom
           Maximum rank =  0   Radius =  0.325 angstrom
                   Q00  =   0.080014

H          x = -2.797136  y =  2.375779  z = -2.236991 angstrom
           Maximum rank =  0   Radius =  0.325 angstrom
                   Q00  =   0.077228

H          x = -1.932726  y =  3.425149  z = -1.080831 angstrom
           Maximum rank =  0   Radius =  0.325 angstrom
                   Q00  =   0.080087

H          x = -3.265276  y =  2.338849  z = -0.530421 angstrom
           Maximum rank =  0   Radius =  0.325 angstrom
                   Q00  =   0.079875

Total multipoles referred to origin at
           x =   0.000000,  y =    0.000000,  z =    0.000000 angstrom
                   Q00  =  -0.000000

Finished at 17:36:25 on 26 Apr 2020

  DMA results are available in the Python driver through the
	  variable('DMA DISTRIBUTED MULTIPOLES')
  and
	  variable('DMA TOTAL MULTIPOLES')
  commands.

    Psi4 stopped on: Sunday, 26 April 2020 05:36PM
    Psi4 wall time for execution: 0:00:28.50

*** Psi4 exiting successfully. Buy a developer a beer!
