                               Psi4 1.3.2 release

  ==> Input File <==

--------------------------------------------------------------------------
import numpy as np
set {scf_type pk
basis cc-pvdz
d_convergence 10
gdma_switch   0
gdma_limit    0
gdma_origin   [ 0.0,  0.0,  0.0 ]
}
molecule test {
    units Angstrom
    0 1
    --
    0 1
    C               -1.012770506112456    -0.086319409159406    -2.268179885717357
    C                0.050229493887544    -1.165319409159406    -2.194179885717357
    H               -1.671770506112456    -0.258319409159406    -3.123179885717357
    H               -1.608770506112456    -0.081319409159406    -1.355179885717357
    H               -0.532770506112456     0.885680590840594    -2.378179885717357
    H                0.679229493887544    -0.955319409159406    -1.334179885717357
    H                0.681619493887544    -1.135864409159406    -3.094443885717357
    H               -0.445370506112456    -2.129073409159406    -2.005618885717357
    C                0.723229493887544     1.649680590840594     0.878820114282643
    C                0.179229493887544     0.278680590840594     1.153820114282643
    O               -1.013770506112456     0.125680590840594     1.397820114282643
    N                1.036229493887544    -0.725319409159406     1.115820114282642
    H                0.482229493887544     1.897680590840594    -0.147179885717357
    H                1.812229493887544     1.628680590840594     0.953820114282643
    H                0.665229493887544    -1.653319409159406     1.262820114282643
    H                2.005229493887545    -0.575319409159406     0.879820114282643
    H                0.339839493887544     2.402075590840594     1.583741114282643

}
e, wfn = energy('scf', return_wfn=True)
gdma(wfn)
dmavals = variable('DMA DISTRIBUTED MULTIPOLES')
charges = np.array(dmavals)
print(charges)
np.save('SSI-021ALA-100ASN-1-dimer.npy', np.array(charges))--------------------------------------------------------------------------

*** tstart() called on ds3
*** at Tue Apr 28 08:49:47 2020

   => Loading Basis Set <=

    Name: CC-PVDZ
    Role: ORBITAL
    Keyword: BASIS
    atoms 1-2, 9-10  entry C          line   138 file /theoryfs2/ds/metcalf/miniconda2/envs/tf2gpu/share/psi4/basis/cc-pvdz.gbs
    atoms 3-8, 13-17 entry H          line    22 file /theoryfs2/ds/metcalf/miniconda2/envs/tf2gpu/share/psi4/basis/cc-pvdz.gbs
    atoms 11         entry O          line   198 file /theoryfs2/ds/metcalf/miniconda2/envs/tf2gpu/share/psi4/basis/cc-pvdz.gbs
    atoms 12         entry N          line   168 file /theoryfs2/ds/metcalf/miniconda2/envs/tf2gpu/share/psi4/basis/cc-pvdz.gbs

         ---------------------------------------------------------
                                   SCF
               by Justin Turney, Rob Parrish, Andy Simmonett
                          and Daniel G. A. Smith
                              RHF Reference
                        1 Threads,    500 MiB Core
         ---------------------------------------------------------

  ==> Geometry <==

    Molecular point group: c1
    Full point group: C1

    Geometry (in Angstrom), charge = 0, multiplicity = 1:

       Center              X                  Y                   Z               Mass
    ------------   -----------------  -----------------  -----------------  -----------------
         C           -1.012770506112    -0.086319409159    -2.268179885717    12.000000000000
         C            0.050229493888    -1.165319409159    -2.194179885717    12.000000000000
         H           -1.671770506112    -0.258319409159    -3.123179885717     1.007825032230
         H           -1.608770506112    -0.081319409159    -1.355179885717     1.007825032230
         H           -0.532770506112     0.885680590841    -2.378179885717     1.007825032230
         H            0.679229493888    -0.955319409159    -1.334179885717     1.007825032230
         H            0.681619493888    -1.135864409159    -3.094443885717     1.007825032230
         H           -0.445370506112    -2.129073409159    -2.005618885717     1.007825032230
         C            0.723229493888     1.649680590841     0.878820114283    12.000000000000
         C            0.179229493888     0.278680590841     1.153820114283    12.000000000000
         O           -1.013770506112     0.125680590841     1.397820114283    15.994914619570
         N            1.036229493888    -0.725319409159     1.115820114283    14.003074004430
         H            0.482229493888     1.897680590841    -0.147179885717     1.007825032230
         H            1.812229493888     1.628680590841     0.953820114283     1.007825032230
         H            0.665229493888    -1.653319409159     1.262820114283     1.007825032230
         H            2.005229493888    -0.575319409159     0.879820114283     1.007825032230
         H            0.339839493888     2.402075590841     1.583741114283     1.007825032230

  Running in c1 symmetry.

  Rotational constants: A =      0.14189  B =      0.05436  C =      0.05150 [cm^-1]
  Rotational constants: A =   4253.69120  B =   1629.79005  C =   1544.02706 [MHz]
  Nuclear repulsion =  244.332206349726448

  Charge       = 0
  Multiplicity = 1
  Electrons    = 50
  Nalpha       = 25
  Nbeta        = 25

  ==> Algorithm <==

  SCF Algorithm Type is PK.
  DIIS enabled.
  MOM disabled.
  Fractional occupation disabled.
  Guess Type is SAD.
  Energy threshold   = 1.00e-06
  Density threshold  = 1.00e-10
  Integral threshold = 0.00e+00

  ==> Primary Basis <==

  Basis Set: CC-PVDZ
    Blend: CC-PVDZ
    Number of shells: 69
    Number of basis function: 139
    Number of Cartesian functions: 145
    Spherical Harmonics?: true
    Max angular momentum: 2

  ==> Pre-Iterations <==

   -------------------------------------------------------
    Irrep   Nso     Nmo     Nalpha   Nbeta   Ndocc  Nsocc
   -------------------------------------------------------
     A        139     139       0       0       0       0
   -------------------------------------------------------
    Total     139     139      25      25      25       0
   -------------------------------------------------------

  ==> Integral Setup <==

  Using integral reordering PK algorithm.
  Sizing the integral batches needed.
  Building batch lookup table.
   Calculation information:
      Number of atoms:                  17
      Number of AO shells:              69
      Number of primitives:            187
      Number of atomic orbitals:       145
      Number of basis functions:       139

      Integral cutoff                 1.00e-12
      Number of threads:                 1

	Batch   1 pq = [       0,    9730] index = [             0,47341315] size =     47341315
  Task number: 5
  Buffer size: 11059200
  Buffer per thread: 2
  We computed 2908433 shell quartets total.
  Whereas there are 2917320 unique shell quartets.

  ==> DiskJK: Disk-Based J/K Matrices <==

    J tasked:                  Yes
    K tasked:                  Yes
    wK tasked:                  No
    Memory [MiB]:              375
    Schwarz Cutoff:          1E-12

    OpenMP threads:              1

  Minimum eigenvalue in the overlap matrix is 4.1724165482E-03.
  Using Symmetric Orthogonalization.

  SCF Guess: Superposition of Atomic Densities via on-the-fly atomic UHF.

  ==> Iterations <==

                        Total Energy        Delta E     RMS |[F,P]|

   @RHF iter SAD:  -286.03669998996520   -2.86037e+02   0.00000e+00
   @RHF iter   1:  -286.99256049260862   -9.55861e-01   4.64359e-03 DIIS
   @RHF iter   2:  -287.16941978375957   -1.76859e-01   2.58818e-03 DIIS
   @RHF iter   3:  -287.21933275871839   -4.99130e-02   5.41158e-04 DIIS
   @RHF iter   4:  -287.22267242056574   -3.33966e-03   2.19345e-04 DIIS
   @RHF iter   5:  -287.22326624363660   -5.93823e-04   3.34122e-05 DIIS
   @RHF iter   6:  -287.22329517411424   -2.89305e-05   1.44828e-05 DIIS
   @RHF iter   7:  -287.22329948310301   -4.30899e-06   5.87567e-06 DIIS
   @RHF iter   8:  -287.22330042922516   -9.46122e-07   2.07063e-06 DIIS
   @RHF iter   9:  -287.22330055394627   -1.24721e-07   5.31626e-07 DIIS
   @RHF iter  10:  -287.22330055981234   -5.86607e-09   1.63066e-07 DIIS
   @RHF iter  11:  -287.22330056045064   -6.38295e-10   3.71489e-08 DIIS
   @RHF iter  12:  -287.22330056048384   -3.31966e-11   8.33600e-09 DIIS
   @RHF iter  13:  -287.22330056048378    5.68434e-14   1.69169e-09 DIIS
   @RHF iter  14:  -287.22330056048429   -5.11591e-13   6.23124e-10 DIIS
   @RHF iter  15:  -287.22330056048617   -1.87583e-12   2.21226e-10 DIIS
   @RHF iter  16:  -287.22330056048423    1.93268e-12   5.76276e-11 DIIS
  Energy and wave function converged.

  ==> Post-Iterations <==

    Orbital Energies [Eh]
    ---------------------

    Doubly Occupied:

       1A    -20.503855     2A    -15.593240     3A    -11.347369
       4A    -11.241379     5A    -11.214526     6A    -11.208672
       7A     -1.371128     8A     -1.223269     9A     -1.018039
      10A     -1.004954    11A     -0.830155    12A     -0.802691
      13A     -0.734120    14A     -0.657740    15A     -0.625069
      16A     -0.600477    17A     -0.588545    18A     -0.572046
      19A     -0.556216    20A     -0.526810    21A     -0.495090
      22A     -0.484187    23A     -0.477705    24A     -0.411284
      25A     -0.403856

    Virtual:

      26A      0.156574    27A      0.189009    28A      0.205476
      29A      0.207555    30A      0.229938    31A      0.254849
      32A      0.258319    33A      0.268502    34A      0.276783
      35A      0.297038    36A      0.319136    37A      0.350191
      38A      0.383034    39A      0.402862    40A      0.476037
      41A      0.552405    42A      0.594011    43A      0.608880
      44A      0.616748    45A      0.650848    46A      0.658564
      47A      0.672637    48A      0.683434    49A      0.712114
      50A      0.723577    51A      0.772875    52A      0.833008
      53A      0.841355    54A      0.857394    55A      0.870491
      56A      0.890900    57A      0.899668    58A      0.905821
      59A      0.916738    60A      0.926645    61A      0.939882
      62A      0.954910    63A      0.984043    64A      1.000029
      65A      1.025149    66A      1.058057    67A      1.090118
      68A      1.120788    69A      1.129392    70A      1.149926
      71A      1.163100    72A      1.265609    73A      1.328169
      74A      1.372006    75A      1.407747    76A      1.427309
      77A      1.433157    78A      1.458574    79A      1.477803
      80A      1.493004    81A      1.510262    82A      1.574060
      83A      1.647757    84A      1.656026    85A      1.687698
      86A      1.708923    87A      1.751583    88A      1.816557
      89A      1.844636    90A      1.856496    91A      1.869954
      92A      1.885658    93A      1.903927    94A      1.920443
      95A      1.929095    96A      1.949284    97A      1.953587
      98A      1.963831    99A      1.971483   100A      1.982140
     101A      1.986244   102A      2.021656   103A      2.058280
     104A      2.080616   105A      2.128491   106A      2.136260
     107A      2.191828   108A      2.238164   109A      2.287078
     110A      2.305433   111A      2.324510   112A      2.413972
     113A      2.446401   114A      2.455810   115A      2.470926
     116A      2.508706   117A      2.532736   118A      2.573593
     119A      2.578078   120A      2.602822   121A      2.645069
     122A      2.745511   123A      2.761060   124A      2.777169
     125A      2.807025   126A      2.829447   127A      2.847606
     128A      2.855605   129A      2.865023   130A      2.956980
     131A      2.984349   132A      2.999052   133A      3.094179
     134A      3.135120   135A      3.298322   136A      3.512227
     137A      3.531770   138A      3.876279   139A      3.910524

    Final Occupation by Irrep:
              A
    DOCC [    25 ]

  @RHF Final Energy:  -287.22330056048423

   => Energetics <=

    Nuclear Repulsion Energy =            244.3322063497264480
    One-Electron Energy =                -874.1261640500692920
    Two-Electron Energy =                 342.5706571398586107
    Total Energy =                       -287.2233005604842333

Computation Completed

Properties will be evaluated at   0.000000,   0.000000,   0.000000 [a0]

Properties computed using the SCF density matrix

  Nuclear Dipole Moment: [e a0]
     X:     2.2485      Y:     0.0267      Z:    -8.2067

  Electronic Dipole Moment: [e a0]
     X:    -0.6413      Y:    -0.1158      Z:     7.9792

  Dipole Moment: [e a0]
     X:     1.6073      Y:    -0.0892      Z:    -0.2274     Total:     1.6257

  Dipole Moment: [D]
     X:     4.0853      Y:    -0.2266      Z:    -0.5781     Total:     4.1322

*** tstop() called on ds3 at Tue Apr 28 08:50:11 2020
Module time:
	user time   =      18.18 seconds =       0.30 minutes
	system time =       6.96 seconds =       0.12 minutes
	total time  =         24 seconds =       0.40 minutes
Total time:
	user time   =      18.18 seconds =       0.30 minutes
	system time =       6.96 seconds =       0.12 minutes
	total time  =         24 seconds =       0.40 minutes
                                     G D M A

                                 by Anthony Stone

                           version 2.2.06, 22 June 2011

               Distributed Multipoles from Gaussian wavefunctions

Starting at 8:50:11 on 28 Apr 2020

Using SCF density matrix from file ./SSI/SSI-021ALA-100ASN-1-dimer.test.16007.fchk

                         Distributed Multipole Analysis

Standard DMA

Positions and radii in angstrom
Multipole moments in atomic units, ea_0^k for rank k

C          x = -1.012771  y = -0.086319  z = -2.268180 angstrom
           Maximum rank =  0   Radius =  0.650 angstrom
                   Q00  =  -0.229128

C          x =  0.050229  y = -1.165319  z = -2.194180 angstrom
           Maximum rank =  0   Radius =  0.650 angstrom
                   Q00  =  -0.209801

H          x = -1.671771  y = -0.258319  z = -3.123180 angstrom
           Maximum rank =  0   Radius =  0.325 angstrom
                   Q00  =   0.076005

H          x = -1.608771  y = -0.081319  z = -1.355180 angstrom
           Maximum rank =  0   Radius =  0.325 angstrom
                   Q00  =   0.098753

H          x = -0.532771  y =  0.885681  z = -2.378180 angstrom
           Maximum rank =  0   Radius =  0.325 angstrom
                   Q00  =   0.063852

H          x =  0.679229  y = -0.955319  z = -1.334180 angstrom
           Maximum rank =  0   Radius =  0.325 angstrom
                   Q00  =   0.059735

H          x =  0.681619  y = -1.135864  z = -3.094444 angstrom
           Maximum rank =  0   Radius =  0.325 angstrom
                   Q00  =   0.059983

H          x = -0.445371  y = -2.129073  z = -2.005619 angstrom
           Maximum rank =  0   Radius =  0.325 angstrom
                   Q00  =   0.066065

C          x =  0.723229  y =  1.649681  z =  0.878820 angstrom
           Maximum rank =  0   Radius =  0.650 angstrom
                   Q00  =  -0.260063

C          x =  0.179229  y =  0.278681  z =  1.153820 angstrom
           Maximum rank =  0   Radius =  0.650 angstrom
                   Q00  =   0.818576

O          x = -1.013771  y =  0.125681  z =  1.397820 angstrom
           Maximum rank =  0   Radius =  0.650 angstrom
                   Q00  =  -0.796877

N          x =  1.036229  y = -0.725319  z =  1.115820 angstrom
           Maximum rank =  0   Radius =  0.650 angstrom
                   Q00  =  -0.521391

H          x =  0.482229  y =  1.897681  z = -0.147180 angstrom
           Maximum rank =  0   Radius =  0.325 angstrom
                   Q00  =   0.134884

H          x =  1.812229  y =  1.628681  z =  0.953820 angstrom
           Maximum rank =  0   Radius =  0.325 angstrom
                   Q00  =   0.067976

H          x =  0.665229  y = -1.653319  z =  1.262820 angstrom
           Maximum rank =  0   Radius =  0.325 angstrom
                   Q00  =   0.223209

H          x =  2.005229  y = -0.575319  z =  0.879820 angstrom
           Maximum rank =  0   Radius =  0.325 angstrom
                   Q00  =   0.214119

H          x =  0.339839  y =  2.402076  z =  1.583741 angstrom
           Maximum rank =  0   Radius =  0.325 angstrom
                   Q00  =   0.134103

Total multipoles referred to origin at
           x =   0.000000,  y =    0.000000,  z =    0.000000 angstrom
                   Q00  =  -0.000000

Finished at 8:50:11 on 28 Apr 2020

  DMA results are available in the Python driver through the
	  variable('DMA DISTRIBUTED MULTIPOLES')
  and
	  variable('DMA TOTAL MULTIPOLES')
  commands.

    Psi4 stopped on: Tuesday, 28 April 2020 08:50AM
    Psi4 wall time for execution: 0:00:24.85

*** Psi4 exiting successfully. Buy a developer a beer!
