                               Psi4 1.3.2 release

  ==> Input File <==

--------------------------------------------------------------------------
import numpy as np
set {scf_type pk
basis cc-pvdz
d_convergence 10
gdma_switch   0
gdma_limit    0
gdma_origin   [ 0.0,  0.0,  0.0 ]
}
molecule test {
    units Angstrom
    2 1
    --
    2 1
    C               -1.385630523306910    -0.340962776377210     2.795043086220030
    C               -1.621630523306909    -0.501962776377210     0.346043086220031
    N               -1.068630523306910    -0.918962776377210     1.481043086220031
    N               -2.446630523306909     0.520037223622790     0.328043086220031
    N               -1.308630523306910    -1.119962776377210    -0.770956913779969
    H               -0.453630523306909    -1.719962776377210     1.448043086220031
    H               -2.703630523306909     0.983037223622790     1.181043086220031
    H               -2.973630523306909     0.698037223622790    -0.531956913779969
    H               -0.749630523306909    -1.959962776377210    -0.756956913779969
    H               -1.887630523306910    -0.921962776377210    -1.569956913779969
    H               -2.446630523306909    -0.498962776377210     3.005043086220030
    H               -1.186630523306909     0.734037223622790     2.798043086220031
    H               -0.810540523306909    -0.810492776377210     3.606713086220031
    C                1.721369476693090    -0.635962776377210    -2.469956913779970
    C                1.547369476693091     0.743037223622790    -0.420956913779969
    N                1.959369476693091    -0.339962776377210    -1.040956913779969
    N                0.757369476693091     1.604037223622790    -1.046956913779969
    N                1.926369476693090     0.941037223622790     0.820043086220031
    H                2.486369476693091    -1.023962776377210    -0.486956913779969
    H                0.439369476693091     1.412037223622790    -1.981956913779970
    H                0.438369476693091     2.438037223622790    -0.574956913779969
    H                2.582369476693091     0.283037223622790     1.258043086220030
    H                1.643369476693090     1.768037223622790     1.320043086220031
    H                1.858369476693090     0.260037223622790    -3.079956913779970
    H                0.712369476693091    -1.024962776377210    -2.615956913779970
    H                2.449859476693091    -1.389002776377210    -2.804966913779970

}
e, wfn = energy('scf', return_wfn=True)
gdma(wfn)
dmavals = variable('DMA DISTRIBUTED MULTIPOLES')
charges = np.array(dmavals)
print(charges)
np.save('SSI-154ARG-204ARG-1-dimer.npy', np.array(charges))--------------------------------------------------------------------------

*** tstart() called on ds3
*** at Mon Apr 27 11:45:36 2020

   => Loading Basis Set <=

    Name: CC-PVDZ
    Role: ORBITAL
    Keyword: BASIS
    atoms 1-2, 14-15  entry C          line   138 file /theoryfs2/ds/metcalf/miniconda2/envs/tf2gpu/share/psi4/basis/cc-pvdz.gbs
    atoms 3-5, 16-18  entry N          line   168 file /theoryfs2/ds/metcalf/miniconda2/envs/tf2gpu/share/psi4/basis/cc-pvdz.gbs
    atoms 6-13, 19-26 entry H          line    22 file /theoryfs2/ds/metcalf/miniconda2/envs/tf2gpu/share/psi4/basis/cc-pvdz.gbs

         ---------------------------------------------------------
                                   SCF
               by Justin Turney, Rob Parrish, Andy Simmonett
                          and Daniel G. A. Smith
                              RHF Reference
                        1 Threads,    500 MiB Core
         ---------------------------------------------------------

  ==> Geometry <==

    Molecular point group: c1
    Full point group: C1

    Geometry (in Angstrom), charge = 2, multiplicity = 1:

       Center              X                  Y                   Z               Mass
    ------------   -----------------  -----------------  -----------------  -----------------
         C           -1.385630523307    -0.340962776377     2.795043086220    12.000000000000
         C           -1.621630523307    -0.501962776377     0.346043086220    12.000000000000
         N           -1.068630523307    -0.918962776377     1.481043086220    14.003074004430
         N           -2.446630523307     0.520037223623     0.328043086220    14.003074004430
         N           -1.308630523307    -1.119962776377    -0.770956913780    14.003074004430
         H           -0.453630523307    -1.719962776377     1.448043086220     1.007825032230
         H           -2.703630523307     0.983037223623     1.181043086220     1.007825032230
         H           -2.973630523307     0.698037223623    -0.531956913780     1.007825032230
         H           -0.749630523307    -1.959962776377    -0.756956913780     1.007825032230
         H           -1.887630523307    -0.921962776377    -1.569956913780     1.007825032230
         H           -2.446630523307    -0.498962776377     3.005043086220     1.007825032230
         H           -1.186630523307     0.734037223623     2.798043086220     1.007825032230
         H           -0.810540523307    -0.810492776377     3.606713086220     1.007825032230
         C            1.721369476693    -0.635962776377    -2.469956913780    12.000000000000
         C            1.547369476693     0.743037223623    -0.420956913780    12.000000000000
         N            1.959369476693    -0.339962776377    -1.040956913780    14.003074004430
         N            0.757369476693     1.604037223623    -1.046956913780    14.003074004430
         N            1.926369476693     0.941037223623     0.820043086220    14.003074004430
         H            2.486369476693    -1.023962776377    -0.486956913780     1.007825032230
         H            0.439369476693     1.412037223623    -1.981956913780     1.007825032230
         H            0.438369476693     2.438037223623    -0.574956913780     1.007825032230
         H            2.582369476693     0.283037223623     1.258043086220     1.007825032230
         H            1.643369476693     1.768037223623     1.320043086220     1.007825032230
         H            1.858369476693     0.260037223623    -3.079956913780     1.007825032230
         H            0.712369476693    -1.024962776377    -2.615956913780     1.007825032230
         H            2.449859476693    -1.389002776377    -2.804966913780     1.007825032230

  Running in c1 symmetry.

  Rotational constants: A =      0.05530  B =      0.02570  C =      0.02240 [cm^-1]
  Rotational constants: A =   1657.72203  B =    770.57241  C =    671.52898 [MHz]
  Nuclear repulsion =  602.046393848878779

  Charge       = 2
  Multiplicity = 1
  Electrons    = 80
  Nalpha       = 40
  Nbeta        = 40

  ==> Algorithm <==

  SCF Algorithm Type is PK.
  DIIS enabled.
  MOM disabled.
  Fractional occupation disabled.
  Guess Type is SAD.
  Energy threshold   = 1.00e-06
  Density threshold  = 1.00e-10
  Integral threshold = 0.00e+00

  ==> Primary Basis <==

  Basis Set: CC-PVDZ
    Blend: CC-PVDZ
    Number of shells: 108
    Number of basis function: 220
    Number of Cartesian functions: 230
    Spherical Harmonics?: true
    Max angular momentum: 2

  ==> Pre-Iterations <==

   -------------------------------------------------------
    Irrep   Nso     Nmo     Nalpha   Nbeta   Ndocc  Nsocc
   -------------------------------------------------------
     A        220     220       0       0       0       0
   -------------------------------------------------------
    Total     220     220      40      40      40       0
   -------------------------------------------------------

  ==> Integral Setup <==

  Using integral reordering PK algorithm.
  Sizing the integral batches needed.
  Building batch lookup table.
   Calculation information:
      Number of atoms:                  26
      Number of AO shells:             108
      Number of primitives:            300
      Number of atomic orbitals:       230
      Number of basis functions:       220

      Integral cutoff                 1.00e-12
      Number of threads:                 1

	Batch   1 pq = [       0,    9405] index = [             0,44231715] size =     44231715
	Batch   2 pq = [    9405,   13301] index = [      44231715,88464951] size =     44233236
	Batch   3 pq = [   13301,   16290] index = [      88464951,132690195] size =     44225244
	Batch   4 pq = [   16290,   18810] index = [     132690195,176917455] size =     44227260
	Batch   5 pq = [   18810,   21030] index = [     176917455,221140965] size =     44223510
	Batch   6 pq = [   21030,   23037] index = [     221140965,265363203] size =     44222238
	Batch   7 pq = [   23037,   24310] index = [     265363203,295500205] size =     30137002
  Task number: 27
  Buffer size: 11059200
  Buffer per thread: 2
  We computed 17615264 shell quartets total.
  Whereas there are 17325441 unique shell quartets.
     1.67 percent of shell quartets recomputed by reordering.

  ==> DiskJK: Disk-Based J/K Matrices <==

    J tasked:                  Yes
    K tasked:                  Yes
    wK tasked:                  No
    Memory [MiB]:              375
    Schwarz Cutoff:          1E-12

    OpenMP threads:              1

  Minimum eigenvalue in the overlap matrix is 2.4677833561E-03.
  Using Symmetric Orthogonalization.

  SCF Guess: Superposition of Atomic Densities via on-the-fly atomic UHF.

  ==> Iterations <==

                        Total Energy        Delta E     RMS |[F,P]|

   @RHF iter SAD:  -486.89078371643285   -4.86891e+02   0.00000e+00
   @RHF iter   1:  -486.81846394059278    7.23198e-02   2.93504e-03 DIIS
   @RHF iter   2:  -487.02767260605361   -2.09209e-01   1.09126e-03 DIIS
   @RHF iter   3:  -487.05444094340010   -2.67683e-02   2.99438e-04 DIIS
   @RHF iter   4:  -487.05746050761343   -3.01956e-03   4.75207e-05 DIIS
   @RHF iter   5:  -487.05755665913472   -9.61515e-05   1.94018e-05 DIIS
   @RHF iter   6:  -487.05757091249654   -1.42534e-05   4.65473e-06 DIIS
   @RHF iter   7:  -487.05757204700905   -1.13451e-06   1.56366e-06 DIIS
   @RHF iter   8:  -487.05757213592773   -8.89187e-08   3.77707e-07 DIIS
   @RHF iter   9:  -487.05757214205477   -6.12704e-09   1.02009e-07 DIIS
   @RHF iter  10:  -487.05757214249121   -4.36444e-10   3.20386e-08 DIIS
   @RHF iter  11:  -487.05757214255482   -6.36078e-11   1.13149e-08 DIIS
   @RHF iter  12:  -487.05757214256118   -6.36646e-12   3.60786e-09 DIIS
   @RHF iter  13:  -487.05757214256283   -1.64846e-12   1.30943e-09 DIIS
   @RHF iter  14:  -487.05757214256249    3.41061e-13   3.41052e-10 DIIS
   @RHF iter  15:  -487.05757214256187    6.25278e-13   8.92511e-11 DIIS
  Energy and wave function converged.

  ==> Post-Iterations <==

    Orbital Energies [Eh]
    ---------------------

    Doubly Occupied:

       1A    -15.906300     2A    -15.905896     3A    -15.900381
       4A    -15.900362     5A    -15.899764     6A    -15.897703
       7A    -11.704057     8A    -11.699224     9A    -11.549607
      10A    -11.547133    11A     -1.665518    12A     -1.658624
      13A     -1.516938    14A     -1.511757    15A     -1.509013
      16A     -1.504272    17A     -1.250525    18A     -1.247882
      19A     -1.152882    20A     -1.146886    21A     -1.095295
      22A     -1.085869    23A     -1.054883    24A     -1.052276
      25A     -0.980867    26A     -0.972238    27A     -0.968367
      28A     -0.967398    29A     -0.950359    30A     -0.928045
      31A     -0.901989    32A     -0.898812    33A     -0.855332
      34A     -0.851974    35A     -0.828081    36A     -0.827704
      37A     -0.738414    38A     -0.731724    39A     -0.698290
      40A     -0.697063

    Virtual:

      41A     -0.140711    42A     -0.109969    43A     -0.103037
      44A     -0.099679    45A     -0.085177    46A     -0.078950
      47A     -0.067361    48A     -0.053783    49A     -0.048820
      50A     -0.045241    51A     -0.020117    52A     -0.006377
      53A      0.012238    54A      0.019827    55A      0.021109
      56A      0.027511    57A      0.029742    58A      0.049544
      59A      0.081207    60A      0.089480    61A      0.136390
      62A      0.178025    63A      0.208369    64A      0.218628
      65A      0.231313    66A      0.241117    67A      0.295222
      68A      0.332910    69A      0.344073    70A      0.369575
      71A      0.371565    72A      0.388227    73A      0.400571
      74A      0.409993    75A      0.414337    76A      0.421330
      77A      0.425122    78A      0.440484    79A      0.461828
      80A      0.468674    81A      0.487101    82A      0.552414
      83A      0.567031    84A      0.580214    85A      0.582838
      86A      0.591754    87A      0.599225    88A      0.603049
      89A      0.609932    90A      0.623804    91A      0.627196
      92A      0.637765    93A      0.646687    94A      0.654275
      95A      0.670571    96A      0.690475    97A      0.695789
      98A      0.711966    99A      0.737847   100A      0.751612
     101A      0.772205   102A      0.781014   103A      0.801059
     104A      0.806062   105A      0.815978   106A      0.820299
     107A      0.842714   108A      0.868326   109A      0.883874
     110A      0.890489   111A      0.910569   112A      0.936376
     113A      0.979056   114A      1.001766   115A      1.014894
     116A      1.030835   117A      1.039356   118A      1.052757
     119A      1.069317   120A      1.076917   121A      1.092314
     122A      1.113243   123A      1.119857   124A      1.152648
     125A      1.170803   126A      1.191595   127A      1.290040
     128A      1.296426   129A      1.365528   130A      1.367037
     131A      1.401976   132A      1.403771   133A      1.408542
     134A      1.424241   135A      1.425259   136A      1.438493
     137A      1.473373   138A      1.494495   139A      1.499422
     140A      1.534290   141A      1.545272   142A      1.550055
     143A      1.565999   144A      1.579937   145A      1.599726
     146A      1.609390   147A      1.619918   148A      1.638247
     149A      1.638817   150A      1.657259   151A      1.665509
     152A      1.672844   153A      1.680047   154A      1.704895
     155A      1.711406   156A      1.722918   157A      1.733491
     158A      1.744272   159A      1.757540   160A      1.768419
     161A      1.778467   162A      1.816948   163A      1.890577
     164A      1.898609   165A      1.920550   166A      1.931541
     167A      1.946588   168A      1.973664   169A      1.989625
     170A      2.010224   171A      2.030471   172A      2.037447
     173A      2.059418   174A      2.077426   175A      2.098347
     176A      2.118532   177A      2.132461   178A      2.149939
     179A      2.164839   180A      2.188604   181A      2.209681
     182A      2.219055   183A      2.229331   184A      2.257969
     185A      2.275904   186A      2.295769   187A      2.303024
     188A      2.336685   189A      2.356200   190A      2.374905
     191A      2.417414   192A      2.437148   193A      2.476516
     194A      2.486405   195A      2.493507   196A      2.509039
     197A      2.516934   198A      2.536713   199A      2.583228
     200A      2.611479   201A      2.642958   202A      2.657127
     203A      2.662295   204A      2.686000   205A      2.710568
     206A      2.724274   207A      2.728949   208A      2.754047
     209A      2.773315   210A      2.789183   211A      2.942730
     212A      2.956686   213A      2.971579   214A      3.001878
     215A      3.016782   216A      3.024698   217A      3.451273
     218A      3.468611   219A      3.509321   220A      3.530266

    Final Occupation by Irrep:
              A
    DOCC [    40 ]

  @RHF Final Energy:  -487.05757214256187

   => Energetics <=

    Nuclear Repulsion Energy =            602.0463938488787790
    One-Electron Energy =               -1829.8885282086266670
    Two-Electron Energy =                 740.7845622171860214
    Total Energy =                       -487.0575721425618667

Computation Completed

Properties will be evaluated at   0.000000,   0.000000,   0.000000 [a0]

Properties computed using the SCF density matrix

  Nuclear Dipole Moment: [e a0]
     X:    -0.5634      Y:    -0.7266      Z:     0.2007

  Electronic Dipole Moment: [e a0]
     X:     0.2329      Y:     0.7914      Z:    -0.1519

  Dipole Moment: [e a0]
     X:    -0.3304      Y:     0.0648      Z:     0.0488     Total:     0.3402

  Dipole Moment: [D]
     X:    -0.8399      Y:     0.1646      Z:     0.1239     Total:     0.8648

*** tstop() called on ds3 at Mon Apr 27 11:56:56 2020
Module time:
	user time   =     117.97 seconds =       1.97 minutes
	system time =      36.98 seconds =       0.62 minutes
	total time  =        680 seconds =      11.33 minutes
Total time:
	user time   =     117.97 seconds =       1.97 minutes
	system time =      36.98 seconds =       0.62 minutes
	total time  =        680 seconds =      11.33 minutes
                                     G D M A

                                 by Anthony Stone

                           version 2.2.06, 22 June 2011

               Distributed Multipoles from Gaussian wavefunctions

Starting at 11:56:56 on 27 Apr 2020

Using SCF density matrix from file ./SSI/SSI-154ARG-204ARG-1-dimer.test.3098.fchk

                         Distributed Multipole Analysis

Standard DMA

Positions and radii in angstrom
Multipole moments in atomic units, ea_0^k for rank k

C          x = -1.385631  y = -0.340963  z =  2.795043 angstrom
           Maximum rank =  0   Radius =  0.650 angstrom
                   Q00  =  -0.135687

C          x = -1.621631  y = -0.501963  z =  0.346043 angstrom
           Maximum rank =  0   Radius =  0.650 angstrom
                   Q00  =   1.070321

N          x = -1.068631  y = -0.918963  z =  1.481043 angstrom
           Maximum rank =  0   Radius =  0.650 angstrom
                   Q00  =  -0.497644

N          x = -2.446631  y =  0.520037  z =  0.328043 angstrom
           Maximum rank =  0   Radius =  0.650 angstrom
                   Q00  =  -0.587843

N          x = -1.308631  y = -1.119963  z = -0.770957 angstrom
           Maximum rank =  0   Radius =  0.650 angstrom
                   Q00  =  -0.595003

H          x = -0.453631  y = -1.719963  z =  1.448043 angstrom
           Maximum rank =  0   Radius =  0.325 angstrom
                   Q00  =   0.236209

H          x = -2.703631  y =  0.983037  z =  1.181043 angstrom
           Maximum rank =  0   Radius =  0.325 angstrom
                   Q00  =   0.287050

H          x = -2.973631  y =  0.698037  z = -0.531957 angstrom
           Maximum rank =  0   Radius =  0.325 angstrom
                   Q00  =   0.279234

H          x = -0.749631  y = -1.959963  z = -0.756957 angstrom
           Maximum rank =  0   Radius =  0.325 angstrom
                   Q00  =   0.270508

H          x = -1.887631  y = -0.921963  z = -1.569957 angstrom
           Maximum rank =  0   Radius =  0.325 angstrom
                   Q00  =   0.261357

H          x = -2.446631  y = -0.498963  z =  3.005043 angstrom
           Maximum rank =  0   Radius =  0.325 angstrom
                   Q00  =   0.134150

H          x = -1.186631  y =  0.734037  z =  2.798043 angstrom
           Maximum rank =  0   Radius =  0.325 angstrom
                   Q00  =   0.101836

H          x = -0.810541  y = -0.810493  z =  3.606713 angstrom
           Maximum rank =  0   Radius =  0.325 angstrom
                   Q00  =   0.177977

C          x =  1.721369  y = -0.635963  z = -2.469957 angstrom
           Maximum rank =  0   Radius =  0.650 angstrom
                   Q00  =  -0.132193

C          x =  1.547369  y =  0.743037  z = -0.420957 angstrom
           Maximum rank =  0   Radius =  0.650 angstrom
                   Q00  =   1.069047

N          x =  1.959369  y = -0.339963  z = -1.040957 angstrom
           Maximum rank =  0   Radius =  0.650 angstrom
                   Q00  =  -0.498677

N          x =  0.757369  y =  1.604037  z = -1.046957 angstrom
           Maximum rank =  0   Radius =  0.650 angstrom
                   Q00  =  -0.592341

N          x =  1.926369  y =  0.941037  z =  0.820043 angstrom
           Maximum rank =  0   Radius =  0.650 angstrom
                   Q00  =  -0.602187

H          x =  2.486369  y = -1.023963  z = -0.486957 angstrom
           Maximum rank =  0   Radius =  0.325 angstrom
                   Q00  =   0.240903

H          x =  0.439369  y =  1.412037  z = -1.981957 angstrom
           Maximum rank =  0   Radius =  0.325 angstrom
                   Q00  =   0.274171

H          x =  0.438369  y =  2.438037  z = -0.574957 angstrom
           Maximum rank =  0   Radius =  0.325 angstrom
                   Q00  =   0.271843

H          x =  2.582369  y =  0.283037  z =  1.258043 angstrom
           Maximum rank =  0   Radius =  0.325 angstrom
                   Q00  =   0.280651

H          x =  1.643369  y =  1.768037  z =  1.320043 angstrom
           Maximum rank =  0   Radius =  0.325 angstrom
                   Q00  =   0.272831

H          x =  1.858369  y =  0.260037  z = -3.079957 angstrom
           Maximum rank =  0   Radius =  0.325 angstrom
                   Q00  =   0.137120

H          x =  0.712369  y = -1.024963  z = -2.615957 angstrom
           Maximum rank =  0   Radius =  0.325 angstrom
                   Q00  =   0.093349

H          x =  2.449859  y = -1.389003  z = -2.804967 angstrom
           Maximum rank =  0   Radius =  0.325 angstrom
                   Q00  =   0.183018

Total multipoles referred to origin at
           x =   0.000000,  y =    0.000000,  z =    0.000000 angstrom
                   Q00  =   2.000000

Finished at 11:56:56 on 27 Apr 2020

  DMA results are available in the Python driver through the
	  variable('DMA DISTRIBUTED MULTIPOLES')
  and
	  variable('DMA TOTAL MULTIPOLES')
  commands.

    Psi4 stopped on: Monday, 27 April 2020 11:56AM
    Psi4 wall time for execution: 0:11:20.26

*** Psi4 exiting successfully. Buy a developer a beer!
