                               Psi4 1.3.2 release

  ==> Input File <==

--------------------------------------------------------------------------
import numpy as np
set {scf_type pk
basis cc-pvdz
d_convergence 10
gdma_switch   0
gdma_limit    0
gdma_origin   [ 0.0,  0.0,  0.0 ]
}
molecule test {
    units Angstrom
    1 1
    --
    1 1
    C                0.832380945998476    -0.038910761329385     2.795137302340748
    C                1.089380945998475     0.384089238670615     1.374137302340747
    C                1.390380945998476     1.638089238670615     0.940137302340748
    C                1.173380945998475    -0.471910761329385     0.213137302340748
    C                1.541380945998476     0.346089238670615    -0.890862697659252
    C                0.978380945998475    -1.847910761329385    -0.008862697659252
    C                1.715380945998475    -0.163910761329385    -2.176862697659252
    C                1.156380945998476    -2.362910761329385    -1.301862697659252
    C                1.520380945998475    -1.523910761329385    -2.370862697659252
    N                1.662380945998476     1.623089238670615    -0.406862697659252
    H                0.092380945998476    -0.840910761329385     2.802137302340747
    H                0.424380945998476     0.809089238670615     3.347137302340748
    H                1.456380945998476     2.513089238670614     1.581137302340748
    H                1.947380945998475     2.443089238670614    -0.931862697659252
    H                0.672380945998476    -2.492910761329385     0.802137302340748
    H                1.993380945998475     0.480089238670615    -2.999862697659253
    H                1.008380945998476    -3.419910761329386    -1.481862697659252
    H                1.647380945998475    -1.941910761329385    -3.360862697659252
    H                1.754280945998475    -0.382650761329385     3.287007302340748
    C               -2.185619054001525    -1.001910761329385    -1.151862697659252
    C               -2.352619054001525     0.722089238670615     0.618137302340748
    N               -2.460619054001525    -0.531910761329385     0.209137302340748
    N               -1.977619054001525     1.667089238670615    -0.217862697659252
    N               -2.604619054001525     1.030089238670615     1.871137302340748
    H               -2.705619054001524    -1.246910761329385     0.890137302340748
    H               -1.733619054001525     1.429089238670615    -1.162862697659252
    H               -1.868619054001525     2.617089238670615     0.099137302340748
    H               -2.792619054001524     0.323089238670615     2.565137302340747
    H               -2.512619054001525     1.986089238670615     2.179137302340748
    H               -1.946619054001524    -2.065910761329385    -1.089862697659252
    H               -1.307619054001524    -0.508910761329385    -1.573862697659252
    H               -3.041979054001525    -0.887820761329385    -1.832762697659252

}
e, wfn = energy('scf', return_wfn=True)
gdma(wfn)
dmavals = variable('DMA DISTRIBUTED MULTIPOLES')
charges = np.array(dmavals)
print(charges)
np.save('SSI-042TRP-049ARG-1-dimer.npy', np.array(charges))--------------------------------------------------------------------------

*** tstart() called on ds3
*** at Mon Apr 27 13:42:46 2020

   => Loading Basis Set <=

    Name: CC-PVDZ
    Role: ORBITAL
    Keyword: BASIS
    atoms 1-9, 20-21   entry C          line   138 file /theoryfs2/ds/metcalf/miniconda2/envs/tf2gpu/share/psi4/basis/cc-pvdz.gbs
    atoms 10, 22-24    entry N          line   168 file /theoryfs2/ds/metcalf/miniconda2/envs/tf2gpu/share/psi4/basis/cc-pvdz.gbs
    atoms 11-19, 25-32 entry H          line    22 file /theoryfs2/ds/metcalf/miniconda2/envs/tf2gpu/share/psi4/basis/cc-pvdz.gbs

         ---------------------------------------------------------
                                   SCF
               by Justin Turney, Rob Parrish, Andy Simmonett
                          and Daniel G. A. Smith
                              RHF Reference
                        1 Threads,    500 MiB Core
         ---------------------------------------------------------

  ==> Geometry <==

    Molecular point group: c1
    Full point group: C1

    Geometry (in Angstrom), charge = 1, multiplicity = 1:

       Center              X                  Y                   Z               Mass
    ------------   -----------------  -----------------  -----------------  -----------------
         C            0.832380945998    -0.038910761329     2.795137302341    12.000000000000
         C            1.089380945998     0.384089238671     1.374137302341    12.000000000000
         C            1.390380945998     1.638089238671     0.940137302341    12.000000000000
         C            1.173380945998    -0.471910761329     0.213137302341    12.000000000000
         C            1.541380945998     0.346089238671    -0.890862697659    12.000000000000
         C            0.978380945998    -1.847910761329    -0.008862697659    12.000000000000
         C            1.715380945998    -0.163910761329    -2.176862697659    12.000000000000
         C            1.156380945998    -2.362910761329    -1.301862697659    12.000000000000
         C            1.520380945998    -1.523910761329    -2.370862697659    12.000000000000
         N            1.662380945998     1.623089238671    -0.406862697659    14.003074004430
         H            0.092380945998    -0.840910761329     2.802137302341     1.007825032230
         H            0.424380945998     0.809089238671     3.347137302341     1.007825032230
         H            1.456380945998     2.513089238671     1.581137302341     1.007825032230
         H            1.947380945998     2.443089238671    -0.931862697659     1.007825032230
         H            0.672380945998    -2.492910761329     0.802137302341     1.007825032230
         H            1.993380945998     0.480089238671    -2.999862697659     1.007825032230
         H            1.008380945998    -3.419910761329    -1.481862697659     1.007825032230
         H            1.647380945998    -1.941910761329    -3.360862697659     1.007825032230
         H            1.754280945998    -0.382650761329     3.287007302341     1.007825032230
         C           -2.185619054002    -1.001910761329    -1.151862697659    12.000000000000
         C           -2.352619054002     0.722089238671     0.618137302341    12.000000000000
         N           -2.460619054002    -0.531910761329     0.209137302341    14.003074004430
         N           -1.977619054002     1.667089238671    -0.217862697659    14.003074004430
         N           -2.604619054002     1.030089238671     1.871137302341    14.003074004430
         H           -2.705619054002    -1.246910761329     0.890137302341     1.007825032230
         H           -1.733619054002     1.429089238671    -1.162862697659     1.007825032230
         H           -1.868619054002     2.617089238671     0.099137302341     1.007825032230
         H           -2.792619054002     0.323089238671     2.565137302341     1.007825032230
         H           -2.512619054002     1.986089238671     2.179137302341     1.007825032230
         H           -1.946619054002    -2.065910761329    -1.089862697659     1.007825032230
         H           -1.307619054002    -0.508910761329    -1.573862697659     1.007825032230
         H           -3.041979054002    -0.887820761329    -1.832762697659     1.007825032230

  Running in c1 symmetry.

  Rotational constants: A =      0.02543  B =      0.01717  C =      0.01424 [cm^-1]
  Rotational constants: A =    762.48398  B =    514.71286  C =    426.84574 [MHz]
  Nuclear repulsion = 1024.197574987988446

  Charge       = 1
  Multiplicity = 1
  Electrons    = 110
  Nalpha       = 55
  Nbeta        = 55

  ==> Algorithm <==

  SCF Algorithm Type is PK.
  DIIS enabled.
  MOM disabled.
  Fractional occupation disabled.
  Guess Type is SAD.
  Energy threshold   = 1.00e-06
  Density threshold  = 1.00e-10
  Integral threshold = 0.00e+00

  ==> Primary Basis <==

  Basis Set: CC-PVDZ
    Blend: CC-PVDZ
    Number of shells: 141
    Number of basis function: 295
    Number of Cartesian functions: 310
    Spherical Harmonics?: true
    Max angular momentum: 2

  ==> Pre-Iterations <==

   -------------------------------------------------------
    Irrep   Nso     Nmo     Nalpha   Nbeta   Ndocc  Nsocc
   -------------------------------------------------------
     A        295     295       0       0       0       0
   -------------------------------------------------------
    Total     295     295      55      55      55       0
   -------------------------------------------------------

  ==> Integral Setup <==

  Using integral reordering PK algorithm.
  Sizing the integral batches needed.
  Building batch lookup table.
   Calculation information:
      Number of atoms:                  32
      Number of AO shells:             141
      Number of primitives:            415
      Number of atomic orbitals:       310
      Number of basis functions:       295

      Integral cutoff                 1.00e-12
      Number of threads:                 1

	Batch   1 pq = [       0,    9405] index = [             0,44231715] size =     44231715
	Batch   2 pq = [    9405,   13301] index = [      44231715,88464951] size =     44233236
	Batch   3 pq = [   13301,   16290] index = [      88464951,132690195] size =     44225244
	Batch   4 pq = [   16290,   18810] index = [     132690195,176917455] size =     44227260
	Batch   5 pq = [   18810,   21030] index = [     176917455,221140965] size =     44223510
	Batch   6 pq = [   21030,   23037] index = [     221140965,265363203] size =     44222238
	Batch   7 pq = [   23037,   24883] index = [     265363203,309594286] size =     44231083
	Batch   8 pq = [   24883,   26601] index = [     309594286,353819901] size =     44225615
	Batch   9 pq = [   26601,   28214] index = [     353819901,398029005] size =     44209104
	Batch  10 pq = [   28214,   29740] index = [     398029005,442248670] size =     44219665
	Batch  11 pq = [   29740,   31191] index = [     442248670,486454836] size =     44206166
	Batch  12 pq = [   31191,   32578] index = [     486454836,530679331] size =     44224495
	Batch  13 pq = [   32578,   33908] index = [     530679331,574893186] size =     44213855
	Batch  14 pq = [   33908,   35188] index = [     574893186,619115266] size =     44222080
	Batch  15 pq = [   35188,   36423] index = [     619115266,663335676] size =     44220410
	Batch  16 pq = [   36423,   37617] index = [     663335676,707538153] size =     44202477
	Batch  17 pq = [   37617,   38775] index = [     707538153,751769700] size =     44231547
	Batch  18 pq = [   38775,   39899] index = [     751769700,795985050] size =     44215350
	Batch  19 pq = [   39899,   40992] index = [     795985050,840192528] size =     44207478
	Batch  20 pq = [   40992,   42057] index = [     840192528,884416653] size =     44224125
	Batch  21 pq = [   42057,   43095] index = [     884416653,928611060] size =     44194407
	Batch  22 pq = [   43095,   43660] index = [     928611060,953119630] size =     24508570
  Task number: 87
  Buffer size: 11059200
  Buffer per thread: 2
  We computed 65871968 shell quartets total.
  Whereas there are 50115066 unique shell quartets.
    31.44 percent of shell quartets recomputed by reordering.

  ==> DiskJK: Disk-Based J/K Matrices <==

    J tasked:                  Yes
    K tasked:                  Yes
    wK tasked:                  No
    Memory [MiB]:              375
    Schwarz Cutoff:          1E-12

    OpenMP threads:              1

  Minimum eigenvalue in the overlap matrix is 2.4639655327E-04.
  Using Symmetric Orthogonalization.

  SCF Guess: Superposition of Atomic Densities via on-the-fly atomic UHF.

  ==> Iterations <==

                        Total Energy        Delta E     RMS |[F,P]|

   @RHF iter SAD:  -643.76187008685565   -6.43762e+02   0.00000e+00
   @RHF iter   1:  -643.81334996362068   -5.14799e-02   2.35617e-03 DIIS
   @RHF iter   2:  -644.08130992391978   -2.67960e-01   9.74989e-04 DIIS
   @RHF iter   3:  -644.12290362247086   -4.15937e-02   2.81695e-04 DIIS
   @RHF iter   4:  -644.12743542906935   -4.53181e-03   1.16892e-04 DIIS
   @RHF iter   5:  -644.12809189236884   -6.56463e-04   2.00935e-05 DIIS
   @RHF iter   6:  -644.12813041360289   -3.85212e-05   8.70716e-06 DIIS
   @RHF iter   7:  -644.12813722008434   -6.80648e-06   3.16499e-06 DIIS
   @RHF iter   8:  -644.12813873056621   -1.51048e-06   1.21485e-06 DIIS
   @RHF iter   9:  -644.12813898337913   -2.52813e-07   5.89255e-07 DIIS
   @RHF iter  10:  -644.12813905948292   -7.61038e-08   2.71781e-07 DIIS
   @RHF iter  11:  -644.12813907847271   -1.89898e-08   1.02779e-07 DIIS
   @RHF iter  12:  -644.12813908104181   -2.56910e-09   4.35165e-08 DIIS
   @RHF iter  13:  -644.12813908134297   -3.01156e-10   1.53781e-08 DIIS
   @RHF iter  14:  -644.12813908136786   -2.48974e-11   6.04964e-09 DIIS
   @RHF iter  15:  -644.12813908139196   -2.41016e-11   2.01256e-09 DIIS
   @RHF iter  16:  -644.12813908137184    2.01226e-11   7.85752e-10 DIIS
   @RHF iter  17:  -644.12813908138776   -1.59162e-11   4.30251e-10 DIIS
   @RHF iter  18:  -644.12813908138082    6.93490e-12   2.11717e-10 DIIS
   @RHF iter  19:  -644.12813908138776   -6.93490e-12   8.54139e-11 DIIS
  Energy and wave function converged.

  ==> Post-Iterations <==

    Orbital Energies [Eh]
    ---------------------

    Doubly Occupied:

       1A    -15.774423     2A    -15.772035     3A    -15.769708
       4A    -15.712201     5A    -11.573730     6A    -11.418394
       7A    -11.375964     8A    -11.375488     9A    -11.341981
      10A    -11.338861    11A    -11.338778    12A    -11.336208
      13A    -11.334088    14A    -11.330802    15A    -11.330360
      16A     -1.531584    17A     -1.405913    18A     -1.386224
      19A     -1.378142    20A     -1.234624    21A     -1.182776
      22A     -1.122658    23A     -1.103835    24A     -1.096550
      25A     -1.041289    26A     -1.023056    27A     -0.965997
      28A     -0.947734    29A     -0.926250    30A     -0.910890
      31A     -0.861127    32A     -0.846294    33A     -0.843541
      34A     -0.827902    35A     -0.808793    36A     -0.775348
      37A     -0.771536    38A     -0.747978    39A     -0.725306
      40A     -0.710299    41A     -0.703583    42A     -0.697774
      43A     -0.696457    44A     -0.677416    45A     -0.663260
      46A     -0.646486    47A     -0.635582    48A     -0.603133
      49A     -0.602716    50A     -0.579566    51A     -0.570862
      52A     -0.565334    53A     -0.483205    54A     -0.405069
      55A     -0.386462

    Virtual:

      56A     -0.006593    57A      0.015838    58A      0.031504
      59A      0.044138    60A      0.045742    61A      0.058450
      62A      0.070983    63A      0.083700    64A      0.088269
      65A      0.105071    66A      0.110847    67A      0.114186
      68A      0.125081    69A      0.131960    70A      0.134601
      71A      0.154781    72A      0.170039    73A      0.171596
      74A      0.179915    75A      0.188933    76A      0.200973
      77A      0.215521    78A      0.264472    79A      0.270886
      80A      0.283365    81A      0.301634    82A      0.314096
      83A      0.328959    84A      0.343835    85A      0.350426
      86A      0.363748    87A      0.372824    88A      0.386342
      89A      0.400132    90A      0.436350    91A      0.456662
      92A      0.470241    93A      0.496382    94A      0.511668
      95A      0.513291    96A      0.529189    97A      0.531296
      98A      0.544766    99A      0.548392   100A      0.563623
     101A      0.571162   102A      0.586045   103A      0.606592
     104A      0.612630   105A      0.626483   106A      0.631441
     107A      0.635069   108A      0.641951   109A      0.649667
     110A      0.654842   111A      0.664185   112A      0.673402
     113A      0.681357   114A      0.689318   115A      0.700378
     116A      0.710638   117A      0.716689   118A      0.736834
     119A      0.741866   120A      0.752472   121A      0.766382
     122A      0.770623   123A      0.774141   124A      0.783578
     125A      0.790888   126A      0.799250   127A      0.803388
     128A      0.814825   129A      0.823667   130A      0.833530
     131A      0.845576   132A      0.859035   133A      0.862580
     134A      0.871331   135A      0.891905   136A      0.899587
     137A      0.905274   138A      0.917753   139A      0.920105
     140A      0.920750   141A      0.947543   142A      0.950720
     143A      0.967784   144A      0.984473   145A      0.996587
     146A      1.020794   147A      1.029484   148A      1.034488
     149A      1.043139   150A      1.054268   151A      1.071901
     152A      1.076972   153A      1.098419   154A      1.102748
     155A      1.119846   156A      1.127969   157A      1.138381
     158A      1.142253   159A      1.157882   160A      1.165297
     161A      1.175299   162A      1.189808   163A      1.197798
     164A      1.214403   165A      1.218907   166A      1.222260
     167A      1.242883   168A      1.251497   169A      1.256281
     170A      1.289274   171A      1.307457   172A      1.327298
     173A      1.336712   174A      1.408002   175A      1.418864
     176A      1.448697   177A      1.459266   178A      1.491496
     179A      1.511478   180A      1.517313   181A      1.520587
     182A      1.531480   183A      1.542909   184A      1.555989
     185A      1.566926   186A      1.592600   187A      1.603234
     188A      1.615648   189A      1.628023   190A      1.646561
     191A      1.656954   192A      1.661616   193A      1.678507
     194A      1.689186   195A      1.710481   196A      1.710918
     197A      1.723596   198A      1.737170   199A      1.745277
     200A      1.768851   201A      1.776428   202A      1.778442
     203A      1.796135   204A      1.797090   205A      1.805417
     206A      1.807023   207A      1.818344   208A      1.828744
     209A      1.836695   210A      1.839264   211A      1.847166
     212A      1.856592   213A      1.861178   214A      1.885197
     215A      1.893945   216A      1.900895   217A      1.908313
     218A      1.913226   219A      1.923317   220A      1.953100
     221A      1.961963   222A      1.983608   223A      1.994565
     224A      1.996695   225A      2.007985   226A      2.012088
     227A      2.017064   228A      2.040232   229A      2.046925
     230A      2.058515   231A      2.063815   232A      2.068402
     233A      2.086087   234A      2.118429   235A      2.147766
     236A      2.157054   237A      2.167049   238A      2.185718
     239A      2.197336   240A      2.205569   241A      2.209190
     242A      2.235308   243A      2.244925   244A      2.266597
     245A      2.270417   246A      2.295638   247A      2.302376
     248A      2.317077   249A      2.337973   250A      2.348665
     251A      2.361335   252A      2.370622   253A      2.393795
     254A      2.445133   255A      2.462512   256A      2.468250
     257A      2.482045   258A      2.502311   259A      2.527127
     260A      2.550468   261A      2.560921   262A      2.583223
     263A      2.598269   264A      2.628294   265A      2.642876
     266A      2.666907   267A      2.671347   268A      2.673564
     269A      2.676078   270A      2.689614   271A      2.715669
     272A      2.741954   273A      2.751384   274A      2.768909
     275A      2.787395   276A      2.799235   277A      2.809579
     278A      2.841758   279A      2.860886   280A      2.869324
     281A      2.916170   282A      2.920633   283A      2.953783
     284A      2.955937   285A      3.010441   286A      3.074876
     287A      3.087219   288A      3.105235   289A      3.148112
     290A      3.179073   291A      3.267831   292A      3.598468
     293A      3.633678   294A      3.677549   295A      3.822893

    Final Occupation by Irrep:
              A
    DOCC [    55 ]

  @RHF Final Energy:  -644.12813908138776

   => Energetics <=

    Nuclear Repulsion Energy =           1024.1975749879884461
    One-Electron Energy =               -2892.2202900514639623
    Two-Electron Energy =                1223.8945759820876447
    Total Energy =                       -644.1281390813878716

Computation Completed

Properties will be evaluated at   0.000000,   0.000000,   0.000000 [a0]

Properties computed using the SCF density matrix

  Nuclear Dipole Moment: [e a0]
     X:    -6.4651      Y:    -1.1239      Z:     2.9200

  Electronic Dipole Moment: [e a0]
     X:     3.0599      Y:     2.8274      Z:    -2.1344

  Dipole Moment: [e a0]
     X:    -3.4052      Y:     1.7035      Z:     0.7856     Total:     3.8877

  Dipole Moment: [D]
     X:    -8.6552      Y:     4.3299      Z:     1.9968     Total:     9.8817

*** tstop() called on ds3 at Mon Apr 27 13:57:46 2020
Module time:
	user time   =     569.08 seconds =       9.48 minutes
	system time =     166.21 seconds =       2.77 minutes
	total time  =        900 seconds =      15.00 minutes
Total time:
	user time   =     569.08 seconds =       9.48 minutes
	system time =     166.21 seconds =       2.77 minutes
	total time  =        900 seconds =      15.00 minutes
                                     G D M A

                                 by Anthony Stone

                           version 2.2.06, 22 June 2011

               Distributed Multipoles from Gaussian wavefunctions

Starting at 13:57:46 on 27 Apr 2020

Using SCF density matrix from file ./SSI/SSI-042TRP-049ARG-1-dimer.test.7584.fchk

                         Distributed Multipole Analysis

Standard DMA

Positions and radii in angstrom
Multipole moments in atomic units, ea_0^k for rank k

C          x =  0.832381  y = -0.038911  z =  2.795137 angstrom
           Maximum rank =  0   Radius =  0.650 angstrom
                   Q00  =  -0.189720

C          x =  1.089381  y =  0.384089  z =  1.374137 angstrom
           Maximum rank =  0   Radius =  0.650 angstrom
                   Q00  =  -0.141738

C          x =  1.390381  y =  1.638089  z =  0.940137 angstrom
           Maximum rank =  0   Radius =  0.650 angstrom
                   Q00  =   0.067617

C          x =  1.173381  y = -0.471911  z =  0.213137 angstrom
           Maximum rank =  0   Radius =  0.650 angstrom
                   Q00  =  -0.073086

C          x =  1.541381  y =  0.346089  z = -0.890863 angstrom
           Maximum rank =  0   Radius =  0.650 angstrom
                   Q00  =   0.266108

C          x =  0.978381  y = -1.847911  z = -0.008863 angstrom
           Maximum rank =  0   Radius =  0.650 angstrom
                   Q00  =  -0.099504

C          x =  1.715381  y = -0.163911  z = -2.176863 angstrom
           Maximum rank =  0   Radius =  0.650 angstrom
                   Q00  =  -0.126741

C          x =  1.156381  y = -2.362911  z = -1.301863 angstrom
           Maximum rank =  0   Radius =  0.650 angstrom
                   Q00  =  -0.090324

C          x =  1.520381  y = -1.523911  z = -2.370863 angstrom
           Maximum rank =  0   Radius =  0.650 angstrom
                   Q00  =  -0.067034

N          x =  1.662381  y =  1.623089  z = -0.406863 angstrom
           Maximum rank =  0   Radius =  0.650 angstrom
                   Q00  =  -0.502263

H          x =  0.092381  y = -0.840911  z =  2.802137 angstrom
           Maximum rank =  0   Radius =  0.325 angstrom
                   Q00  =   0.073843

H          x =  0.424381  y =  0.809089  z =  3.347137 angstrom
           Maximum rank =  0   Radius =  0.325 angstrom
                   Q00  =   0.093941

H          x =  1.456381  y =  2.513089  z =  1.581137 angstrom
           Maximum rank =  0   Radius =  0.325 angstrom
                   Q00  =   0.106776

H          x =  1.947381  y =  2.443089  z = -0.931863 angstrom
           Maximum rank =  0   Radius =  0.325 angstrom
                   Q00  =   0.229376

H          x =  0.672381  y = -2.492911  z =  0.802137 angstrom
           Maximum rank =  0   Radius =  0.325 angstrom
                   Q00  =   0.071647

H          x =  1.993381  y =  0.480089  z = -2.999863 angstrom
           Maximum rank =  0   Radius =  0.325 angstrom
                   Q00  =   0.088961

H          x =  1.008381  y = -3.419911  z = -1.481863 angstrom
           Maximum rank =  0   Radius =  0.325 angstrom
                   Q00  =   0.079035

H          x =  1.647381  y = -1.941911  z = -3.360863 angstrom
           Maximum rank =  0   Radius =  0.325 angstrom
                   Q00  =   0.087591

H          x =  1.754281  y = -0.382651  z =  3.287007 angstrom
           Maximum rank =  0   Radius =  0.325 angstrom
                   Q00  =   0.130707

C          x = -2.185619  y = -1.001911  z = -1.151863 angstrom
           Maximum rank =  0   Radius =  0.650 angstrom
                   Q00  =  -0.126767

C          x = -2.352619  y =  0.722089  z =  0.618137 angstrom
           Maximum rank =  0   Radius =  0.650 angstrom
                   Q00  =   1.079379

N          x = -2.460619  y = -0.531911  z =  0.209137 angstrom
           Maximum rank =  0   Radius =  0.650 angstrom
                   Q00  =  -0.486777

N          x = -1.977619  y =  1.667089  z = -0.217863 angstrom
           Maximum rank =  0   Radius =  0.650 angstrom
                   Q00  =  -0.569277

N          x = -2.604619  y =  1.030089  z =  1.871137 angstrom
           Maximum rank =  0   Radius =  0.650 angstrom
                   Q00  =  -0.585964

H          x = -2.705619  y = -1.246911  z =  0.890137 angstrom
           Maximum rank =  0   Radius =  0.325 angstrom
                   Q00  =   0.232004

H          x = -1.733619  y =  1.429089  z = -1.162863 angstrom
           Maximum rank =  0   Radius =  0.325 angstrom
                   Q00  =   0.271176

H          x = -1.868619  y =  2.617089  z =  0.099137 angstrom
           Maximum rank =  0   Radius =  0.325 angstrom
                   Q00  =   0.260366

H          x = -2.792619  y =  0.323089  z =  2.565137 angstrom
           Maximum rank =  0   Radius =  0.325 angstrom
                   Q00  =   0.264988

H          x = -2.512619  y =  1.986089  z =  2.179137 angstrom
           Maximum rank =  0   Radius =  0.325 angstrom
                   Q00  =   0.256241

H          x = -1.946619  y = -2.065911  z = -1.089863 angstrom
           Maximum rank =  0   Radius =  0.325 angstrom
                   Q00  =   0.158679

H          x = -1.307619  y = -0.508911  z = -1.573863 angstrom
           Maximum rank =  0   Radius =  0.325 angstrom
                   Q00  =   0.119991

H          x = -3.041979  y = -0.887821  z = -1.832763 angstrom
           Maximum rank =  0   Radius =  0.325 angstrom
                   Q00  =   0.120767

Total multipoles referred to origin at
           x =   0.000000,  y =    0.000000,  z =    0.000000 angstrom
                   Q00  =   1.000000

Finished at 13:57:46 on 27 Apr 2020

  DMA results are available in the Python driver through the
	  variable('DMA DISTRIBUTED MULTIPOLES')
  and
	  variable('DMA TOTAL MULTIPOLES')
  commands.

    Psi4 stopped on: Monday, 27 April 2020 01:57PM
    Psi4 wall time for execution: 0:15:00.05

*** Psi4 exiting successfully. Buy a developer a beer!
