                               Psi4 1.3.2 release

  ==> Input File <==

--------------------------------------------------------------------------
import numpy as np
set {scf_type pk
basis cc-pvdz
d_convergence 10
gdma_switch   0
gdma_limit    0
gdma_origin   [ 0.0,  0.0,  0.0 ]
}
molecule test {
    units Angstrom
    0 1
    --
    0 1
    C                2.510223731612497    -0.085452028239070     0.066837246207416
    C                2.926223731612497     1.374547971760930     0.077837246207416
    O                2.918223731612497    -0.661452028239070    -1.139162753792584
    H                2.997223731612498    -0.606452028239070     0.892837246207416
    H                1.433223731612497    -0.182452028239070     0.183837246207416
    H                2.818223731612497     1.731547971760930     1.100837246207416
    H                2.534223731612497    -1.546452028239070    -1.205162753792584
    H                2.256382731612498     1.955789971760930    -0.572912753792584
    H                3.975293731612497     1.476984971760930    -0.236742753792584
    C               -0.925776268387503     0.404547971760930     3.031837246207416
    C               -0.855776268387503     0.935547971760930    -0.700162753792584
    C               -1.284776268387503    -0.277452028239070    -1.192162753792584
    C               -0.732776268387503     1.143547971760930     0.655837246207416
    C               -1.065776268387503     0.148547971760930     1.548837246207416
    C               -1.644776268387503    -1.286452028239070    -0.328162753792584
    C               -1.530776268387503    -1.071452028239070     1.040837246207416
    O               -1.401776268387503    -0.467452028239070    -2.534162753792584
    H               -0.616776268387503     1.709547971760930    -1.407162753792584
    H               -0.365776268387503     2.093547971760930     1.017837246207416
    H               -2.001776268387503    -2.234452028239070    -0.705162753792584
    H               -1.726776268387503    -1.348452028239070    -2.747162753792584
    H               -0.564776268387503     1.420547971760930     3.182837246207416
    H               -0.157776268387503    -0.267452028239070     3.416837246207416
    H               -1.801776268387503    -1.866452028239070     1.723837246207416
    H               -1.841039068387503     0.269354971760930     3.626827246207416

}
e, wfn = energy('scf', return_wfn=True)
gdma(wfn)
dmavals = variable('DMA DISTRIBUTED MULTIPOLES')
charges = np.array(dmavals)
print(charges)
np.save('SSI-065SER-108TYR-1-dimer.npy', np.array(charges))--------------------------------------------------------------------------

*** tstart() called on ds3
*** at Mon Apr 27 07:28:03 2020

   => Loading Basis Set <=

    Name: CC-PVDZ
    Role: ORBITAL
    Keyword: BASIS
    atoms 1-2, 10-16 entry C          line   138 file /theoryfs2/ds/metcalf/miniconda2/envs/tf2gpu/share/psi4/basis/cc-pvdz.gbs
    atoms 3, 17      entry O          line   198 file /theoryfs2/ds/metcalf/miniconda2/envs/tf2gpu/share/psi4/basis/cc-pvdz.gbs
    atoms 4-9, 18-25 entry H          line    22 file /theoryfs2/ds/metcalf/miniconda2/envs/tf2gpu/share/psi4/basis/cc-pvdz.gbs

         ---------------------------------------------------------
                                   SCF
               by Justin Turney, Rob Parrish, Andy Simmonett
                          and Daniel G. A. Smith
                              RHF Reference
                        1 Threads,    500 MiB Core
         ---------------------------------------------------------

  ==> Geometry <==

    Molecular point group: c1
    Full point group: C1

    Geometry (in Angstrom), charge = 0, multiplicity = 1:

       Center              X                  Y                   Z               Mass
    ------------   -----------------  -----------------  -----------------  -----------------
         C            2.510223731612    -0.085452028239     0.066837246207    12.000000000000
         C            2.926223731612     1.374547971761     0.077837246207    12.000000000000
         O            2.918223731612    -0.661452028239    -1.139162753793    15.994914619570
         H            2.997223731612    -0.606452028239     0.892837246207     1.007825032230
         H            1.433223731612    -0.182452028239     0.183837246207     1.007825032230
         H            2.818223731612     1.731547971761     1.100837246207     1.007825032230
         H            2.534223731612    -1.546452028239    -1.205162753793     1.007825032230
         H            2.256382731612     1.955789971761    -0.572912753793     1.007825032230
         H            3.975293731612     1.476984971761    -0.236742753793     1.007825032230
         C           -0.925776268388     0.404547971761     3.031837246207    12.000000000000
         C           -0.855776268388     0.935547971761    -0.700162753793    12.000000000000
         C           -1.284776268388    -0.277452028239    -1.192162753793    12.000000000000
         C           -0.732776268388     1.143547971761     0.655837246207    12.000000000000
         C           -1.065776268388     0.148547971761     1.548837246207    12.000000000000
         C           -1.644776268388    -1.286452028239    -0.328162753793    12.000000000000
         C           -1.530776268388    -1.071452028239     1.040837246207    12.000000000000
         O           -1.401776268388    -0.467452028239    -2.534162753793    15.994914619570
         H           -0.616776268388     1.709547971761    -1.407162753793     1.007825032230
         H           -0.365776268388     2.093547971761     1.017837246207     1.007825032230
         H           -2.001776268388    -2.234452028239    -0.705162753793     1.007825032230
         H           -1.726776268388    -1.348452028239    -2.747162753793     1.007825032230
         H           -0.564776268388     1.420547971761     3.182837246207     1.007825032230
         H           -0.157776268388    -0.267452028239     3.416837246207     1.007825032230
         H           -1.801776268388    -1.866452028239     1.723837246207     1.007825032230
         H           -1.841039068388     0.269354971761     3.626827246207     1.007825032230

  Running in c1 symmetry.

  Rotational constants: A =      0.03589  B =      0.02607  C =      0.01852 [cm^-1]
  Rotational constants: A =   1075.95888  B =    781.51108  C =    555.32419 [MHz]
  Nuclear repulsion =  604.271926532460157

  Charge       = 0
  Multiplicity = 1
  Electrons    = 84
  Nalpha       = 42
  Nbeta        = 42

  ==> Algorithm <==

  SCF Algorithm Type is PK.
  DIIS enabled.
  MOM disabled.
  Fractional occupation disabled.
  Guess Type is SAD.
  Energy threshold   = 1.00e-06
  Density threshold  = 1.00e-10
  Integral threshold = 0.00e+00

  ==> Primary Basis <==

  Basis Set: CC-PVDZ
    Blend: CC-PVDZ
    Number of shells: 108
    Number of basis function: 224
    Number of Cartesian functions: 235
    Spherical Harmonics?: true
    Max angular momentum: 2

  ==> Pre-Iterations <==

   -------------------------------------------------------
    Irrep   Nso     Nmo     Nalpha   Nbeta   Ndocc  Nsocc
   -------------------------------------------------------
     A        224     224       0       0       0       0
   -------------------------------------------------------
    Total     224     224      42      42      42       0
   -------------------------------------------------------

  ==> Integral Setup <==

  Using integral reordering PK algorithm.
  Sizing the integral batches needed.
  Building batch lookup table.
   Calculation information:
      Number of atoms:                  25
      Number of AO shells:             108
      Number of primitives:            312
      Number of atomic orbitals:       235
      Number of basis functions:       224

      Integral cutoff                 1.00e-12
      Number of threads:                 1

	Batch   1 pq = [       0,    9405] index = [             0,44231715] size =     44231715
	Batch   2 pq = [    9405,   13301] index = [      44231715,88464951] size =     44233236
	Batch   3 pq = [   13301,   16290] index = [      88464951,132690195] size =     44225244
	Batch   4 pq = [   16290,   18810] index = [     132690195,176917455] size =     44227260
	Batch   5 pq = [   18810,   21030] index = [     176917455,221140965] size =     44223510
	Batch   6 pq = [   21030,   23037] index = [     221140965,265363203] size =     44222238
	Batch   7 pq = [   23037,   24883] index = [     265363203,309594286] size =     44231083
	Batch   8 pq = [   24883,   25200] index = [     309594286,317532600] size =      7938314
  Task number: 29
  Buffer size: 11059200
  Buffer per thread: 2
  We computed 17609246 shell quartets total.
  Whereas there are 17325441 unique shell quartets.
     1.64 percent of shell quartets recomputed by reordering.

  ==> DiskJK: Disk-Based J/K Matrices <==

    J tasked:                  Yes
    K tasked:                  Yes
    wK tasked:                  No
    Memory [MiB]:              375
    Schwarz Cutoff:          1E-12

    OpenMP threads:              1

  Minimum eigenvalue in the overlap matrix is 3.0421004819E-04.
  Using Symmetric Orthogonalization.

  SCF Guess: Superposition of Atomic Densities via on-the-fly atomic UHF.

  ==> Iterations <==

                        Total Energy        Delta E     RMS |[F,P]|

   @RHF iter SAD:  -497.60546238326157   -4.97605e+02   0.00000e+00
   @RHF iter   1:  -498.42994068116997   -8.24478e-01   3.03247e-03 DIIS
   @RHF iter   2:  -498.66516701240130   -2.35226e-01   1.37227e-03 DIIS
   @RHF iter   3:  -498.70681400036756   -4.16470e-02   2.88725e-04 DIIS
   @RHF iter   4:  -498.70996787915300   -3.15388e-03   1.04111e-04 DIIS
   @RHF iter   5:  -498.71027958468744   -3.11706e-04   2.11287e-05 DIIS
   @RHF iter   6:  -498.71029795457821   -1.83699e-05   7.87219e-06 DIIS
   @RHF iter   7:  -498.71030034635942   -2.39178e-06   2.42737e-06 DIIS
   @RHF iter   8:  -498.71030065800903   -3.11650e-07   7.47175e-07 DIIS
   @RHF iter   9:  -498.71030069739584   -3.93868e-08   2.75442e-07 DIIS
   @RHF iter  10:  -498.71030070365498   -6.25914e-09   1.24809e-07 DIIS
   @RHF iter  11:  -498.71030070549648   -1.84150e-09   6.00883e-08 DIIS
   @RHF iter  12:  -498.71030070592445   -4.27974e-10   2.78326e-08 DIIS
   @RHF iter  13:  -498.71030070602581   -1.01352e-10   8.08465e-09 DIIS
   @RHF iter  14:  -498.71030070602927   -3.46745e-12   2.12084e-09 DIIS
   @RHF iter  15:  -498.71030070602995   -6.82121e-13   7.43718e-10 DIIS
   @RHF iter  16:  -498.71030070603013   -1.70530e-13   2.36134e-10 DIIS
   @RHF iter  17:  -498.71030070602910    1.02318e-12   8.58337e-11 DIIS
  Energy and wave function converged.

  ==> Post-Iterations <==

    Orbital Energies [Eh]
    ---------------------

    Doubly Occupied:

       1A    -20.584892     2A    -20.535019     3A    -11.299509
       4A    -11.257010     5A    -11.244923     6A    -11.238419
       7A    -11.237617     8A    -11.237049     9A    -11.232362
      10A    -11.228239    11A    -11.211139    12A     -1.403769
      13A     -1.346266    14A     -1.161678    15A     -1.044562
      16A     -1.025996    17A     -0.998597    18A     -0.932394
      19A     -0.851608    20A     -0.819872    21A     -0.808099
      22A     -0.738056    23A     -0.685665    24A     -0.673172
      25A     -0.647477    26A     -0.635488    27A     -0.614659
      28A     -0.592229    29A     -0.591004    30A     -0.573819
      31A     -0.568178    32A     -0.557276    33A     -0.531317
      34A     -0.521778    35A     -0.516046    36A     -0.504359
      37A     -0.488504    38A     -0.480607    39A     -0.461196
      40A     -0.418788    41A     -0.345363    42A     -0.308337

    Virtual:

      43A      0.125712    44A      0.153023    45A      0.171152
      46A      0.175067    47A      0.200072    48A      0.201653
      49A      0.214900    50A      0.236985    51A      0.242529
      52A      0.256523    53A      0.268170    54A      0.278962
      55A      0.284034    56A      0.295352    57A      0.306358
      58A      0.328465    59A      0.368135    60A      0.376370
      61A      0.397890    62A      0.407995    63A      0.431023
      64A      0.452354    65A      0.485897    66A      0.494049
      67A      0.514614    68A      0.598408    69A      0.616106
      70A      0.616273    71A      0.625518    72A      0.642349
      73A      0.653005    74A      0.671159    75A      0.687228
      76A      0.707949    77A      0.715804    78A      0.725666
      79A      0.736894    80A      0.748123    81A      0.762389
      82A      0.766130    83A      0.776287    84A      0.779915
      85A      0.792591    86A      0.815076    87A      0.834105
      88A      0.851283    89A      0.856504    90A      0.867225
      91A      0.873007    92A      0.885874    93A      0.888757
      94A      0.893593    95A      0.904633    96A      0.909242
      97A      0.916278    98A      0.928232    99A      0.936534
     100A      0.942723   101A      0.949953   102A      0.955819
     103A      0.983620   104A      1.001585   105A      1.020098
     106A      1.051069   107A      1.112390   108A      1.127088
     109A      1.128564   110A      1.142178   111A      1.148225
     112A      1.159485   113A      1.182863   114A      1.209181
     115A      1.234434   116A      1.249060   117A      1.254201
     118A      1.268410   119A      1.280991   120A      1.287014
     121A      1.304972   122A      1.312471   123A      1.322008
     124A      1.342250   125A      1.364293   126A      1.375309
     127A      1.397805   128A      1.459923   129A      1.479331
     130A      1.492396   131A      1.511072   132A      1.525604
     133A      1.554344   134A      1.562264   135A      1.570263
     136A      1.614540   137A      1.620162   138A      1.639562
     139A      1.676720   140A      1.684229   141A      1.695179
     142A      1.730978   143A      1.744504   144A      1.780976
     145A      1.798131   146A      1.818856   147A      1.832504
     148A      1.862909   149A      1.882275   150A      1.889816
     151A      1.900272   152A      1.907670   153A      1.913083
     154A      1.916321   155A      1.920796   156A      1.930446
     157A      1.949026   158A      1.951979   159A      1.958827
     160A      1.966713   161A      1.975256   162A      1.994942
     163A      2.005178   164A      2.029990   165A      2.034006
     166A      2.043250   167A      2.058802   168A      2.060889
     169A      2.077742   170A      2.088205   171A      2.117578
     172A      2.144165   173A      2.154632   174A      2.184044
     175A      2.199762   176A      2.212919   177A      2.237049
     178A      2.253350   179A      2.272944   180A      2.279067
     181A      2.305937   182A      2.313391   183A      2.340707
     184A      2.370856   185A      2.385881   186A      2.390187
     187A      2.457275   188A      2.477718   189A      2.498521
     190A      2.511883   191A      2.520105   192A      2.543765
     193A      2.557366   194A      2.558637   195A      2.607764
     196A      2.614263   197A      2.660788   198A      2.744373
     199A      2.767503   200A      2.778044   201A      2.795642
     202A      2.807703   203A      2.816821   204A      2.823262
     205A      2.849970   206A      2.899248   207A      2.929955
     208A      2.971856   209A      2.990145   210A      3.016233
     211A      3.103949   212A      3.141057   213A      3.251419
     214A      3.301117   215A      3.348718   216A      3.350746
     217A      3.446173   218A      3.484396   219A      3.583307
     220A      3.651576   221A      3.680429   222A      3.997025
     223A      4.126900   224A      4.196647

    Final Occupation by Irrep:
              A
    DOCC [    42 ]

  @RHF Final Energy:  -498.71030070602910

   => Energetics <=

    Nuclear Repulsion Energy =            604.2719265324601565
    One-Electron Energy =               -1877.6597827164739556
    Two-Electron Energy =                 774.6775554779846971
    Total Energy =                       -498.7103007060291020

Computation Completed

Properties will be evaluated at   0.000000,   0.000000,   0.000000 [a0]

Properties computed using the SCF density matrix

  Nuclear Dipole Moment: [e a0]
     X:     6.5115      Y:     2.4368      Z:     7.7365

  Electronic Dipole Moment: [e a0]
     X:    -7.1875      Y:    -3.2343      Z:    -7.0645

  Dipole Moment: [e a0]
     X:    -0.6760      Y:    -0.7974      Z:     0.6720     Total:     1.2427

  Dipole Moment: [D]
     X:    -1.7181      Y:    -2.0269      Z:     1.7081     Total:     3.1588

*** tstop() called on ds3 at Mon Apr 27 07:31:11 2020
Module time:
	user time   =     137.84 seconds =       2.30 minutes
	system time =      50.08 seconds =       0.83 minutes
	total time  =        188 seconds =       3.13 minutes
Total time:
	user time   =     137.84 seconds =       2.30 minutes
	system time =      50.08 seconds =       0.83 minutes
	total time  =        188 seconds =       3.13 minutes
                                     G D M A

                                 by Anthony Stone

                           version 2.2.06, 22 June 2011

               Distributed Multipoles from Gaussian wavefunctions

Starting at 7:31:11 on 27 Apr 2020

Using SCF density matrix from file ./SSI/SSI-065SER-108TYR-1-dimer.test.13140.fchk

                         Distributed Multipole Analysis

Standard DMA

Positions and radii in angstrom
Multipole moments in atomic units, ea_0^k for rank k

C          x =  2.510224  y = -0.085452  z =  0.066837 angstrom
           Maximum rank =  0   Radius =  0.650 angstrom
                   Q00  =   0.094523

C          x =  2.926224  y =  1.374548  z =  0.077837 angstrom
           Maximum rank =  0   Radius =  0.650 angstrom
                   Q00  =  -0.238053

O          x =  2.918224  y = -0.661452  z = -1.139163 angstrom
           Maximum rank =  0   Radius =  0.650 angstrom
                   Q00  =  -0.571719

H          x =  2.997224  y = -0.606452  z =  0.892837 angstrom
           Maximum rank =  0   Radius =  0.325 angstrom
                   Q00  =   0.023570

H          x =  1.433224  y = -0.182452  z =  0.183837 angstrom
           Maximum rank =  0   Radius =  0.325 angstrom
                   Q00  =   0.051789

H          x =  2.818224  y =  1.731548  z =  1.100837 angstrom
           Maximum rank =  0   Radius =  0.325 angstrom
                   Q00  =   0.073494

H          x =  2.534224  y = -1.546452  z = -1.205163 angstrom
           Maximum rank =  0   Radius =  0.325 angstrom
                   Q00  =   0.382837

H          x =  2.256383  y =  1.955790  z = -0.572913 angstrom
           Maximum rank =  0   Radius =  0.325 angstrom
                   Q00  =   0.081195

H          x =  3.975294  y =  1.476985  z = -0.236743 angstrom
           Maximum rank =  0   Radius =  0.325 angstrom
                   Q00  =   0.094040

C          x = -0.925776  y =  0.404548  z =  3.031837 angstrom
           Maximum rank =  0   Radius =  0.650 angstrom
                   Q00  =  -0.206090

C          x = -0.855776  y =  0.935548  z = -0.700163 angstrom
           Maximum rank =  0   Radius =  0.650 angstrom
                   Q00  =   0.023990

C          x = -1.284776  y = -0.277452  z = -1.192163 angstrom
           Maximum rank =  0   Radius =  0.650 angstrom
                   Q00  =   0.305711

C          x = -0.732776  y =  1.143548  z =  0.655837 angstrom
           Maximum rank =  0   Radius =  0.650 angstrom
                   Q00  =  -0.057675

C          x = -1.065776  y =  0.148548  z =  1.548837 angstrom
           Maximum rank =  0   Radius =  0.650 angstrom
                   Q00  =  -0.136989

C          x = -1.644776  y = -1.286452  z = -0.328163 angstrom
           Maximum rank =  0   Radius =  0.650 angstrom
                   Q00  =  -0.179423

C          x = -1.530776  y = -1.071452  z =  1.040837 angstrom
           Maximum rank =  0   Radius =  0.650 angstrom
                   Q00  =  -0.046910

O          x = -1.401776  y = -0.467452  z = -2.534163 angstrom
           Maximum rank =  0   Radius =  0.650 angstrom
                   Q00  =  -0.680043

H          x = -0.616776  y =  1.709548  z = -1.407163 angstrom
           Maximum rank =  0   Radius =  0.325 angstrom
                   Q00  =   0.081692

H          x = -0.365776  y =  2.093548  z =  1.017837 angstrom
           Maximum rank =  0   Radius =  0.325 angstrom
                   Q00  =   0.063872

H          x = -2.001776  y = -2.234452  z = -0.705163 angstrom
           Maximum rank =  0   Radius =  0.325 angstrom
                   Q00  =   0.071927

H          x = -1.726776  y = -1.348452  z = -2.747163 angstrom
           Maximum rank =  0   Radius =  0.325 angstrom
                   Q00  =   0.405183

H          x = -0.564776  y =  1.420548  z =  3.182837 angstrom
           Maximum rank =  0   Radius =  0.325 angstrom
                   Q00  =   0.096993

H          x = -0.157776  y = -0.267452  z =  3.416837 angstrom
           Maximum rank =  0   Radius =  0.325 angstrom
                   Q00  =   0.096260

H          x = -1.801776  y = -1.866452  z =  1.723837 angstrom
           Maximum rank =  0   Radius =  0.325 angstrom
                   Q00  =   0.067777

H          x = -1.841039  y =  0.269355  z =  3.626827 angstrom
           Maximum rank =  0   Radius =  0.325 angstrom
                   Q00  =   0.102048

Total multipoles referred to origin at
           x =   0.000000,  y =    0.000000,  z =    0.000000 angstrom
                   Q00  =  -0.000000

Finished at 7:31:11 on 27 Apr 2020

  DMA results are available in the Python driver through the
	  variable('DMA DISTRIBUTED MULTIPOLES')
  and
	  variable('DMA TOTAL MULTIPOLES')
  commands.

    Psi4 stopped on: Monday, 27 April 2020 07:31AM
    Psi4 wall time for execution: 0:03:08.05

*** Psi4 exiting successfully. Buy a developer a beer!
