                               Psi4 1.3.2 release

  ==> Input File <==

--------------------------------------------------------------------------
import numpy as np
set {scf_type pk
basis cc-pvdz
d_convergence 10
gdma_switch   0
gdma_limit    0
gdma_origin   [ 0.0,  0.0,  0.0 ]
}
molecule test {
    units Angstrom
    0 1
    --
    0 1
    C               -0.066829000922912     0.478606959883179    -2.232522971097826
    C                0.612170999077088     0.272606959883179    -3.577522971097826
    H               -0.709829000922912    -0.368393040116821    -2.002522971097827
    H                0.690170999077089     0.555606959883179    -1.453522971097827
    H               -0.658829000922912     1.392606959883179    -2.248522971097827
    H                1.118170999077089    -0.687393040116821    -3.537522971097827
    H               -0.118716000922912     0.269734959883179    -4.399590971097827
    H                1.377668999077089     1.038104959883179    -3.772521971097827
    C                0.792170999077088     0.194606959883179     2.526477028902173
    C               -0.199829000922912    -0.143393040116821     1.434477028902173
    O               -1.074829000922912     0.636606959883179     1.062477028902173
    N               -0.085829000922912    -1.364393040116821     0.915477028902173
    H                1.739170999077088    -0.274393040116821     2.260477028902173
    H                0.447170999077088    -0.252393040116821     3.460477028902174
    H               -0.737829000922912    -1.640393040116821     0.197477028902173
    H                0.612170999077088    -2.007393040116821     1.256477028902173
    H                0.945324999077088     1.273873959883179     2.673877028902173

}
e, wfn = energy('scf', return_wfn=True)
gdma(wfn)
dmavals = variable('DMA DISTRIBUTED MULTIPOLES')
charges = np.array(dmavals)
print(charges)
np.save('SSI-048LEU-077GLN-1-dimer.npy', np.array(charges))--------------------------------------------------------------------------

*** tstart() called on ds3
*** at Mon Apr 27 08:17:31 2020

   => Loading Basis Set <=

    Name: CC-PVDZ
    Role: ORBITAL
    Keyword: BASIS
    atoms 1-2, 9-10  entry C          line   138 file /theoryfs2/ds/metcalf/miniconda2/envs/tf2gpu/share/psi4/basis/cc-pvdz.gbs
    atoms 3-8, 13-17 entry H          line    22 file /theoryfs2/ds/metcalf/miniconda2/envs/tf2gpu/share/psi4/basis/cc-pvdz.gbs
    atoms 11         entry O          line   198 file /theoryfs2/ds/metcalf/miniconda2/envs/tf2gpu/share/psi4/basis/cc-pvdz.gbs
    atoms 12         entry N          line   168 file /theoryfs2/ds/metcalf/miniconda2/envs/tf2gpu/share/psi4/basis/cc-pvdz.gbs

         ---------------------------------------------------------
                                   SCF
               by Justin Turney, Rob Parrish, Andy Simmonett
                          and Daniel G. A. Smith
                              RHF Reference
                        1 Threads,    500 MiB Core
         ---------------------------------------------------------

  ==> Geometry <==

    Molecular point group: c1
    Full point group: C1

    Geometry (in Angstrom), charge = 0, multiplicity = 1:

       Center              X                  Y                   Z               Mass
    ------------   -----------------  -----------------  -----------------  -----------------
         C           -0.066829000923     0.478606959883    -2.232522971098    12.000000000000
         C            0.612170999077     0.272606959883    -3.577522971098    12.000000000000
         H           -0.709829000923    -0.368393040117    -2.002522971098     1.007825032230
         H            0.690170999077     0.555606959883    -1.453522971098     1.007825032230
         H           -0.658829000923     1.392606959883    -2.248522971098     1.007825032230
         H            1.118170999077    -0.687393040117    -3.537522971098     1.007825032230
         H           -0.118716000923     0.269734959883    -4.399590971098     1.007825032230
         H            1.377668999077     1.038104959883    -3.772521971098     1.007825032230
         C            0.792170999077     0.194606959883     2.526477028902    12.000000000000
         C           -0.199829000923    -0.143393040117     1.434477028902    12.000000000000
         O           -1.074829000923     0.636606959883     1.062477028902    15.994914619570
         N           -0.085829000923    -1.364393040117     0.915477028902    14.003074004430
         H            1.739170999077    -0.274393040117     2.260477028902     1.007825032230
         H            0.447170999077    -0.252393040117     3.460477028902     1.007825032230
         H           -0.737829000923    -1.640393040117     0.197477028902     1.007825032230
         H            0.612170999077    -2.007393040117     1.256477028902     1.007825032230
         H            0.945324999077     1.273873959883     2.673877028902     1.007825032230

  Running in c1 symmetry.

  Rotational constants: A =      0.19589  B =      0.03600  C =      0.03492 [cm^-1]
  Rotational constants: A =   5872.54306  B =   1079.16742  C =   1046.82206 [MHz]
  Nuclear repulsion =  232.839174389340513

  Charge       = 0
  Multiplicity = 1
  Electrons    = 50
  Nalpha       = 25
  Nbeta        = 25

  ==> Algorithm <==

  SCF Algorithm Type is PK.
  DIIS enabled.
  MOM disabled.
  Fractional occupation disabled.
  Guess Type is SAD.
  Energy threshold   = 1.00e-06
  Density threshold  = 1.00e-10
  Integral threshold = 0.00e+00

  ==> Primary Basis <==

  Basis Set: CC-PVDZ
    Blend: CC-PVDZ
    Number of shells: 69
    Number of basis function: 139
    Number of Cartesian functions: 145
    Spherical Harmonics?: true
    Max angular momentum: 2

  ==> Pre-Iterations <==

   -------------------------------------------------------
    Irrep   Nso     Nmo     Nalpha   Nbeta   Ndocc  Nsocc
   -------------------------------------------------------
     A        139     139       0       0       0       0
   -------------------------------------------------------
    Total     139     139      25      25      25       0
   -------------------------------------------------------

  ==> Integral Setup <==

  Using integral reordering PK algorithm.
  Sizing the integral batches needed.
  Building batch lookup table.
   Calculation information:
      Number of atoms:                  17
      Number of AO shells:              69
      Number of primitives:            187
      Number of atomic orbitals:       145
      Number of basis functions:       139

      Integral cutoff                 1.00e-12
      Number of threads:                 1

	Batch   1 pq = [       0,    9730] index = [             0,47341315] size =     47341315
  Task number: 5
  Buffer size: 11059200
  Buffer per thread: 2
  We computed 2438208 shell quartets total.
  Whereas there are 2917320 unique shell quartets.

  ==> DiskJK: Disk-Based J/K Matrices <==

    J tasked:                  Yes
    K tasked:                  Yes
    wK tasked:                  No
    Memory [MiB]:              375
    Schwarz Cutoff:          1E-12

    OpenMP threads:              1

  Minimum eigenvalue in the overlap matrix is 4.5491125062E-03.
  Using Symmetric Orthogonalization.

  SCF Guess: Superposition of Atomic Densities via on-the-fly atomic UHF.

  ==> Iterations <==

                        Total Energy        Delta E     RMS |[F,P]|

   @RHF iter SAD:  -285.94294870640545   -2.85943e+02   0.00000e+00
   @RHF iter   1:  -286.99433506010803   -1.05139e+00   4.64773e-03 DIIS
   @RHF iter   2:  -287.17101045600992   -1.76675e-01   2.61102e-03 DIIS
   @RHF iter   3:  -287.22150454819649   -5.04941e-02   5.46604e-04 DIIS
   @RHF iter   4:  -287.22491749646412   -3.41295e-03   2.20621e-04 DIIS
   @RHF iter   5:  -287.22552800864946   -6.10512e-04   3.44011e-05 DIIS
   @RHF iter   6:  -287.22555827867404   -3.02700e-05   1.56433e-05 DIIS
   @RHF iter   7:  -287.22556316111087   -4.88244e-06   6.25987e-06 DIIS
   @RHF iter   8:  -287.22556425486914   -1.09376e-06   2.18068e-06 DIIS
   @RHF iter   9:  -287.22556439396038   -1.39091e-07   5.44990e-07 DIIS
   @RHF iter  10:  -287.22556440037789   -6.41751e-09   1.71758e-07 DIIS
   @RHF iter  11:  -287.22556440105802   -6.80132e-10   3.84361e-08 DIIS
   @RHF iter  12:  -287.22556440109400   -3.59819e-11   8.69840e-09 DIIS
   @RHF iter  13:  -287.22556440109520   -1.19371e-12   1.72299e-09 DIIS
   @RHF iter  14:  -287.22556440109668   -1.47793e-12   7.05228e-10 DIIS
   @RHF iter  15:  -287.22556440109776   -1.08002e-12   2.64793e-10 DIIS
   @RHF iter  16:  -287.22556440109662    1.13687e-12   9.35893e-11 DIIS
  Energy and wave function converged.

  ==> Post-Iterations <==

    Orbital Energies [Eh]
    ---------------------

    Doubly Occupied:

       1A    -20.504211     2A    -15.587464     3A    -11.348196
       4A    -11.244261     5A    -11.212028     6A    -11.206389
       7A     -1.366170     8A     -1.215214     9A     -1.012946
      10A     -1.002337    11A     -0.828599    12A     -0.798075
      13A     -0.727485    14A     -0.652870    15A     -0.614067
      16A     -0.592945    17A     -0.590004    18A     -0.572034
      19A     -0.559400    20A     -0.522522    21A     -0.493732
      22A     -0.477779    23A     -0.475806    24A     -0.409449
      25A     -0.402938

    Virtual:

      26A      0.159081    27A      0.191945    28A      0.197413
      29A      0.211223    30A      0.227547    31A      0.255635
      32A      0.261372    33A      0.262776    34A      0.277924
      35A      0.281036    36A      0.300275    37A      0.322863
      38A      0.382573    39A      0.399645    40A      0.471975
      41A      0.555932    42A      0.595767    43A      0.604880
      44A      0.613258    45A      0.636741    46A      0.652385
      47A      0.670428    48A      0.691301    49A      0.707870
      50A      0.736437    51A      0.746952    52A      0.817563
      53A      0.836592    54A      0.855721    55A      0.875099
      56A      0.881538    57A      0.897727    58A      0.898898
      59A      0.912983    60A      0.919452    61A      0.932885
      62A      0.939411    63A      0.960672    64A      0.978321
      65A      1.004005    66A      1.034376    67A      1.085222
      68A      1.115437    69A      1.131552    70A      1.139875
      71A      1.169335    72A      1.239371    73A      1.337688
      74A      1.353111    75A      1.381080    76A      1.388840
      77A      1.427727    78A      1.466949    79A      1.475019
      80A      1.483231    81A      1.503361    82A      1.592439
      83A      1.651196    84A      1.657468    85A      1.688561
      86A      1.701314    87A      1.740762    88A      1.810051
      89A      1.852816    90A      1.867741    91A      1.880849
      92A      1.884149    93A      1.901485    94A      1.912231
      95A      1.919368    96A      1.940164    97A      1.951905
      98A      1.963935    99A      1.969193   100A      1.979562
     101A      1.993017   102A      2.023549   103A      2.044079
     104A      2.084916   105A      2.101505   106A      2.132319
     107A      2.160748   108A      2.218746   109A      2.268453
     110A      2.315093   111A      2.334865   112A      2.438761
     113A      2.448212   114A      2.466153   115A      2.474092
     116A      2.488068   117A      2.535497   118A      2.564719
     119A      2.579762   120A      2.592035   121A      2.622779
     122A      2.713328   123A      2.743276   124A      2.768090
     125A      2.790891   126A      2.806653   127A      2.860049
     128A      2.869653   129A      2.879822   130A      2.962531
     131A      2.966492   132A      2.987774   133A      3.092261
     134A      3.136468   135A      3.291360   136A      3.497513
     137A      3.536902   138A      3.862366   139A      3.906837

    Final Occupation by Irrep:
              A
    DOCC [    25 ]

  @RHF Final Energy:  -287.22556440109662

   => Energetics <=

    Nuclear Repulsion Energy =            232.8391743893405135
    One-Electron Energy =                -851.2956416751210327
    Two-Electron Energy =                 331.2309028846838714
    Total Energy =                       -287.2255644010966193

Computation Completed

Properties will be evaluated at   0.000000,   0.000000,   0.000000 [a0]

Properties computed using the SCF density matrix

  Nuclear Dipole Moment: [e a0]
     X:     4.4055      Y:    -0.6496      Z:    -7.0899

  Electronic Dipole Moment: [e a0]
     X:    -3.3870      Y:    -0.6005      Z:     7.5134

  Dipole Moment: [e a0]
     X:     1.0185      Y:    -1.2502      Z:     0.4235     Total:     1.6672

  Dipole Moment: [D]
     X:     2.5888      Y:    -3.1776      Z:     1.0765     Total:     4.2376

*** tstop() called on ds3 at Mon Apr 27 08:18:52 2020
Module time:
	user time   =      15.27 seconds =       0.25 minutes
	system time =       6.16 seconds =       0.10 minutes
	total time  =         81 seconds =       1.35 minutes
Total time:
	user time   =      15.27 seconds =       0.25 minutes
	system time =       6.16 seconds =       0.10 minutes
	total time  =         81 seconds =       1.35 minutes
                                     G D M A

                                 by Anthony Stone

                           version 2.2.06, 22 June 2011

               Distributed Multipoles from Gaussian wavefunctions

Starting at 8:18:52 on 27 Apr 2020

Using SCF density matrix from file ./SSI/SSI-048LEU-077GLN-1-dimer.test.819.fchk

                         Distributed Multipole Analysis

Standard DMA

Positions and radii in angstrom
Multipole moments in atomic units, ea_0^k for rank k

C          x = -0.066829  y =  0.478607  z = -2.232523 angstrom
           Maximum rank =  0   Radius =  0.650 angstrom
                   Q00  =  -0.205349

C          x =  0.612171  y =  0.272607  z = -3.577523 angstrom
           Maximum rank =  0   Radius =  0.650 angstrom
                   Q00  =  -0.246832

H          x = -0.709829  y = -0.368393  z = -2.002523 angstrom
           Maximum rank =  0   Radius =  0.325 angstrom
                   Q00  =   0.064969

H          x =  0.690171  y =  0.555607  z = -1.453523 angstrom
           Maximum rank =  0   Radius =  0.325 angstrom
                   Q00  =   0.072989

H          x = -0.658829  y =  1.392607  z = -2.248523 angstrom
           Maximum rank =  0   Radius =  0.325 angstrom
                   Q00  =   0.086474

H          x =  1.118171  y = -0.687393  z = -3.537523 angstrom
           Maximum rank =  0   Radius =  0.325 angstrom
                   Q00  =   0.068419

H          x = -0.118716  y =  0.269735  z = -4.399591 angstrom
           Maximum rank =  0   Radius =  0.325 angstrom
                   Q00  =   0.078323

H          x =  1.377669  y =  1.038105  z = -3.772522 angstrom
           Maximum rank =  0   Radius =  0.325 angstrom
                   Q00  =   0.077876

C          x =  0.792171  y =  0.194607  z =  2.526477 angstrom
           Maximum rank =  0   Radius =  0.650 angstrom
                   Q00  =  -0.255803

C          x = -0.199829  y = -0.143393  z =  1.434477 angstrom
           Maximum rank =  0   Radius =  0.650 angstrom
                   Q00  =   0.809323

O          x = -1.074829  y =  0.636607  z =  1.062477 angstrom
           Maximum rank =  0   Radius =  0.650 angstrom
                   Q00  =  -0.783999

N          x = -0.085829  y = -1.364393  z =  0.915477 angstrom
           Maximum rank =  0   Radius =  0.650 angstrom
                   Q00  =  -0.531951

H          x =  1.739171  y = -0.274393  z =  2.260477 angstrom
           Maximum rank =  0   Radius =  0.325 angstrom
                   Q00  =   0.080208

H          x =  0.447171  y = -0.252393  z =  3.460477 angstrom
           Maximum rank =  0   Radius =  0.325 angstrom
                   Q00  =   0.125199

H          x = -0.737829  y = -1.640393  z =  0.197477 angstrom
           Maximum rank =  0   Radius =  0.325 angstrom
                   Q00  =   0.224886

H          x =  0.612171  y = -2.007393  z =  1.256477 angstrom
           Maximum rank =  0   Radius =  0.325 angstrom
                   Q00  =   0.203317

H          x =  0.945325  y =  1.273874  z =  2.673877 angstrom
           Maximum rank =  0   Radius =  0.325 angstrom
                   Q00  =   0.131954

Total multipoles referred to origin at
           x =   0.000000,  y =    0.000000,  z =    0.000000 angstrom
                   Q00  =  -0.000000

Finished at 8:18:52 on 27 Apr 2020

  DMA results are available in the Python driver through the
	  variable('DMA DISTRIBUTED MULTIPOLES')
  and
	  variable('DMA TOTAL MULTIPOLES')
  commands.

    Psi4 stopped on: Monday, 27 April 2020 08:18AM
    Psi4 wall time for execution: 0:01:21.31

*** Psi4 exiting successfully. Buy a developer a beer!
