                               Psi4 1.3.2 release

  ==> Input File <==

--------------------------------------------------------------------------
import numpy as np
set {scf_type pk
basis cc-pvdz
d_convergence 10
gdma_switch   0
gdma_limit    0
gdma_origin   [ 0.0,  0.0,  0.0 ]
}
molecule test {
    units Angstrom
    0 1
    --
    0 1
    C               -0.822501357087342     2.856273646226990     1.815475124217317
    C               -0.216501357087342     1.871273646226990     2.792475124217317
    O                0.477498642912658     2.235273646226990     3.763475124217317
    N               -0.480501357087342     0.617273646226990     2.553475124217317
    H               -0.107501357087342    -0.067726353773010     3.192475124217317
    H               -1.047501357087341     0.363273646226990     1.767475124217317
    H               -1.186501357087342     3.725273646226989     2.361475124217317
    H               -1.681501357087341     2.394273646226989     1.327475124217317
    H               -0.082154357087342     3.156569646226989     1.059365124217317
    C                2.124498642912658    -1.937726353773010    -3.460524875782683
    C                0.534498642912658    -0.851726353773010    -0.156524875782683
    C               -0.767501357087341    -0.585726353773010    -0.563524875782683
    C                1.482498642912659    -1.285726353773010    -1.090524875782683
    C                1.127498642912659    -1.477726353773010    -2.426524875782683
    C               -1.145501357087342    -0.768726353773010    -1.892524875782683
    C               -0.187501357087342    -1.212726353773010    -2.807524875782683
    O               -1.726501357087342    -0.187726353773010     0.319475124217317
    H                0.829498642912658    -0.731726353773010     0.871475124217317
    H                2.500498642912658    -1.466726353773010    -0.770524875782683
    H               -2.158501357087342    -0.571726353773010    -2.215524875782683
    H               -2.566501357087341    -0.018726353773010    -0.129524875782683
    H                3.123498642912659    -1.960726353773010    -3.024524875782683
    H                2.124498642912658    -1.212726353773010    -4.275524875782683
    H               -0.477501357087342    -1.352726353773010    -3.840524875782683
    H                1.873056642912658    -2.934898353773010    -3.850944875782683

}
e, wfn = energy('scf', return_wfn=True)
gdma(wfn)
dmavals = variable('DMA DISTRIBUTED MULTIPOLES')
charges = np.array(dmavals)
print(charges)
np.save('SSI-040ASN-077TYR-1-dimer.npy', np.array(charges))--------------------------------------------------------------------------

*** tstart() called on ds3
*** at Mon Apr 27 05:42:17 2020

   => Loading Basis Set <=

    Name: CC-PVDZ
    Role: ORBITAL
    Keyword: BASIS
    atoms 1-2, 10-16 entry C          line   138 file /theoryfs2/ds/metcalf/miniconda2/envs/tf2gpu/share/psi4/basis/cc-pvdz.gbs
    atoms 3, 17      entry O          line   198 file /theoryfs2/ds/metcalf/miniconda2/envs/tf2gpu/share/psi4/basis/cc-pvdz.gbs
    atoms 4          entry N          line   168 file /theoryfs2/ds/metcalf/miniconda2/envs/tf2gpu/share/psi4/basis/cc-pvdz.gbs
    atoms 5-9, 18-25 entry H          line    22 file /theoryfs2/ds/metcalf/miniconda2/envs/tf2gpu/share/psi4/basis/cc-pvdz.gbs

         ---------------------------------------------------------
                                   SCF
               by Justin Turney, Rob Parrish, Andy Simmonett
                          and Daniel G. A. Smith
                              RHF Reference
                        1 Threads,    500 MiB Core
         ---------------------------------------------------------

  ==> Geometry <==

    Molecular point group: c1
    Full point group: C1

    Geometry (in Angstrom), charge = 0, multiplicity = 1:

       Center              X                  Y                   Z               Mass
    ------------   -----------------  -----------------  -----------------  -----------------
         C           -0.822501357087     2.856273646227     1.815475124217    12.000000000000
         C           -0.216501357087     1.871273646227     2.792475124217    12.000000000000
         O            0.477498642913     2.235273646227     3.763475124217    15.994914619570
         N           -0.480501357087     0.617273646227     2.553475124217    14.003074004430
         H           -0.107501357087    -0.067726353773     3.192475124217     1.007825032230
         H           -1.047501357087     0.363273646227     1.767475124217     1.007825032230
         H           -1.186501357087     3.725273646227     2.361475124217     1.007825032230
         H           -1.681501357087     2.394273646227     1.327475124217     1.007825032230
         H           -0.082154357087     3.156569646227     1.059365124217     1.007825032230
         C            2.124498642913    -1.937726353773    -3.460524875783    12.000000000000
         C            0.534498642913    -0.851726353773    -0.156524875783    12.000000000000
         C           -0.767501357087    -0.585726353773    -0.563524875783    12.000000000000
         C            1.482498642913    -1.285726353773    -1.090524875783    12.000000000000
         C            1.127498642913    -1.477726353773    -2.426524875783    12.000000000000
         C           -1.145501357087    -0.768726353773    -1.892524875783    12.000000000000
         C           -0.187501357087    -1.212726353773    -2.807524875783    12.000000000000
         O           -1.726501357087    -0.187726353773     0.319475124217    15.994914619570
         H            0.829498642913    -0.731726353773     0.871475124217     1.007825032230
         H            2.500498642913    -1.466726353773    -0.770524875783     1.007825032230
         H           -2.158501357087    -0.571726353773    -2.215524875783     1.007825032230
         H           -2.566501357087    -0.018726353773    -0.129524875783     1.007825032230
         H            3.123498642913    -1.960726353773    -3.024524875783     1.007825032230
         H            2.124498642913    -1.212726353773    -4.275524875783     1.007825032230
         H           -0.477501357087    -1.352726353773    -3.840524875783     1.007825032230
         H            1.873056642913    -2.934898353773    -3.850944875783     1.007825032230

  Running in c1 symmetry.

  Rotational constants: A =      0.06477  B =      0.01253  C =      0.01144 [cm^-1]
  Rotational constants: A =   1941.67494  B =    375.77396  C =    342.92246 [MHz]
  Nuclear repulsion =  662.610518813334579

  Charge       = 0
  Multiplicity = 1
  Electrons    = 90
  Nalpha       = 45
  Nbeta        = 45

  ==> Algorithm <==

  SCF Algorithm Type is PK.
  DIIS enabled.
  MOM disabled.
  Fractional occupation disabled.
  Guess Type is SAD.
  Energy threshold   = 1.00e-06
  Density threshold  = 1.00e-10
  Integral threshold = 0.00e+00

  ==> Primary Basis <==

  Basis Set: CC-PVDZ
    Blend: CC-PVDZ
    Number of shells: 111
    Number of basis function: 233
    Number of Cartesian functions: 245
    Spherical Harmonics?: true
    Max angular momentum: 2

  ==> Pre-Iterations <==

   -------------------------------------------------------
    Irrep   Nso     Nmo     Nalpha   Nbeta   Ndocc  Nsocc
   -------------------------------------------------------
     A        233     233       0       0       0       0
   -------------------------------------------------------
    Total     233     233      45      45      45       0
   -------------------------------------------------------

  ==> Integral Setup <==

  Using integral reordering PK algorithm.
  Sizing the integral batches needed.
  Building batch lookup table.
   Calculation information:
      Number of atoms:                  25
      Number of AO shells:             111
      Number of primitives:            329
      Number of atomic orbitals:       245
      Number of basis functions:       233

      Integral cutoff                 1.00e-12
      Number of threads:                 1

	Batch   1 pq = [       0,    9405] index = [             0,44231715] size =     44231715
	Batch   2 pq = [    9405,   13301] index = [      44231715,88464951] size =     44233236
	Batch   3 pq = [   13301,   16290] index = [      88464951,132690195] size =     44225244
	Batch   4 pq = [   16290,   18810] index = [     132690195,176917455] size =     44227260
	Batch   5 pq = [   18810,   21030] index = [     176917455,221140965] size =     44223510
	Batch   6 pq = [   21030,   23037] index = [     221140965,265363203] size =     44222238
	Batch   7 pq = [   23037,   24883] index = [     265363203,309594286] size =     44231083
	Batch   8 pq = [   24883,   26601] index = [     309594286,353819901] size =     44225615
	Batch   9 pq = [   26601,   27261] index = [     353819901,371594691] size =     17774790
  Task number: 34
  Buffer size: 11059200
  Buffer per thread: 2
  We computed 17162908 shell quartets total.
  Whereas there are 19322436 unique shell quartets.

  ==> DiskJK: Disk-Based J/K Matrices <==

    J tasked:                  Yes
    K tasked:                  Yes
    wK tasked:                  No
    Memory [MiB]:              375
    Schwarz Cutoff:          1E-12

    OpenMP threads:              1

  Minimum eigenvalue in the overlap matrix is 3.1657953438E-04.
  Using Symmetric Orthogonalization.

  SCF Guess: Superposition of Atomic Densities via on-the-fly atomic UHF.

  ==> Iterations <==

                        Total Energy        Delta E     RMS |[F,P]|

   @RHF iter SAD:  -551.41885335816312   -5.51419e+02   0.00000e+00
   @RHF iter   1:  -552.29093595423797   -8.72083e-01   3.19944e-03 DIIS
   @RHF iter   2:  -552.54535151146536   -2.54416e-01   1.67482e-03 DIIS
   @RHF iter   3:  -552.60575921341933   -6.04077e-02   4.02546e-04 DIIS
   @RHF iter   4:  -552.61073168957307   -4.97248e-03   1.58233e-04 DIIS
   @RHF iter   5:  -552.61154336198626   -8.11672e-04   2.28601e-05 DIIS
   @RHF iter   6:  -552.61157786950025   -3.45075e-05   1.03885e-05 DIIS
   @RHF iter   7:  -552.61158333221579   -5.46272e-06   3.70417e-06 DIIS
   @RHF iter   8:  -552.61158444652392   -1.11431e-06   1.42662e-06 DIIS
   @RHF iter   9:  -552.61158459213402   -1.45610e-07   5.60459e-07 DIIS
   @RHF iter  10:  -552.61158461309844   -2.09644e-08   1.94433e-07 DIIS
   @RHF iter  11:  -552.61158461594039   -2.84194e-09   5.25001e-08 DIIS
   @RHF iter  12:  -552.61158461614912   -2.08729e-10   1.94874e-08 DIIS
   @RHF iter  13:  -552.61158461618197   -3.28555e-11   6.75946e-09 DIIS
   @RHF iter  14:  -552.61158461618641   -4.43379e-12   3.53878e-09 DIIS
   @RHF iter  15:  -552.61158461618902   -2.61480e-12   1.68052e-09 DIIS
   @RHF iter  16:  -552.61158461618538    3.63798e-12   6.02135e-10 DIIS
   @RHF iter  17:  -552.61158461618720   -1.81899e-12   2.37227e-10 DIIS
   @RHF iter  18:  -552.61158461618675    4.54747e-13   6.97600e-11 DIIS
  Energy and wave function converged.

  ==> Post-Iterations <==

    Orbital Energies [Eh]
    ---------------------

    Doubly Occupied:

       1A    -20.620260     2A    -20.479153     3A    -15.558268
       4A    -11.325971     5A    -11.319795     6A    -11.253623
       7A    -11.253148     8A    -11.252441     9A    -11.248459
      10A    -11.246636    11A    -11.239009    12A    -11.227977
      13A     -1.439483    14A     -1.337929    15A     -1.201213
      16A     -1.165600    17A     -1.053591    18A     -1.032559
      19A     -0.985004    20A     -0.941314    21A     -0.865065
      22A     -0.822428    23A     -0.787596    24A     -0.756042
      25A     -0.730565    26A     -0.681125    27A     -0.656455
      28A     -0.634229    29A     -0.624269    30A     -0.617728
      31A     -0.604086    32A     -0.595858    33A     -0.593307
      34A     -0.585073    35A     -0.547055    36A     -0.540368
      37A     -0.533943    38A     -0.512397    39A     -0.507276
      40A     -0.496699    41A     -0.485206    42A     -0.388576
      43A     -0.377960    44A     -0.352054    45A     -0.321159

    Virtual:

      46A      0.114009    47A      0.139978    48A      0.152245
      49A      0.176378    50A      0.195834    51A      0.201771
      52A      0.216626    53A      0.219472    54A      0.231678
      55A      0.255361    56A      0.261469    57A      0.268977
      58A      0.282518    59A      0.297783    60A      0.311335
      61A      0.355963    62A      0.356998    63A      0.361226
      64A      0.402885    65A      0.437221    66A      0.443732
      67A      0.470596    68A      0.479119    69A      0.484846
      70A      0.498110    71A      0.586482    72A      0.597747
      73A      0.600453    74A      0.618382    75A      0.635690
      76A      0.654153    77A      0.670678    78A      0.685450
      79A      0.689257    80A      0.700638    81A      0.705945
      82A      0.715331    83A      0.717899    84A      0.725114
      85A      0.735339    86A      0.747409    87A      0.755377
      88A      0.766381    89A      0.770752    90A      0.779741
      91A      0.793506    92A      0.809398    93A      0.839340
      94A      0.840840    95A      0.860329    96A      0.867943
      97A      0.877233    98A      0.878333    99A      0.885085
     100A      0.891780   101A      0.903784   102A      0.914856
     103A      0.922454   104A      0.932966   105A      0.937179
     106A      0.938945   107A      0.966714   108A      0.994085
     109A      1.006574   110A      1.037060   111A      1.042513
     112A      1.079335   113A      1.089176   114A      1.123263
     115A      1.136751   116A      1.147417   117A      1.152776
     118A      1.193225   119A      1.193694   120A      1.210478
     121A      1.230172   122A      1.235107   123A      1.272807
     124A      1.280120   125A      1.294015   126A      1.302440
     127A      1.311552   128A      1.344890   129A      1.356229
     130A      1.369685   131A      1.391257   132A      1.406087
     133A      1.411289   134A      1.433475   135A      1.463129
     136A      1.488400   137A      1.496608   138A      1.509397
     139A      1.517598   140A      1.542411   141A      1.603339
     142A      1.622630   143A      1.661017   144A      1.669229
     145A      1.670646   146A      1.676453   147A      1.702673
     148A      1.715126   149A      1.733906   150A      1.741665
     151A      1.767428   152A      1.785827   153A      1.794819
     154A      1.849111   155A      1.861504   156A      1.872228
     157A      1.877696   158A      1.888640   159A      1.890918
     160A      1.897001   161A      1.903222   162A      1.916457
     163A      1.930737   164A      1.939226   165A      1.941466
     166A      1.956326   167A      1.962930   168A      1.989455
     169A      2.005265   170A      2.016796   171A      2.036448
     172A      2.043773   173A      2.048747   174A      2.061287
     175A      2.062315   176A      2.090190   177A      2.123468
     178A      2.138958   179A      2.161867   180A      2.166421
     181A      2.184650   182A      2.213929   183A      2.241838
     184A      2.249018   185A      2.255403   186A      2.270857
     187A      2.294169   188A      2.305187   189A      2.343996
     190A      2.364062   191A      2.382979   192A      2.428442
     193A      2.441533   194A      2.463468   195A      2.487802
     196A      2.488939   197A      2.494159   198A      2.512242
     199A      2.525507   200A      2.583516   201A      2.601855
     202A      2.605352   203A      2.703804   204A      2.722458
     205A      2.758245   206A      2.761849   207A      2.772373
     208A      2.775367   209A      2.795352   210A      2.815008
     211A      2.827605   212A      2.840217   213A      2.880437
     214A      2.908836   215A      2.950198   216A      2.993677
     217A      3.016448   218A      3.069884   219A      3.100514
     220A      3.118725   221A      3.154294   222A      3.217530
     223A      3.255698   224A      3.301495   225A      3.449043
     226A      3.521242   227A      3.542763   228A      3.595092
     229A      3.674312   230A      3.878795   231A      3.924421
     232A      3.961767   233A      4.159347

    Final Occupation by Irrep:
              A
    DOCC [    45 ]

  @RHF Final Energy:  -552.61158461618675

   => Energetics <=

    Nuclear Repulsion Energy =            662.6105188133345791
    One-Electron Energy =               -2066.8483068845343951
    Two-Electron Energy =                 851.6262034550129556
    Total Energy =                       -552.6115846161867466

Computation Completed

Properties will be evaluated at   0.000000,   0.000000,   0.000000 [a0]

Properties computed using the SCF density matrix

  Nuclear Dipole Moment: [e a0]
     X:     1.0673      Y:    -0.6279      Z:    -7.0445

  Electronic Dipole Moment: [e a0]
     X:    -2.1649      Y:    -0.4814      Z:     4.7988

  Dipole Moment: [e a0]
     X:    -1.0976      Y:    -1.1092      Z:    -2.2456     Total:     2.7346

  Dipole Moment: [D]
     X:    -2.7899      Y:    -2.8194      Z:    -5.7078     Total:     6.9507

*** tstop() called on ds3 at Mon Apr 27 05:45:15 2020
Module time:
	user time   =     128.44 seconds =       2.14 minutes
	system time =      55.82 seconds =       0.93 minutes
	total time  =        178 seconds =       2.97 minutes
Total time:
	user time   =     128.44 seconds =       2.14 minutes
	system time =      55.82 seconds =       0.93 minutes
	total time  =        178 seconds =       2.97 minutes
                                     G D M A

                                 by Anthony Stone

                           version 2.2.06, 22 June 2011

               Distributed Multipoles from Gaussian wavefunctions

Starting at 5:45:15 on 27 Apr 2020

Using SCF density matrix from file ./SSI/SSI-040ASN-077TYR-1-dimer.test.30182.fchk

                         Distributed Multipole Analysis

Standard DMA

Positions and radii in angstrom
Multipole moments in atomic units, ea_0^k for rank k

C          x = -0.822501  y =  2.856274  z =  1.815475 angstrom
           Maximum rank =  0   Radius =  0.650 angstrom
                   Q00  =  -0.251697

C          x = -0.216501  y =  1.871274  z =  2.792475 angstrom
           Maximum rank =  0   Radius =  0.650 angstrom
                   Q00  =   0.815443

O          x =  0.477499  y =  2.235274  z =  3.763475 angstrom
           Maximum rank =  0   Radius =  0.650 angstrom
                   Q00  =  -0.841423

N          x = -0.480501  y =  0.617274  z =  2.553475 angstrom
           Maximum rank =  0   Radius =  0.650 angstrom
                   Q00  =  -0.550535

H          x = -0.107501  y = -0.067726  z =  3.192475 angstrom
           Maximum rank =  0   Radius =  0.325 angstrom
                   Q00  =   0.205779

H          x = -1.047501  y =  0.363274  z =  1.767475 angstrom
           Maximum rank =  0   Radius =  0.325 angstrom
                   Q00  =   0.277237

H          x = -1.186501  y =  3.725274  z =  2.361475 angstrom
           Maximum rank =  0   Radius =  0.325 angstrom
                   Q00  =   0.121780

H          x = -1.681501  y =  2.394274  z =  1.327475 angstrom
           Maximum rank =  0   Radius =  0.325 angstrom
                   Q00  =   0.072466

H          x = -0.082154  y =  3.156570  z =  1.059365 angstrom
           Maximum rank =  0   Radius =  0.325 angstrom
                   Q00  =   0.128923

C          x =  2.124499  y = -1.937726  z = -3.460525 angstrom
           Maximum rank =  0   Radius =  0.650 angstrom
                   Q00  =  -0.196183

C          x =  0.534499  y = -0.851726  z = -0.156525 angstrom
           Maximum rank =  0   Radius =  0.650 angstrom
                   Q00  =  -0.131698

C          x = -0.767501  y = -0.585726  z = -0.563525 angstrom
           Maximum rank =  0   Radius =  0.650 angstrom
                   Q00  =   0.221884

C          x =  1.482499  y = -1.285726  z = -1.090525 angstrom
           Maximum rank =  0   Radius =  0.650 angstrom
                   Q00  =  -0.032818

C          x =  1.127499  y = -1.477726  z = -2.426525 angstrom
           Maximum rank =  0   Radius =  0.650 angstrom
                   Q00  =  -0.137590

C          x = -1.145501  y = -0.768726  z = -1.892525 angstrom
           Maximum rank =  0   Radius =  0.650 angstrom
                   Q00  =  -0.162047

C          x = -0.187501  y = -1.212726  z = -2.807525 angstrom
           Maximum rank =  0   Radius =  0.650 angstrom
                   Q00  =   0.059124

O          x = -1.726501  y = -0.187726  z =  0.319475 angstrom
           Maximum rank =  0   Radius =  0.650 angstrom
                   Q00  =  -0.637238

H          x =  0.829499  y = -0.731726  z =  0.871475 angstrom
           Maximum rank =  0   Radius =  0.325 angstrom
                   Q00  =   0.090629

H          x =  2.500499  y = -1.466726  z = -0.770525 angstrom
           Maximum rank =  0   Radius =  0.325 angstrom
                   Q00  =   0.073733

H          x = -2.158501  y = -0.571726  z = -2.215525 angstrom
           Maximum rank =  0   Radius =  0.325 angstrom
                   Q00  =   0.074995

H          x = -2.566501  y = -0.018726  z = -0.129525 angstrom
           Maximum rank =  0   Radius =  0.325 angstrom
                   Q00  =   0.426855

H          x =  3.123499  y = -1.960726  z = -3.024525 angstrom
           Maximum rank =  0   Radius =  0.325 angstrom
                   Q00  =   0.101545

H          x =  2.124499  y = -1.212726  z = -4.275525 angstrom
           Maximum rank =  0   Radius =  0.325 angstrom
                   Q00  =   0.099857

H          x = -0.477501  y = -1.352726  z = -3.840525 angstrom
           Maximum rank =  0   Radius =  0.325 angstrom
                   Q00  =   0.068375

H          x =  1.873057  y = -2.934898  z = -3.850945 angstrom
           Maximum rank =  0   Radius =  0.325 angstrom
                   Q00  =   0.102604

Total multipoles referred to origin at
           x =   0.000000,  y =    0.000000,  z =    0.000000 angstrom
                   Q00  =  -0.000000

Finished at 5:45:15 on 27 Apr 2020

  DMA results are available in the Python driver through the
	  variable('DMA DISTRIBUTED MULTIPOLES')
  and
	  variable('DMA TOTAL MULTIPOLES')
  commands.

    Psi4 stopped on: Monday, 27 April 2020 05:45AM
    Psi4 wall time for execution: 0:02:58.41

*** Psi4 exiting successfully. Buy a developer a beer!
