                               Psi4 1.3.2 release

  ==> Input File <==

--------------------------------------------------------------------------
import numpy as np
set {scf_type pk
basis cc-pvdz
d_convergence 10
gdma_switch   0
gdma_limit    0
gdma_origin   [ 0.0,  0.0,  0.0 ]
}
molecule test {
    units Angstrom
    0 1
    --
    0 1
    C                2.196350378919345    -1.173748624743048     0.607184200157196
    C                0.748350378919345    -1.132748624743048     0.180184200157196
    C               -0.280649621080655    -1.204748624743048     1.119184200157196
    C                0.393350378919345    -1.051748624743048    -1.152815799842804
    C               -1.634649621080655    -1.147748624743048     0.717184200157196
    C               -0.937649621080655    -1.001748624743048    -1.531815799842804
    C               -1.957649621080655    -1.065748624743048    -0.591815799842804
    H                2.354350378919345    -0.415748624743048     1.374184200157196
    H                2.809350378919345    -0.909748624743048    -0.249815799842804
    H               -0.043649621080655    -1.303748624743048     2.168184200157195
    H                1.160350378919345    -1.010748624743048    -1.913815799842804
    H               -2.418649621080655    -1.196748624743048     1.462184200157196
    H               -1.194649621080655    -0.933748624743048    -2.577815799842804
    H               -2.992649621080655    -1.040748624743048    -0.903815799842804
    H                2.535710378919345    -2.147918624743048     0.989054200157196
    C                0.627350378919345     2.723251375256952    -0.067815799842804
    C                0.401350378919345     4.088251375256952     0.570184200157196
    H               -0.156649621080655     2.029251375256952     0.233184200157196
    H                0.584350378919345     2.815251375256953    -1.153815799842804
    H                1.595350378919345     2.318251375256952     0.216184200157196
    H               -0.626649621080655     4.401251375256953     0.385184200157196
    H                0.605690378919345     4.077571375256952     1.650984200157196
    H                1.072550378919345     4.828361375256953     0.110034200157196

}
e, wfn = energy('scf', return_wfn=True)
gdma(wfn)
dmavals = variable('DMA DISTRIBUTED MULTIPOLES')
charges = np.array(dmavals)
print(charges)
np.save('SSI-013PHE-062LEU-1-dimer.npy', np.array(charges))--------------------------------------------------------------------------

*** tstart() called on ds3
*** at Sun Apr 26 18:50:24 2020

   => Loading Basis Set <=

    Name: CC-PVDZ
    Role: ORBITAL
    Keyword: BASIS
    atoms 1-7, 16-17  entry C          line   138 file /theoryfs2/ds/metcalf/miniconda2/envs/tf2gpu/share/psi4/basis/cc-pvdz.gbs
    atoms 8-15, 18-23 entry H          line    22 file /theoryfs2/ds/metcalf/miniconda2/envs/tf2gpu/share/psi4/basis/cc-pvdz.gbs

         ---------------------------------------------------------
                                   SCF
               by Justin Turney, Rob Parrish, Andy Simmonett
                          and Daniel G. A. Smith
                              RHF Reference
                        1 Threads,    500 MiB Core
         ---------------------------------------------------------

  ==> Geometry <==

    Molecular point group: c1
    Full point group: C1

    Geometry (in Angstrom), charge = 0, multiplicity = 1:

       Center              X                  Y                   Z               Mass
    ------------   -----------------  -----------------  -----------------  -----------------
         C            2.196350378919    -1.173748624743     0.607184200157    12.000000000000
         C            0.748350378919    -1.132748624743     0.180184200157    12.000000000000
         C           -0.280649621081    -1.204748624743     1.119184200157    12.000000000000
         C            0.393350378919    -1.051748624743    -1.152815799843    12.000000000000
         C           -1.634649621081    -1.147748624743     0.717184200157    12.000000000000
         C           -0.937649621081    -1.001748624743    -1.531815799843    12.000000000000
         C           -1.957649621081    -1.065748624743    -0.591815799843    12.000000000000
         H            2.354350378919    -0.415748624743     1.374184200157     1.007825032230
         H            2.809350378919    -0.909748624743    -0.249815799843     1.007825032230
         H           -0.043649621081    -1.303748624743     2.168184200157     1.007825032230
         H            1.160350378919    -1.010748624743    -1.913815799843     1.007825032230
         H           -2.418649621081    -1.196748624743     1.462184200157     1.007825032230
         H           -1.194649621081    -0.933748624743    -2.577815799843     1.007825032230
         H           -2.992649621081    -1.040748624743    -0.903815799843     1.007825032230
         H            2.535710378919    -2.147918624743     0.989054200157     1.007825032230
         C            0.627350378919     2.723251375257    -0.067815799843    12.000000000000
         C            0.401350378919     4.088251375257     0.570184200157    12.000000000000
         H           -0.156649621081     2.029251375257     0.233184200157     1.007825032230
         H            0.584350378919     2.815251375257    -1.153815799843     1.007825032230
         H            1.595350378919     2.318251375257     0.216184200157     1.007825032230
         H           -0.626649621081     4.401251375257     0.385184200157     1.007825032230
         H            0.605690378919     4.077571375257     1.650984200157     1.007825032230
         H            1.072550378919     4.828361375257     0.110034200157     1.007825032230

  Running in c1 symmetry.

  Rotational constants: A =      0.05798  B =      0.02837  C =      0.02413 [cm^-1]
  Rotational constants: A =   1738.14242  B =    850.55154  C =    723.43238 [MHz]
  Nuclear repulsion =  411.246152637196985

  Charge       = 0
  Multiplicity = 1
  Electrons    = 68
  Nalpha       = 34
  Nbeta        = 34

  ==> Algorithm <==

  SCF Algorithm Type is PK.
  DIIS enabled.
  MOM disabled.
  Fractional occupation disabled.
  Guess Type is SAD.
  Energy threshold   = 1.00e-06
  Density threshold  = 1.00e-10
  Integral threshold = 0.00e+00

  ==> Primary Basis <==

  Basis Set: CC-PVDZ
    Blend: CC-PVDZ
    Number of shells: 96
    Number of basis function: 196
    Number of Cartesian functions: 205
    Spherical Harmonics?: true
    Max angular momentum: 2

  ==> Pre-Iterations <==

   -------------------------------------------------------
    Irrep   Nso     Nmo     Nalpha   Nbeta   Ndocc  Nsocc
   -------------------------------------------------------
     A        196     196       0       0       0       0
   -------------------------------------------------------
    Total     196     196      34      34      34       0
   -------------------------------------------------------

  ==> Integral Setup <==

  Using integral reordering PK algorithm.
  Sizing the integral batches needed.
  Building batch lookup table.
   Calculation information:
      Number of atoms:                  23
      Number of AO shells:              96
      Number of primitives:            268
      Number of atomic orbitals:       205
      Number of basis functions:       196

      Integral cutoff                 1.00e-12
      Number of threads:                 1

	Batch   1 pq = [       0,    9405] index = [             0,44231715] size =     44231715
	Batch   2 pq = [    9405,   13301] index = [      44231715,88464951] size =     44233236
	Batch   3 pq = [   13301,   16290] index = [      88464951,132690195] size =     44225244
	Batch   4 pq = [   16290,   18810] index = [     132690195,176917455] size =     44227260
	Batch   5 pq = [   18810,   19306] index = [     176917455,186370471] size =      9453016
  Task number: 17
  Buffer size: 11059200
  Buffer per thread: 2
  We computed 9852676 shell quartets total.
  Whereas there are 10841496 unique shell quartets.

  ==> DiskJK: Disk-Based J/K Matrices <==

    J tasked:                  Yes
    K tasked:                  Yes
    wK tasked:                  No
    Memory [MiB]:              375
    Schwarz Cutoff:          1E-12

    OpenMP threads:              1

  Minimum eigenvalue in the overlap matrix is 2.9861002944E-04.
  Using Symmetric Orthogonalization.

  SCF Guess: Superposition of Atomic Densities via on-the-fly atomic UHF.

  ==> Iterations <==

                        Total Energy        Delta E     RMS |[F,P]|

   @RHF iter SAD:  -347.93079730386569   -3.47931e+02   0.00000e+00
   @RHF iter   1:  -348.76355484078033   -8.32758e-01   2.92178e-03 DIIS
   @RHF iter   2:  -348.95839017552333   -1.94835e-01   1.22002e-03 DIIS
   @RHF iter   3:  -348.98937278763776   -3.09826e-02   2.57318e-04 DIIS
   @RHF iter   4:  -348.99184791304026   -2.47513e-03   4.80784e-05 DIIS
   @RHF iter   5:  -348.99191296941234   -6.50564e-05   1.51227e-05 DIIS
   @RHF iter   6:  -348.99191897400772   -6.00460e-06   4.00140e-06 DIIS
   @RHF iter   7:  -348.99191945384291   -4.79835e-07   1.40559e-06 DIIS
   @RHF iter   8:  -348.99191952018754   -6.63446e-08   3.61089e-07 DIIS
   @RHF iter   9:  -348.99191953206412   -1.18766e-08   1.65485e-07 DIIS
   @RHF iter  10:  -348.99191953509603   -3.03191e-09   7.52789e-08 DIIS
   @RHF iter  11:  -348.99191953591372   -8.17693e-10   2.64741e-08 DIIS
   @RHF iter  12:  -348.99191953599177   -7.80460e-11   1.13980e-08 DIIS
   @RHF iter  13:  -348.99191953599973   -7.95808e-12   3.91907e-09 DIIS
   @RHF iter  14:  -348.99191953600075   -1.02318e-12   8.15432e-10 DIIS
   @RHF iter  15:  -348.99191953600024    5.11591e-13   2.73986e-10 DIIS
   @RHF iter  16:  -348.99191953599944    7.95808e-13   7.32511e-11 DIIS
  Energy and wave function converged.

  ==> Post-Iterations <==

    Orbital Energies [Eh]
    ---------------------

    Doubly Occupied:

       1A    -11.239626     2A    -11.232765     3A    -11.232387
       4A    -11.230953     5A    -11.229778     6A    -11.228074
       7A    -11.226273     8A    -11.213492     9A    -11.207905
      10A     -1.156433    11A     -1.049255    12A     -1.012285
      13A     -1.008379    14A     -0.934407    15A     -0.830333
      16A     -0.827447    17A     -0.793927    18A     -0.693342
      19A     -0.633115    20A     -0.627597    21A     -0.594244
      22A     -0.588168    23A     -0.579385    24A     -0.575815
      25A     -0.565370    26A     -0.536730    27A     -0.498595
      28A     -0.489264    29A     -0.484787    30A     -0.481300
      31A     -0.479818    32A     -0.473055    33A     -0.333083
      34A     -0.323482

    Virtual:

      35A      0.133547    36A      0.147928    37A      0.174684
      38A      0.194214    39A      0.202674    40A      0.216770
      41A      0.240403    42A      0.250209    43A      0.254143
      44A      0.255984    45A      0.262608    46A      0.269219
      47A      0.285412    48A      0.294866    49A      0.299907
      50A      0.309342    51A      0.370298    52A      0.375935
      53A      0.400408    54A      0.452607    55A      0.468467
      56A      0.477881    57A      0.503359    58A      0.564005
      59A      0.570466    60A      0.597025    61A      0.599419
      62A      0.606251    63A      0.654211    64A      0.669465
      65A      0.679636    66A      0.682675    67A      0.704354
      68A      0.718572    69A      0.733231    70A      0.742203
      71A      0.751577    72A      0.755079    73A      0.757803
      74A      0.762772    75A      0.783233    76A      0.796592
      77A      0.824503    78A      0.851420    79A      0.860790
      80A      0.866159    81A      0.882180    82A      0.891769
      83A      0.893929    84A      0.899979    85A      0.902712
      86A      0.911991    87A      0.918219    88A      0.925861
      89A      0.929601    90A      0.937630    91A      0.952623
      92A      0.987475    93A      0.992995    94A      1.004754
      95A      1.017567    96A      1.066548    97A      1.128449
      98A      1.130090    99A      1.132221   100A      1.140389
     101A      1.151320   102A      1.164789   103A      1.192470
     104A      1.222072   105A      1.239533   106A      1.248454
     107A      1.255603   108A      1.281728   109A      1.300227
     110A      1.309264   111A      1.325559   112A      1.334505
     113A      1.415470   114A      1.476226   115A      1.486945
     116A      1.508740   117A      1.529171   118A      1.548613
     119A      1.587818   120A      1.606503   121A      1.679748
     122A      1.688581   123A      1.690678   124A      1.703984
     125A      1.736161   126A      1.741667   127A      1.768448
     128A      1.792831   129A      1.821252   130A      1.860820
     131A      1.866889   132A      1.878928   133A      1.889676
     134A      1.892221   135A      1.911526   136A      1.920670
     137A      1.926703   138A      1.936448   139A      1.941987
     140A      1.947033   141A      1.953998   142A      1.956503
     143A      1.960547   144A      1.962178   145A      1.975654
     146A      1.984177   147A      2.003339   148A      2.012989
     149A      2.043150   150A      2.055348   151A      2.091401
     152A      2.110163   153A      2.118660   154A      2.127276
     155A      2.133955   156A      2.163096   157A      2.175219
     158A      2.194903   159A      2.196907   160A      2.249170
     161A      2.276967   162A      2.292951   163A      2.301761
     164A      2.317889   165A      2.323152   166A      2.329872
     167A      2.353934   168A      2.453727   169A      2.455330
     170A      2.462688   171A      2.476860   172A      2.518982
     173A      2.543015   174A      2.571765   175A      2.581484
     176A      2.634282   177A      2.738736   178A      2.758483
     179A      2.765152   180A      2.779794   181A      2.793239
     182A      2.798937   183A      2.820342   184A      2.851316
     185A      2.859364   186A      2.873390   187A      2.881150
     188A      2.951646   189A      2.979175   190A      2.994633
     191A      3.025969   192A      3.031364   193A      3.168719
     194A      3.209993   195A      3.310965   196A      3.984176

    Final Occupation by Irrep:
              A
    DOCC [    34 ]

  @RHF Final Energy:  -348.99191953599944

   => Energetics <=

    Nuclear Repulsion Energy =            411.2461526371969853
    One-Electron Energy =               -1285.2544056331917091
    Two-Electron Energy =                 525.0163334599953942
    Total Energy =                       -348.9919195359993864

Computation Completed

Properties will be evaluated at   0.000000,   0.000000,   0.000000 [a0]

Properties computed using the SCF density matrix

  Nuclear Dipole Moment: [e a0]
     X:     4.9543      Y:    10.7910      Z:     1.6782

  Electronic Dipole Moment: [e a0]
     X:    -4.8636      Y:   -10.8667      Z:    -1.6582

  Dipole Moment: [e a0]
     X:     0.0908      Y:    -0.0757      Z:     0.0199     Total:     0.1199

  Dipole Moment: [D]
     X:     0.2308      Y:    -0.1925      Z:     0.0506     Total:     0.3047

*** tstop() called on ds3 at Sun Apr 26 18:51:54 2020
Module time:
	user time   =      66.97 seconds =       1.12 minutes
	system time =      26.79 seconds =       0.45 minutes
	total time  =         90 seconds =       1.50 minutes
Total time:
	user time   =      66.97 seconds =       1.12 minutes
	system time =      26.79 seconds =       0.45 minutes
	total time  =         90 seconds =       1.50 minutes
                                     G D M A

                                 by Anthony Stone

                           version 2.2.06, 22 June 2011

               Distributed Multipoles from Gaussian wavefunctions

Starting at 18:51:54 on 26 Apr 2020

Using SCF density matrix from file ./SSI/SSI-013PHE-062LEU-1-dimer.test.21102.fchk

                         Distributed Multipole Analysis

Standard DMA

Positions and radii in angstrom
Multipole moments in atomic units, ea_0^k for rank k

C          x =  2.196350  y = -1.173749  z =  0.607184 angstrom
           Maximum rank =  0   Radius =  0.650 angstrom
                   Q00  =  -0.217878

C          x =  0.748350  y = -1.132749  z =  0.180184 angstrom
           Maximum rank =  0   Radius =  0.650 angstrom
                   Q00  =  -0.089561

C          x = -0.280650  y = -1.204749  z =  1.119184 angstrom
           Maximum rank =  0   Radius =  0.650 angstrom
                   Q00  =  -0.037762

C          x =  0.393350  y = -1.051749  z = -1.152816 angstrom
           Maximum rank =  0   Radius =  0.650 angstrom
                   Q00  =  -0.092198

C          x = -1.634650  y = -1.147749  z =  0.717184 angstrom
           Maximum rank =  0   Radius =  0.650 angstrom
                   Q00  =  -0.077043

C          x = -0.937650  y = -1.001749  z = -1.531816 angstrom
           Maximum rank =  0   Radius =  0.650 angstrom
                   Q00  =  -0.000448

C          x = -1.957650  y = -1.065749  z = -0.591816 angstrom
           Maximum rank =  0   Radius =  0.650 angstrom
                   Q00  =  -0.082233

H          x =  2.354350  y = -0.415749  z =  1.374184 angstrom
           Maximum rank =  0   Radius =  0.325 angstrom
                   Q00  =   0.103146

H          x =  2.809350  y = -0.909749  z = -0.249816 angstrom
           Maximum rank =  0   Radius =  0.325 angstrom
                   Q00  =   0.098115

H          x = -0.043650  y = -1.303749  z =  2.168184 angstrom
           Maximum rank =  0   Radius =  0.325 angstrom
                   Q00  =   0.055793

H          x =  1.160350  y = -1.010749  z = -1.913816 angstrom
           Maximum rank =  0   Radius =  0.325 angstrom
                   Q00  =   0.055833

H          x = -2.418650  y = -1.196749  z =  1.462184 angstrom
           Maximum rank =  0   Radius =  0.325 angstrom
                   Q00  =   0.060980

H          x = -1.194650  y = -0.933749  z = -2.577816 angstrom
           Maximum rank =  0   Radius =  0.325 angstrom
                   Q00  =   0.061803

H          x = -2.992650  y = -1.040749  z = -0.903816 angstrom
           Maximum rank =  0   Radius =  0.325 angstrom
                   Q00  =   0.058436

H          x =  2.535710  y = -2.147919  z =  0.989054 angstrom
           Maximum rank =  0   Radius =  0.325 angstrom
                   Q00  =   0.105862

C          x =  0.627350  y =  2.723251  z = -0.067816 angstrom
           Maximum rank =  0   Radius =  0.650 angstrom
                   Q00  =  -0.237488

C          x =  0.401350  y =  4.088251  z =  0.570184 angstrom
           Maximum rank =  0   Radius =  0.650 angstrom
                   Q00  =  -0.231642

H          x = -0.156650  y =  2.029251  z =  0.233184 angstrom
           Maximum rank =  0   Radius =  0.325 angstrom
                   Q00  =   0.089201

H          x =  0.584350  y =  2.815251  z = -1.153816 angstrom
           Maximum rank =  0   Radius =  0.325 angstrom
                   Q00  =   0.075060

H          x =  1.595350  y =  2.318251  z =  0.216184 angstrom
           Maximum rank =  0   Radius =  0.325 angstrom
                   Q00  =   0.074311

H          x = -0.626650  y =  4.401251  z =  0.385184 angstrom
           Maximum rank =  0   Radius =  0.325 angstrom
                   Q00  =   0.078436

H          x =  0.605690  y =  4.077571  z =  1.650984 angstrom
           Maximum rank =  0   Radius =  0.325 angstrom
                   Q00  =   0.077091

H          x =  1.072550  y =  4.828361  z =  0.110034 angstrom
           Maximum rank =  0   Radius =  0.325 angstrom
                   Q00  =   0.072185

Total multipoles referred to origin at
           x =   0.000000,  y =    0.000000,  z =    0.000000 angstrom
                   Q00  =  -0.000000

Finished at 18:51:54 on 26 Apr 2020

  DMA results are available in the Python driver through the
	  variable('DMA DISTRIBUTED MULTIPOLES')
  and
	  variable('DMA TOTAL MULTIPOLES')
  commands.

    Psi4 stopped on: Sunday, 26 April 2020 06:51PM
    Psi4 wall time for execution: 0:01:30.61

*** Psi4 exiting successfully. Buy a developer a beer!
