                               Psi4 1.3.2 release

  ==> Input File <==

--------------------------------------------------------------------------
import numpy as np
set {scf_type pk
basis cc-pvdz
d_convergence 10
gdma_switch   0
gdma_limit    0
gdma_origin   [ 0.0,  0.0,  0.0 ]
}
molecule test {
    units Angstrom
    0 1
    --
    0 1
    C                2.388997410131573    -1.217139768551192    -0.336065743944867
    C                2.700997410131573    -0.902139768551192    -1.801065743944867
    O                1.676997410131573    -2.436139768551192    -0.234065743944867
    H                3.318997410131573    -1.285139768551192     0.232934256055133
    H                1.784997410131573    -0.413139768551192     0.076934256055133
    H                1.761997410131573    -0.932139768551192    -2.355065743944867
    H                1.491997410131573    -2.608139768551192     0.697934256055133
    H                3.388207410131573    -1.653539768551192    -2.217167743944867
    H                3.098490410131573     0.120500231448808    -1.879841743944866
    C               -2.783002589868427    -1.663139768551192     0.188934256055133
    C               -0.950002589868427     0.192860231448808     0.514934256055133
    C               -1.975002589868427    -0.476139768551192    -0.242065743944866
    C               -0.469002589868427     1.264860231448808    -0.280065743944866
    C               -2.073002589868427     0.190860231448808    -1.423065743944866
    C               -0.386002589868427    -0.004139768551192     1.782934256055134
    C                0.540997410131573     2.122860231448808     0.154934256055134
    C                0.620997410131573     0.860860231448808     2.222934256055134
    C                1.077997410131573     1.911860231448808     1.409934256055134
    N               -1.175002589868427     1.229860231448808    -1.455065743944867
    H               -0.682002589868427    -0.843139768551192     2.387934256055134
    H               -2.128002589868427    -2.356139768551192     0.718934256055134
    H               -3.146002589868427    -2.181139768551192    -0.700065743944867
    H               -2.768002589868428    -0.060139768551192    -2.217065743944866
    H               -1.076002589868427     1.870860231448808    -2.232065743944867
    H                0.922997410131573     2.898860231448809    -0.480065743944867
    H                1.066997410131573     0.700860231448808     3.193934256055133
    H                1.864997410131573     2.561860231448808     1.768934256055134
    H               -3.638277589868427    -1.410069768551192     0.832720256055133

}
e, wfn = energy('scf', return_wfn=True)
gdma(wfn)
dmavals = variable('DMA DISTRIBUTED MULTIPOLES')
charges = np.array(dmavals)
print(charges)
np.save('SSI-086SER-136TRP-1-dimer.npy', np.array(charges))--------------------------------------------------------------------------

*** tstart() called on ds3
*** at Mon Apr 27 13:12:39 2020

   => Loading Basis Set <=

    Name: CC-PVDZ
    Role: ORBITAL
    Keyword: BASIS
    atoms 1-2, 10-18 entry C          line   138 file /theoryfs2/ds/metcalf/miniconda2/envs/tf2gpu/share/psi4/basis/cc-pvdz.gbs
    atoms 3          entry O          line   198 file /theoryfs2/ds/metcalf/miniconda2/envs/tf2gpu/share/psi4/basis/cc-pvdz.gbs
    atoms 4-9, 20-28 entry H          line    22 file /theoryfs2/ds/metcalf/miniconda2/envs/tf2gpu/share/psi4/basis/cc-pvdz.gbs
    atoms 19         entry N          line   168 file /theoryfs2/ds/metcalf/miniconda2/envs/tf2gpu/share/psi4/basis/cc-pvdz.gbs

         ---------------------------------------------------------
                                   SCF
               by Justin Turney, Rob Parrish, Andy Simmonett
                          and Daniel G. A. Smith
                              RHF Reference
                        1 Threads,    500 MiB Core
         ---------------------------------------------------------

  ==> Geometry <==

    Molecular point group: c1
    Full point group: C1

    Geometry (in Angstrom), charge = 0, multiplicity = 1:

       Center              X                  Y                   Z               Mass
    ------------   -----------------  -----------------  -----------------  -----------------
         C            2.388997410132    -1.217139768551    -0.336065743945    12.000000000000
         C            2.700997410132    -0.902139768551    -1.801065743945    12.000000000000
         O            1.676997410132    -2.436139768551    -0.234065743945    15.994914619570
         H            3.318997410132    -1.285139768551     0.232934256055     1.007825032230
         H            1.784997410132    -0.413139768551     0.076934256055     1.007825032230
         H            1.761997410132    -0.932139768551    -2.355065743945     1.007825032230
         H            1.491997410132    -2.608139768551     0.697934256055     1.007825032230
         H            3.388207410132    -1.653539768551    -2.217167743945     1.007825032230
         H            3.098490410132     0.120500231449    -1.879841743945     1.007825032230
         C           -2.783002589868    -1.663139768551     0.188934256055    12.000000000000
         C           -0.950002589868     0.192860231449     0.514934256055    12.000000000000
         C           -1.975002589868    -0.476139768551    -0.242065743945    12.000000000000
         C           -0.469002589868     1.264860231449    -0.280065743945    12.000000000000
         C           -2.073002589868     0.190860231449    -1.423065743945    12.000000000000
         C           -0.386002589868    -0.004139768551     1.782934256055    12.000000000000
         C            0.540997410132     2.122860231449     0.154934256055    12.000000000000
         C            0.620997410132     0.860860231449     2.222934256055    12.000000000000
         C            1.077997410132     1.911860231449     1.409934256055    12.000000000000
         N           -1.175002589868     1.229860231449    -1.455065743945    14.003074004430
         H           -0.682002589868    -0.843139768551     2.387934256055     1.007825032230
         H           -2.128002589868    -2.356139768551     0.718934256055     1.007825032230
         H           -3.146002589868    -2.181139768551    -0.700065743945     1.007825032230
         H           -2.768002589868    -0.060139768551    -2.217065743945     1.007825032230
         H           -1.076002589868     1.870860231449    -2.232065743945     1.007825032230
         H            0.922997410132     2.898860231449    -0.480065743945     1.007825032230
         H            1.066997410132     0.700860231449     3.193934256055     1.007825032230
         H            1.864997410132     2.561860231449     1.768934256055     1.007825032230
         H           -3.638277589868    -1.410069768551     0.832720256055     1.007825032230

  Running in c1 symmetry.

  Rotational constants: A =      0.02771  B =      0.02169  C =      0.01838 [cm^-1]
  Rotational constants: A =    830.78412  B =    650.19214  C =    550.96054 [MHz]
  Nuclear repulsion =  783.223555501411738

  Charge       = 0
  Multiplicity = 1
  Electrons    = 96
  Nalpha       = 48
  Nbeta        = 48

  ==> Algorithm <==

  SCF Algorithm Type is PK.
  DIIS enabled.
  MOM disabled.
  Fractional occupation disabled.
  Guess Type is SAD.
  Energy threshold   = 1.00e-06
  Density threshold  = 1.00e-10
  Integral threshold = 0.00e+00

  ==> Primary Basis <==

  Basis Set: CC-PVDZ
    Blend: CC-PVDZ
    Number of shells: 123
    Number of basis function: 257
    Number of Cartesian functions: 270
    Spherical Harmonics?: true
    Max angular momentum: 2

  ==> Pre-Iterations <==

   -------------------------------------------------------
    Irrep   Nso     Nmo     Nalpha   Nbeta   Ndocc  Nsocc
   -------------------------------------------------------
     A        257     257       0       0       0       0
   -------------------------------------------------------
    Total     257     257      48      48      48       0
   -------------------------------------------------------

  ==> Integral Setup <==

  Using integral reordering PK algorithm.
  Sizing the integral batches needed.
  Building batch lookup table.
   Calculation information:
      Number of atoms:                  28
      Number of AO shells:             123
      Number of primitives:            361
      Number of atomic orbitals:       270
      Number of basis functions:       257

      Integral cutoff                 1.00e-12
      Number of threads:                 1

	Batch   1 pq = [       0,    9405] index = [             0,44231715] size =     44231715
	Batch   2 pq = [    9405,   13301] index = [      44231715,88464951] size =     44233236
	Batch   3 pq = [   13301,   16290] index = [      88464951,132690195] size =     44225244
	Batch   4 pq = [   16290,   18810] index = [     132690195,176917455] size =     44227260
	Batch   5 pq = [   18810,   21030] index = [     176917455,221140965] size =     44223510
	Batch   6 pq = [   21030,   23037] index = [     221140965,265363203] size =     44222238
	Batch   7 pq = [   23037,   24883] index = [     265363203,309594286] size =     44231083
	Batch   8 pq = [   24883,   26601] index = [     309594286,353819901] size =     44225615
	Batch   9 pq = [   26601,   28214] index = [     353819901,398029005] size =     44209104
	Batch  10 pq = [   28214,   29740] index = [     398029005,442248670] size =     44219665
	Batch  11 pq = [   29740,   31191] index = [     442248670,486454836] size =     44206166
	Batch  12 pq = [   31191,   32578] index = [     486454836,530679331] size =     44224495
	Batch  13 pq = [   32578,   33153] index = [     530679331,549577281] size =     18897950
  Task number: 50
  Buffer size: 11059200
  Buffer per thread: 2
  We computed 32821624 shell quartets total.
  Whereas there are 29081751 unique shell quartets.
    12.86 percent of shell quartets recomputed by reordering.

  ==> DiskJK: Disk-Based J/K Matrices <==

    J tasked:                  Yes
    K tasked:                  Yes
    wK tasked:                  No
    Memory [MiB]:              375
    Schwarz Cutoff:          1E-12

    OpenMP threads:              1

  Minimum eigenvalue in the overlap matrix is 2.4108027743E-04.
  Using Symmetric Orthogonalization.

  SCF Guess: Superposition of Atomic Densities via on-the-fly atomic UHF.

  ==> Iterations <==

                        Total Energy        Delta E     RMS |[F,P]|

   @RHF iter SAD:  -553.76746337116083   -5.53767e+02   0.00000e+00
   @RHF iter   1:  -554.32681387286084   -5.59351e-01   2.64097e-03 DIIS
   @RHF iter   2:  -554.57335928229759   -2.46545e-01   1.23991e-03 DIIS
   @RHF iter   3:  -554.62094702206571   -4.75877e-02   2.97738e-04 DIIS
   @RHF iter   4:  -554.62491369527891   -3.96667e-03   1.26459e-04 DIIS
   @RHF iter   5:  -554.62550826715119   -5.94572e-04   2.25236e-05 DIIS
   @RHF iter   6:  -554.62554066632447   -3.23992e-05   1.01698e-05 DIIS
   @RHF iter   7:  -554.62554765879270   -6.99247e-06   3.49119e-06 DIIS
   @RHF iter   8:  -554.62554929404200   -1.63525e-06   1.37426e-06 DIIS
   @RHF iter   9:  -554.62554960522243   -3.11180e-07   6.18449e-07 DIIS
   @RHF iter  10:  -554.62554966215248   -5.69300e-08   2.84992e-07 DIIS
   @RHF iter  11:  -554.62554967818573   -1.60333e-08   1.17422e-07 DIIS
   @RHF iter  12:  -554.62554968070049   -2.51475e-09   4.17586e-08 DIIS
   @RHF iter  13:  -554.62554968094025   -2.39766e-10   1.43022e-08 DIIS
   @RHF iter  14:  -554.62554968095287   -1.26192e-11   5.45018e-09 DIIS
   @RHF iter  15:  -554.62554968096106   -8.18545e-12   2.07047e-09 DIIS
   @RHF iter  16:  -554.62554968096333   -2.27374e-12   1.05137e-09 DIIS
   @RHF iter  17:  -554.62554968096219    1.13687e-12   5.06158e-10 DIIS
   @RHF iter  18:  -554.62554968095731    4.88853e-12   1.82499e-10 DIIS
   @RHF iter  19:  -554.62554968096447   -7.16227e-12   6.82187e-11 DIIS
  Energy and wave function converged.

  ==> Post-Iterations <==

    Orbital Energies [Eh]
    ---------------------

    Doubly Occupied:

       1A    -20.531180     2A    -15.603869     3A    -11.268586
       4A    -11.265381     5A    -11.253626     6A    -11.236042
       7A    -11.235226     8A    -11.233829     9A    -11.227540
      10A    -11.226780    11A    -11.224787    12A    -11.218822
      13A    -11.209017    14A     -1.334742    15A     -1.297866
      16A     -1.132617    17A     -1.074909    18A     -1.000793
      19A     -0.991594    20A     -0.991519    21A     -0.932249
      22A     -0.843809    23A     -0.815273    24A     -0.807274
      25A     -0.755706    26A     -0.723783    27A     -0.674549
      28A     -0.666547    29A     -0.645945    30A     -0.628242
      31A     -0.606420    32A     -0.594911    33A     -0.591477
      34A     -0.569129    35A     -0.553127    36A     -0.550120
      37A     -0.539405    38A     -0.529939    39A     -0.520664
      40A     -0.510275    41A     -0.498787    42A     -0.475597
      43A     -0.470765    44A     -0.453257    45A     -0.414266
      46A     -0.375652    47A     -0.299538    48A     -0.279194

    Virtual:

      49A      0.120592    50A      0.162503    51A      0.173544
      52A      0.177233    53A      0.197379    54A      0.208754
      55A      0.218502    56A      0.221985    57A      0.229940
      58A      0.244133    59A      0.257756    60A      0.261628
      61A      0.273640    62A      0.280504    63A      0.287132
      64A      0.291857    65A      0.301307    66A      0.338234
      67A      0.373661    68A      0.378595    69A      0.402110
      70A      0.403317    71A      0.408610    72A      0.415714
      73A      0.439896    74A      0.468597    75A      0.478523
      76A      0.498446    77A      0.512171    78A      0.587243
      79A      0.594496    80A      0.620558    81A      0.624765
      82A      0.635702    83A      0.643407    84A      0.660649
      85A      0.667061    86A      0.682675    87A      0.704146
      88A      0.711719    89A      0.727707    90A      0.731965
      91A      0.734257    92A      0.746477    93A      0.752067
      94A      0.758362    95A      0.770184    96A      0.781715
      97A      0.784286    98A      0.796084    99A      0.806334
     100A      0.829368   101A      0.839728   102A      0.858624
     103A      0.868627   104A      0.869687   105A      0.876119
     106A      0.885684   107A      0.890409   108A      0.897258
     109A      0.903042   110A      0.916160   111A      0.920007
     112A      0.925183   113A      0.941455   114A      0.947911
     115A      0.953061   116A      0.958277   117A      0.962846
     118A      0.978816   119A      0.993321   120A      1.014017
     121A      1.032435   122A      1.065641   123A      1.076893
     124A      1.110508   125A      1.122084   126A      1.131544
     127A      1.142844   128A      1.150669   129A      1.153826
     130A      1.164791   131A      1.176833   132A      1.208904
     133A      1.223527   134A      1.225887   135A      1.239312
     136A      1.243791   137A      1.273448   138A      1.279027
     139A      1.285418   140A      1.300480   141A      1.315951
     142A      1.322575   143A      1.351652   144A      1.356812
     145A      1.366005   146A      1.385278   147A      1.414943
     148A      1.444149   149A      1.488030   150A      1.515809
     151A      1.539784   152A      1.546951   153A      1.553995
     154A      1.572314   155A      1.593354   156A      1.608790
     157A      1.619652   158A      1.632124   159A      1.645392
     160A      1.650780   161A      1.689977   162A      1.691220
     163A      1.703735   164A      1.741003   165A      1.758735
     166A      1.769717   167A      1.780176   168A      1.797839
     169A      1.813328   170A      1.825533   171A      1.842707
     172A      1.876375   173A      1.884616   174A      1.888123
     175A      1.905357   176A      1.907604   177A      1.910202
     178A      1.913997   179A      1.927357   180A      1.934138
     181A      1.937082   182A      1.949089   183A      1.956189
     184A      1.974947   185A      1.979889   186A      1.991865
     187A      1.996910   188A      2.012719   189A      2.014578
     190A      2.021683   191A      2.030618   192A      2.055598
     193A      2.072230   194A      2.084200   195A      2.098585
     196A      2.101411   197A      2.111368   198A      2.118737
     199A      2.137622   200A      2.144517   201A      2.159954
     202A      2.165082   203A      2.175792   204A      2.215901
     205A      2.234861   206A      2.251570   207A      2.277780
     208A      2.296671   209A      2.303804   210A      2.306776
     211A      2.312984   212A      2.327644   213A      2.335747
     214A      2.365723   215A      2.396725   216A      2.418601
     217A      2.443885   218A      2.462564   219A      2.502708
     220A      2.517579   221A      2.546506   222A      2.577033
     223A      2.592969   224A      2.594037   225A      2.617021
     226A      2.635684   227A      2.665351   228A      2.679227
     229A      2.702066   230A      2.765899   231A      2.769924
     232A      2.779695   233A      2.785397   234A      2.794472
     235A      2.801941   236A      2.823514   237A      2.825691
     238A      2.871101   239A      2.881019   240A      2.912096
     241A      2.920428   242A      2.966666   243A      3.003812
     244A      3.026886   245A      3.055919   246A      3.070433
     247A      3.118970   248A      3.198031   249A      3.298296
     250A      3.349434   251A      3.378232   252A      3.436751
     253A      3.478558   254A      3.640915   255A      3.744074
     256A      3.942796   257A      4.132926

    Final Occupation by Irrep:
              A
    DOCC [    48 ]

  @RHF Final Energy:  -554.62554968096447

   => Energetics <=

    Nuclear Repulsion Energy =            783.2235555014117381
    One-Electron Energy =               -2307.9289602585058674
    Two-Electron Energy =                 970.0798550761296610
    Total Energy =                       -554.6255496809644683

Computation Completed

Properties will be evaluated at   0.000000,   0.000000,   0.000000 [a0]

Properties computed using the SCF density matrix

  Nuclear Dipole Moment: [e a0]
     X:     4.9439      Y:    -5.2555      Z:    -2.0322

  Electronic Dipole Moment: [e a0]
     X:    -5.1663      Y:     5.9043      Z:     1.7891

  Dipole Moment: [e a0]
     X:    -0.2224      Y:     0.6487      Z:    -0.2432     Total:     0.7276

  Dipole Moment: [D]
     X:    -0.5654      Y:     1.6489      Z:    -0.6181     Total:     1.8495

*** tstop() called on ds3 at Mon Apr 27 13:19:29 2020
Module time:
	user time   =     303.63 seconds =       5.06 minutes
	system time =     107.38 seconds =       1.79 minutes
	total time  =        410 seconds =       6.83 minutes
Total time:
	user time   =     303.63 seconds =       5.06 minutes
	system time =     107.38 seconds =       1.79 minutes
	total time  =        410 seconds =       6.83 minutes
                                     G D M A

                                 by Anthony Stone

                           version 2.2.06, 22 June 2011

               Distributed Multipoles from Gaussian wavefunctions

Starting at 13:19:29 on 27 Apr 2020

Using SCF density matrix from file ./SSI/SSI-086SER-136TRP-1-dimer.test.5789.fchk

                         Distributed Multipole Analysis

Standard DMA

Positions and radii in angstrom
Multipole moments in atomic units, ea_0^k for rank k

C          x =  2.388997  y = -1.217140  z = -0.336066 angstrom
           Maximum rank =  0   Radius =  0.650 angstrom
                   Q00  =   0.096531

C          x =  2.700997  y = -0.902140  z = -1.801066 angstrom
           Maximum rank =  0   Radius =  0.650 angstrom
                   Q00  =  -0.239414

O          x =  1.676997  y = -2.436140  z = -0.234066 angstrom
           Maximum rank =  0   Radius =  0.650 angstrom
                   Q00  =  -0.592073

H          x =  3.318997  y = -1.285140  z =  0.232934 angstrom
           Maximum rank =  0   Radius =  0.325 angstrom
                   Q00  =   0.026775

H          x =  1.784997  y = -0.413140  z =  0.076934 angstrom
           Maximum rank =  0   Radius =  0.325 angstrom
                   Q00  =   0.055275

H          x =  1.761997  y = -0.932140  z = -2.355066 angstrom
           Maximum rank =  0   Radius =  0.325 angstrom
                   Q00  =   0.087776

H          x =  1.491997  y = -2.608140  z =  0.697934 angstrom
           Maximum rank =  0   Radius =  0.325 angstrom
                   Q00  =   0.386571

H          x =  3.388207  y = -1.653540  z = -2.217168 angstrom
           Maximum rank =  0   Radius =  0.325 angstrom
                   Q00  =   0.084217

H          x =  3.098490  y =  0.120500  z = -1.879842 angstrom
           Maximum rank =  0   Radius =  0.325 angstrom
                   Q00  =   0.079353

C          x = -2.783003  y = -1.663140  z =  0.188934 angstrom
           Maximum rank =  0   Radius =  0.650 angstrom
                   Q00  =  -0.209170

C          x = -0.950003  y =  0.192860  z =  0.514934 angstrom
           Maximum rank =  0   Radius =  0.650 angstrom
                   Q00  =  -0.045870

C          x = -1.975003  y = -0.476140  z = -0.242066 angstrom
           Maximum rank =  0   Radius =  0.650 angstrom
                   Q00  =  -0.118386

C          x = -0.469003  y =  1.264860  z = -0.280066 angstrom
           Maximum rank =  0   Radius =  0.650 angstrom
                   Q00  =   0.293918

C          x = -2.073003  y =  0.190860  z = -1.423066 angstrom
           Maximum rank =  0   Radius =  0.650 angstrom
                   Q00  =   0.077449

C          x = -0.386003  y = -0.004140  z =  1.782934 angstrom
           Maximum rank =  0   Radius =  0.650 angstrom
                   Q00  =  -0.098647

C          x =  0.540997  y =  2.122860  z =  0.154934 angstrom
           Maximum rank =  0   Radius =  0.650 angstrom
                   Q00  =  -0.117599

C          x =  0.620997  y =  0.860860  z =  2.222934 angstrom
           Maximum rank =  0   Radius =  0.650 angstrom
                   Q00  =  -0.086262

C          x =  1.077997  y =  1.911860  z =  1.409934 angstrom
           Maximum rank =  0   Radius =  0.650 angstrom
                   Q00  =  -0.079137

N          x = -1.175003  y =  1.229860  z = -1.455066 angstrom
           Maximum rank =  0   Radius =  0.650 angstrom
                   Q00  =  -0.496205

H          x = -0.682003  y = -0.843140  z =  2.387934 angstrom
           Maximum rank =  0   Radius =  0.325 angstrom
                   Q00  =   0.068426

H          x = -2.128003  y = -2.356140  z =  0.718934 angstrom
           Maximum rank =  0   Radius =  0.325 angstrom
                   Q00  =   0.101143

H          x = -3.146003  y = -2.181140  z = -0.700066 angstrom
           Maximum rank =  0   Radius =  0.325 angstrom
                   Q00  =   0.106290

H          x = -2.768003  y = -0.060140  z = -2.217066 angstrom
           Maximum rank =  0   Radius =  0.325 angstrom
                   Q00  =   0.102606

H          x = -1.076003  y =  1.870860  z = -2.232066 angstrom
           Maximum rank =  0   Radius =  0.325 angstrom
                   Q00  =   0.217235

H          x =  0.922997  y =  2.898860  z = -0.480066 angstrom
           Maximum rank =  0   Radius =  0.325 angstrom
                   Q00  =   0.073819

H          x =  1.066997  y =  0.700860  z =  3.193934 angstrom
           Maximum rank =  0   Radius =  0.325 angstrom
                   Q00  =   0.061437

H          x =  1.864997  y =  2.561860  z =  1.768934 angstrom
           Maximum rank =  0   Radius =  0.325 angstrom
                   Q00  =   0.066404

H          x = -3.638278  y = -1.410070  z =  0.832720 angstrom
           Maximum rank =  0   Radius =  0.325 angstrom
                   Q00  =   0.097538

Total multipoles referred to origin at
           x =   0.000000,  y =    0.000000,  z =    0.000000 angstrom
                   Q00  =  -0.000000

Finished at 13:19:30 on 27 Apr 2020

  DMA results are available in the Python driver through the
	  variable('DMA DISTRIBUTED MULTIPOLES')
  and
	  variable('DMA TOTAL MULTIPOLES')
  commands.

    Psi4 stopped on: Monday, 27 April 2020 01:19PM
    Psi4 wall time for execution: 0:06:50.13

*** Psi4 exiting successfully. Buy a developer a beer!
