                               Psi4 1.3.2 release

  ==> Input File <==

--------------------------------------------------------------------------
import numpy as np
set {scf_type pk
basis cc-pvdz
d_convergence 10
gdma_switch   0
gdma_limit    0
gdma_origin   [ 0.0,  0.0,  0.0 ]
}
molecule test {
    units Angstrom
    0 1
    --
    0 1
    C                0.262378719556643     4.176693868141572     0.152336338095335
    C               -0.295621280443357     1.688693868141572    -0.065663661904665
    C                0.368378719556643     2.722693868141572     0.522336338095335
    C                1.034378719556643     0.731693868141572     1.497336338095336
    C                1.288378719556643     2.134693868141572     1.478336338095335
    C                1.794378719556643    -0.151306131858428     2.293336338095335
    C                2.234378719556643     2.653693868141572     2.397336338095335
    C                2.693378719556643     0.390693868141572     3.206336338095335
    C                2.936378719556643     1.760693868141572     3.261336338095335
    N                0.096378719556643     0.505693868141572     0.535336338095335
    H               -1.016621280443357     1.781693868141572    -0.871663661904665
    H               -0.153621280443357    -0.404306131858428     0.163336338095335
    H               -0.061621280443357     4.246693868141572    -0.887663661904665
    H                1.255378719556643     4.623693868141573     0.224336338095335
    H                1.635378719556643    -1.219306131858428     2.237336338095335
    H                2.428378719556644     3.716693868141571     2.436336338095335
    H                3.247378719556643    -0.270306131858428     3.862336338095335
    H                3.661378719556643     2.150693868141572     3.965336338095335
    H               -0.437391280443357     4.743933868141572     0.783656338095335
    C               -3.560621280443357    -2.947306131858428    -0.107663661904665
    C               -1.044621280443357    -0.992306131858428    -2.138663661904665
    C               -1.311621280443357    -1.967306131858428    -1.147663661904665
    C               -2.746621280443357    -1.978306131858428    -0.938663661904665
    C               -3.253621280443357    -1.016306131858428    -1.741663661904665
    C                0.233378719556643    -0.726306131858428    -2.599663661904665
    C                1.285378719556643    -1.489306131858428    -2.100663661904664
    C               -0.226621280443357    -2.743306131858429    -0.664663661904665
    C                1.075378719556643    -2.477306131858429    -1.121663661904665
    N               -2.232621280443357    -0.403306131858428    -2.443663661904665
    H               -2.401621280443357     0.209693868141572    -3.248663661904665
    H                0.405378719556643     0.044693868141572    -3.331663661904665
    H               -4.309621280443357    -0.800306131858428    -1.863663661904665
    H                2.290378719556643    -1.303306131858428    -2.456663661904665
    H               -0.400621280443357    -3.531306131858428     0.055336338095335
    H               -3.329621280443356    -3.952306131858428    -0.464663661904665
    H               -4.619621280443357    -2.764306131858428    -0.294663661904665
    H                1.912378719556643    -3.055306131858428    -0.749663661904665
    H               -3.367981280443357    -2.906906131858428     0.974586338095335

}
e, wfn = energy('scf', return_wfn=True)
gdma(wfn)
dmavals = variable('DMA DISTRIBUTED MULTIPOLES')
charges = np.array(dmavals)
print(charges)
np.save('SSI-071TRP-099TRP-1-dimer.npy', np.array(charges))--------------------------------------------------------------------------

*** tstart() called on ds3
*** at Tue Apr 28 00:09:33 2020

   => Loading Basis Set <=

    Name: CC-PVDZ
    Role: ORBITAL
    Keyword: BASIS
    atoms 1-9, 20-28   entry C          line   138 file /theoryfs2/ds/metcalf/miniconda2/envs/tf2gpu/share/psi4/basis/cc-pvdz.gbs
    atoms 10, 29       entry N          line   168 file /theoryfs2/ds/metcalf/miniconda2/envs/tf2gpu/share/psi4/basis/cc-pvdz.gbs
    atoms 11-19, 30-38 entry H          line    22 file /theoryfs2/ds/metcalf/miniconda2/envs/tf2gpu/share/psi4/basis/cc-pvdz.gbs

         ---------------------------------------------------------
                                   SCF
               by Justin Turney, Rob Parrish, Andy Simmonett
                          and Daniel G. A. Smith
                              RHF Reference
                        1 Threads,    500 MiB Core
         ---------------------------------------------------------

  ==> Geometry <==

    Molecular point group: c1
    Full point group: C1

    Geometry (in Angstrom), charge = 0, multiplicity = 1:

       Center              X                  Y                   Z               Mass
    ------------   -----------------  -----------------  -----------------  -----------------
         C            0.262378719557     4.176693868142     0.152336338095    12.000000000000
         C           -0.295621280443     1.688693868142    -0.065663661905    12.000000000000
         C            0.368378719557     2.722693868142     0.522336338095    12.000000000000
         C            1.034378719557     0.731693868142     1.497336338095    12.000000000000
         C            1.288378719557     2.134693868142     1.478336338095    12.000000000000
         C            1.794378719557    -0.151306131858     2.293336338095    12.000000000000
         C            2.234378719557     2.653693868142     2.397336338095    12.000000000000
         C            2.693378719557     0.390693868142     3.206336338095    12.000000000000
         C            2.936378719557     1.760693868142     3.261336338095    12.000000000000
         N            0.096378719557     0.505693868142     0.535336338095    14.003074004430
         H           -1.016621280443     1.781693868142    -0.871663661905     1.007825032230
         H           -0.153621280443    -0.404306131858     0.163336338095     1.007825032230
         H           -0.061621280443     4.246693868142    -0.887663661905     1.007825032230
         H            1.255378719557     4.623693868142     0.224336338095     1.007825032230
         H            1.635378719557    -1.219306131858     2.237336338095     1.007825032230
         H            2.428378719557     3.716693868142     2.436336338095     1.007825032230
         H            3.247378719557    -0.270306131858     3.862336338095     1.007825032230
         H            3.661378719557     2.150693868142     3.965336338095     1.007825032230
         H           -0.437391280443     4.743933868142     0.783656338095     1.007825032230
         C           -3.560621280443    -2.947306131858    -0.107663661905    12.000000000000
         C           -1.044621280443    -0.992306131858    -2.138663661905    12.000000000000
         C           -1.311621280443    -1.967306131858    -1.147663661905    12.000000000000
         C           -2.746621280443    -1.978306131858    -0.938663661905    12.000000000000
         C           -3.253621280443    -1.016306131858    -1.741663661905    12.000000000000
         C            0.233378719557    -0.726306131858    -2.599663661905    12.000000000000
         C            1.285378719557    -1.489306131858    -2.100663661905    12.000000000000
         C           -0.226621280443    -2.743306131858    -0.664663661905    12.000000000000
         C            1.075378719557    -2.477306131858    -1.121663661905    12.000000000000
         N           -2.232621280443    -0.403306131858    -2.443663661905    14.003074004430
         H           -2.401621280443     0.209693868142    -3.248663661905     1.007825032230
         H            0.405378719557     0.044693868142    -3.331663661905     1.007825032230
         H           -4.309621280443    -0.800306131858    -1.863663661905     1.007825032230
         H            2.290378719557    -1.303306131858    -2.456663661905     1.007825032230
         H           -0.400621280443    -3.531306131858     0.055336338095     1.007825032230
         H           -3.329621280443    -3.952306131858    -0.464663661905     1.007825032230
         H           -4.619621280443    -2.764306131858    -0.294663661905     1.007825032230
         H            1.912378719557    -3.055306131858    -0.749663661905     1.007825032230
         H           -3.367981280443    -2.906906131858     0.974586338095     1.007825032230

  Running in c1 symmetry.

  Rotational constants: A =      0.01886  B =      0.00723  C =      0.00650 [cm^-1]
  Rotational constants: A =    565.54608  B =    216.82444  C =    194.91020 [MHz]
  Nuclear repulsion = 1441.409658199387422

  Charge       = 0
  Multiplicity = 1
  Electrons    = 140
  Nalpha       = 70
  Nbeta        = 70

  ==> Algorithm <==

  SCF Algorithm Type is PK.
  DIIS enabled.
  MOM disabled.
  Fractional occupation disabled.
  Guess Type is SAD.
  Energy threshold   = 1.00e-06
  Density threshold  = 1.00e-10
  Integral threshold = 0.00e+00

  ==> Primary Basis <==

  Basis Set: CC-PVDZ
    Blend: CC-PVDZ
    Number of shells: 174
    Number of basis function: 370
    Number of Cartesian functions: 390
    Spherical Harmonics?: true
    Max angular momentum: 2

  ==> Pre-Iterations <==

   -------------------------------------------------------
    Irrep   Nso     Nmo     Nalpha   Nbeta   Ndocc  Nsocc
   -------------------------------------------------------
     A        370     370       0       0       0       0
   -------------------------------------------------------
    Total     370     370      70      70      70       0
   -------------------------------------------------------

  ==> Integral Setup <==

  Using Yoshimine PK algorithm.
  Sizing the integral batches needed.
  Building batch lookup table.
   Calculation information:
      Number of atoms:                  38
      Number of AO shells:             174
      Number of primitives:            530
      Number of atomic orbitals:       390
      Number of basis functions:       370

      Integral cutoff                 1.00e-12
      Number of threads:                 1

	Batch   1 pq = [       0,    9405] index = [             0,44231715] size =     44231715
	Batch   2 pq = [    9405,   13301] index = [      44231715,88464951] size =     44233236
	Batch   3 pq = [   13301,   16290] index = [      88464951,132690195] size =     44225244
	Batch   4 pq = [   16290,   18810] index = [     132690195,176917455] size =     44227260
	Batch   5 pq = [   18810,   21030] index = [     176917455,221140965] size =     44223510
	Batch   6 pq = [   21030,   23037] index = [     221140965,265363203] size =     44222238
	Batch   7 pq = [   23037,   24883] index = [     265363203,309594286] size =     44231083
	Batch   8 pq = [   24883,   26601] index = [     309594286,353819901] size =     44225615
	Batch   9 pq = [   26601,   28214] index = [     353819901,398029005] size =     44209104
	Batch  10 pq = [   28214,   29740] index = [     398029005,442248670] size =     44219665
	Batch  11 pq = [   29740,   31191] index = [     442248670,486454836] size =     44206166
	Batch  12 pq = [   31191,   32578] index = [     486454836,530679331] size =     44224495
	Batch  13 pq = [   32578,   33908] index = [     530679331,574893186] size =     44213855
	Batch  14 pq = [   33908,   35188] index = [     574893186,619115266] size =     44222080
	Batch  15 pq = [   35188,   36423] index = [     619115266,663335676] size =     44220410
	Batch  16 pq = [   36423,   37617] index = [     663335676,707538153] size =     44202477
	Batch  17 pq = [   37617,   38775] index = [     707538153,751769700] size =     44231547
	Batch  18 pq = [   38775,   39899] index = [     751769700,795985050] size =     44215350
	Batch  19 pq = [   39899,   40992] index = [     795985050,840192528] size =     44207478
	Batch  20 pq = [   40992,   42057] index = [     840192528,884416653] size =     44224125
	Batch  21 pq = [   42057,   43095] index = [     884416653,928611060] size =     44194407
	Batch  22 pq = [   43095,   44109] index = [     928611060,972823995] size =     44212935
	Batch  23 pq = [   44109,   45100] index = [     972823995,1017027550] size =     44203555
	Batch  24 pq = [   45100,   46070] index = [    1017027550,1061245485] size =     44217935
	Batch  25 pq = [   46070,   47020] index = [    1061245485,1105463710] size =     44218225
	Batch  26 pq = [   47020,   47951] index = [    1105463710,1149673176] size =     44209466
	Batch  27 pq = [   47951,   48864] index = [    1149673176,1193869680] size =     44196504
	Batch  28 pq = [   48864,   49761] index = [    1193869680,1238103441] size =     44233761
	Batch  29 pq = [   49761,   50642] index = [    1238103441,1282331403] size =     44227962
	Batch  30 pq = [   50642,   51508] index = [    1282331403,1326562786] size =     44231383
	Batch  31 pq = [   51508,   52359] index = [    1326562786,1370758620] size =     44195834
	Batch  32 pq = [   52359,   53197] index = [    1370758620,1414987003] size =     44228383
	Batch  33 pq = [   53197,   54022] index = [    1414987003,1459215253] size =     44228250
	Batch  34 pq = [   54022,   54834] index = [    1459215253,1503411195] size =     44195942
	Batch  35 pq = [   54834,   55634] index = [    1503411195,1547598795] size =     44187600
	Batch  36 pq = [   55634,   56423] index = [    1547598795,1591805676] size =     44206881
	Batch  37 pq = [   56423,   57201] index = [    1591805676,1636005801] size =     44200125
	Batch  38 pq = [   57201,   57969] index = [    1636005801,1680231465] size =     44225664
	Batch  39 pq = [   57969,   58727] index = [    1680231465,1724459628] size =     44228163
	Batch  40 pq = [   58727,   59475] index = [    1724459628,1768667550] size =     44207922
	Batch  41 pq = [   59475,   60214] index = [    1768667550,1812893005] size =     44225455
	Batch  42 pq = [   60214,   60944] index = [    1812893005,1857116040] size =     44223035
	Batch  43 pq = [   60944,   61665] index = [    1857116040,1901316945] size =     44200905
	Batch  44 pq = [   61665,   62378] index = [    1901316945,1945538631] size =     44221686
	Batch  45 pq = [   62378,   63083] index = [    1945538631,1989763986] size =     44225355
	Batch  46 pq = [   63083,   63780] index = [    1989763986,2033976090] size =     44212104
	Batch  47 pq = [   63780,   64469] index = [    2033976090,2078158215] size =     44182125
	Batch  48 pq = [   64469,   65151] index = [    2078158215,2122358976] size =     44200761
	Batch  49 pq = [   65151,   65826] index = [    2122358976,2166564051] size =     44205075
	Batch  50 pq = [   65826,   66494] index = [    2166564051,2210759265] size =     44195214
	Batch  51 pq = [   66494,   67155] index = [    2210759265,2254930590] size =     44171325
	Batch  52 pq = [   67155,   67810] index = [    2254930590,2299131955] size =     44201365
	Batch  53 pq = [   67810,   68459] index = [    2299131955,2343351570] size =     44219615
	Batch  54 pq = [   68459,   68635] index = [    2343351570,2355415930] size =     12064360
  ==> DiskJK: Disk-Based J/K Matrices <==

    J tasked:                  Yes
    K tasked:                  Yes
    wK tasked:                  No
    Memory [MiB]:              375
    Schwarz Cutoff:          1E-12

    OpenMP threads:              1

  Minimum eigenvalue in the overlap matrix is 2.5180912646E-04.
  Using Symmetric Orthogonalization.

  SCF Guess: Superposition of Atomic Densities via on-the-fly atomic UHF.

  ==> Iterations <==

                        Total Energy        Delta E     RMS |[F,P]|

   @RHF iter SAD:  -800.53508596648044   -8.00535e+02   0.00000e+00
   @RHF iter   1:  -800.68712746808410   -1.52042e-01   1.96062e-03 DIIS
   @RHF iter   2:  -801.00776195941478   -3.20634e-01   8.30614e-04 DIIS
   @RHF iter   3:  -801.05814795302103   -5.03860e-02   2.40863e-04 DIIS
   @RHF iter   4:  -801.06355224706908   -5.40429e-03   1.05333e-04 DIIS
   @RHF iter   5:  -801.06440078945684   -8.48542e-04   1.62695e-05 DIIS
   @RHF iter   6:  -801.06444933542480   -4.85460e-05   8.30199e-06 DIIS
   @RHF iter   7:  -801.06446114030246   -1.18049e-05   3.40051e-06 DIIS
   @RHF iter   8:  -801.06446457797233   -3.43767e-06   1.27322e-06 DIIS
   @RHF iter   9:  -801.06446514219192   -5.64220e-07   5.91271e-07 DIIS
   @RHF iter  10:  -801.06446526138859   -1.19197e-07   2.86731e-07 DIIS
   @RHF iter  11:  -801.06446529627033   -3.48817e-08   1.02440e-07 DIIS
   @RHF iter  12:  -801.06446529985794   -3.58762e-09   3.92775e-08 DIIS
   @RHF iter  13:  -801.06446530012636   -2.68415e-10   1.31809e-08 DIIS
   @RHF iter  14:  -801.06446530016262   -3.62661e-11   4.56609e-09 DIIS
   @RHF iter  15:  -801.06446530016490   -2.27374e-12   2.18727e-09 DIIS
   @RHF iter  16:  -801.06446530017070   -5.79803e-12   1.11151e-09 DIIS
   @RHF iter  17:  -801.06446530016217    8.52651e-12   5.51570e-10 DIIS
   @RHF iter  18:  -801.06446530017797   -1.58025e-11   1.70496e-10 DIIS
   @RHF iter  19:  -801.06446530016501    1.29603e-11   6.96103e-11 DIIS
  Energy and wave function converged.

  ==> Post-Iterations <==

    Orbital Energies [Eh]
    ---------------------

    Doubly Occupied:

       1A    -15.614379     2A    -15.578019     3A    -11.278642
       4A    -11.275964     5A    -11.252822     6A    -11.251114
       7A    -11.251108     8A    -11.245297     9A    -11.243281
      10A    -11.239888    11A    -11.239672    12A    -11.238254
      13A    -11.234204    14A    -11.226479    15A    -11.220232
      16A    -11.219953    17A    -11.218921    18A    -11.213541
      19A    -11.212141    20A    -11.207619    21A     -1.310576
      22A     -1.275731    23A     -1.140773    24A     -1.107947
      25A     -1.084732    26A     -1.056812    27A     -1.010065
      28A     -1.001865    29A     -0.977262    30A     -0.975155
      31A     -0.941208    32A     -0.917982    33A     -0.853727
      34A     -0.828016    35A     -0.815208    36A     -0.785382
      37A     -0.765947    38A     -0.735325    39A     -0.730087
      40A     -0.702910    41A     -0.676891    42A     -0.655321
      43A     -0.651077    44A     -0.630937    45A     -0.613274
      46A     -0.607796    47A     -0.599856    48A     -0.585892
      49A     -0.579497    50A     -0.578038    51A     -0.571337
      52A     -0.563516    53A     -0.556693    54A     -0.544723
      55A     -0.540847    56A     -0.540208    57A     -0.523647
      58A     -0.515803    59A     -0.510148    60A     -0.485131
      61A     -0.484442    62A     -0.473021    63A     -0.456114
      64A     -0.444018    65A     -0.386446    66A     -0.356873
      67A     -0.312802    68A     -0.292338    69A     -0.279148
      70A     -0.262269

    Virtual:

      71A      0.108756    72A      0.132760    73A      0.151491
      74A      0.164119    75A      0.175126    76A      0.180287
      77A      0.191034    78A      0.198521    79A      0.209128
      80A      0.213783    81A      0.215185    82A      0.224066
      83A      0.236675    84A      0.241163    85A      0.253677
      86A      0.258341    87A      0.264857    88A      0.268557
      89A      0.273813    90A      0.275042    91A      0.281068
      92A      0.293259    93A      0.307113    94A      0.314584
      95A      0.362148    96A      0.364142    97A      0.379400
      98A      0.385944    99A      0.397006   100A      0.406829
     101A      0.420172   102A      0.425491   103A      0.432600
     104A      0.447821   105A      0.459140   106A      0.469678
     107A      0.473426   108A      0.485694   109A      0.490468
     110A      0.510864   111A      0.517233   112A      0.527026
     113A      0.584983   114A      0.601160   115A      0.607693
     116A      0.611209   117A      0.623136   118A      0.630626
     119A      0.637098   120A      0.645596   121A      0.655434
     122A      0.670008   123A      0.683357   124A      0.686208
     125A      0.700211   126A      0.700803   127A      0.709200
     128A      0.710587   129A      0.715044   130A      0.722493
     131A      0.725423   132A      0.732590   133A      0.733841
     134A      0.741619   135A      0.751735   136A      0.752489
     137A      0.757460   138A      0.760019   139A      0.766244
     140A      0.766701   141A      0.779289   142A      0.784824
     143A      0.785279   144A      0.792594   145A      0.796231
     146A      0.814295   147A      0.826363   148A      0.840139
     149A      0.851475   150A      0.857277   151A      0.857995
     152A      0.865558   153A      0.873086   154A      0.876190
     155A      0.878020   156A      0.882194   157A      0.886210
     158A      0.892901   159A      0.895359   160A      0.906394
     161A      0.917139   162A      0.918894   163A      0.922048
     164A      0.934231   165A      0.940938   166A      0.942317
     167A      0.952484   168A      0.956272   169A      0.964263
     170A      0.976024   171A      0.984595   172A      0.990561
     173A      0.995671   174A      1.001999   175A      1.018745
     176A      1.027701   177A      1.033592   178A      1.048902
     179A      1.069199   180A      1.085259   181A      1.101887
     182A      1.111427   183A      1.119005   184A      1.131533
     185A      1.139185   186A      1.141331   187A      1.147365
     188A      1.158895   189A      1.164526   190A      1.172389
     191A      1.175449   192A      1.201611   193A      1.205936
     194A      1.211537   195A      1.216688   196A      1.226921
     197A      1.233224   198A      1.238004   199A      1.246869
     200A      1.251214   201A      1.259038   202A      1.272720
     203A      1.273607   204A      1.282139   205A      1.293329
     206A      1.301028   207A      1.305901   208A      1.317287
     209A      1.323580   210A      1.328571   211A      1.342173
     212A      1.358216   213A      1.360665   214A      1.362823
     215A      1.387613   216A      1.395556   217A      1.413059
     218A      1.435343   219A      1.454983   220A      1.472756
     221A      1.518364   222A      1.536001   223A      1.553017
     224A      1.562296   225A      1.570138   226A      1.581583
     227A      1.606645   228A      1.617160   229A      1.627117
     230A      1.641001   231A      1.642560   232A      1.650678
     233A      1.661222   234A      1.671054   235A      1.676341
     236A      1.679260   237A      1.692349   238A      1.716756
     239A      1.737653   240A      1.743942   241A      1.758058
     242A      1.764716   243A      1.770930   244A      1.777279
     245A      1.784881   246A      1.796103   247A      1.805606
     248A      1.819833   249A      1.829952   250A      1.837180
     251A      1.850145   252A      1.857909   253A      1.865236
     254A      1.887202   255A      1.896284   256A      1.897168
     257A      1.904567   258A      1.908313   259A      1.911700
     260A      1.916450   261A      1.919813   262A      1.922460
     263A      1.926852   264A      1.931287   265A      1.945898
     266A      1.948507   267A      1.950497   268A      1.964359
     269A      1.970214   270A      1.974620   271A      1.979214
     272A      1.993289   273A      2.003485   274A      2.013510
     275A      2.017997   276A      2.022565   277A      2.030601
     278A      2.047322   279A      2.054300   280A      2.073191
     281A      2.074930   282A      2.075523   283A      2.081953
     284A      2.092859   285A      2.099289   286A      2.101591
     287A      2.110366   288A      2.122158   289A      2.126450
     290A      2.128781   291A      2.138852   292A      2.154192
     293A      2.158009   294A      2.172796   295A      2.173986
     296A      2.177675   297A      2.182107   298A      2.199037
     299A      2.205962   300A      2.214172   301A      2.249888
     302A      2.267757   303A      2.276704   304A      2.287892
     305A      2.295084   306A      2.309832   307A      2.312380
     308A      2.317379   309A      2.332131   310A      2.341802
     311A      2.352968   312A      2.363338   313A      2.394012
     314A      2.403487   315A      2.412905   316A      2.415267
     317A      2.443534   318A      2.455409   319A      2.455621
     320A      2.472818   321A      2.512817   322A      2.551567
     323A      2.581462   324A      2.593613   325A      2.600348
     326A      2.614466   327A      2.621135   328A      2.631525
     329A      2.641997   330A      2.662865   331A      2.673643
     332A      2.681437   333A      2.709361   334A      2.739250
     335A      2.753101   336A      2.761215   337A      2.768241
     338A      2.772918   339A      2.778653   340A      2.783493
     341A      2.799011   342A      2.808879   343A      2.828665
     344A      2.849152   345A      2.860055   346A      2.862661
     347A      2.877082   348A      2.882293   349A      2.901196
     350A      2.930465   351A      2.957300   352A      2.996743
     353A      3.012494   354A      3.038905   355A      3.043283
     356A      3.052922   357A      3.060236   358A      3.100345
     359A      3.113159   360A      3.133136   361A      3.181426
     362A      3.192044   363A      3.271538   364A      3.283726
     365A      3.356696   366A      3.410371   367A      3.703319
     368A      3.750985   369A      3.909029   370A      3.910395

    Final Occupation by Irrep:
              A
    DOCC [    70 ]

  @RHF Final Energy:  -801.06446530016501

   => Energetics <=

    Nuclear Repulsion Energy =           1441.4096581993874224
    One-Electron Energy =               -3949.4355661872446035
    Two-Electron Energy =                1706.9614426876919424
    Total Energy =                       -801.0644653001650113

Computation Completed

Properties will be evaluated at   0.000000,   0.000000,   0.000000 [a0]

Properties computed using the SCF density matrix

  Nuclear Dipole Moment: [e a0]
     X:    -3.0521      Y:     1.2279      Z:     0.5058

  Electronic Dipole Moment: [e a0]
     X:     1.9587      Y:    -1.5960      Z:    -1.8557

  Dipole Moment: [e a0]
     X:    -1.0934      Y:    -0.3681      Z:    -1.3499     Total:     1.7757

  Dipole Moment: [D]
     X:    -2.7791      Y:    -0.9356      Z:    -3.4311     Total:     4.5134

*** tstop() called on ds3 at Tue Apr 28 08:52:04 2020
Module time:
	user time   =     699.50 seconds =      11.66 minutes
	system time =     733.91 seconds =      12.23 minutes
	total time  =      31351 seconds =     522.52 minutes
Total time:
	user time   =     699.50 seconds =      11.66 minutes
	system time =     733.91 seconds =      12.23 minutes
	total time  =      31351 seconds =     522.52 minutes
                                     G D M A

                                 by Anthony Stone

                           version 2.2.06, 22 June 2011

               Distributed Multipoles from Gaussian wavefunctions

Starting at 8:52:4 on 28 Apr 2020

Using SCF density matrix from file ./SSI/SSI-071TRP-099TRP-1-dimer.test.4872.fchk

                         Distributed Multipole Analysis

Standard DMA

Positions and radii in angstrom
Multipole moments in atomic units, ea_0^k for rank k

C          x =  0.262379  y =  4.176694  z =  0.152336 angstrom
           Maximum rank =  0   Radius =  0.650 angstrom
                   Q00  =  -0.202737

C          x = -0.295621  y =  1.688694  z = -0.065664 angstrom
           Maximum rank =  0   Radius =  0.650 angstrom
                   Q00  =   0.100622

C          x =  0.368379  y =  2.722694  z =  0.522336 angstrom
           Maximum rank =  0   Radius =  0.650 angstrom
                   Q00  =  -0.127416

C          x =  1.034379  y =  0.731694  z =  1.497336 angstrom
           Maximum rank =  0   Radius =  0.650 angstrom
                   Q00  =   0.250607

C          x =  1.288379  y =  2.134694  z =  1.478336 angstrom
           Maximum rank =  0   Radius =  0.650 angstrom
                   Q00  =  -0.061082

C          x =  1.794379  y = -0.151306  z =  2.293336 angstrom
           Maximum rank =  0   Radius =  0.650 angstrom
                   Q00  =  -0.126295

C          x =  2.234379  y =  2.653694  z =  2.397336 angstrom
           Maximum rank =  0   Radius =  0.650 angstrom
                   Q00  =  -0.101622

C          x =  2.693379  y =  0.390694  z =  3.206336 angstrom
           Maximum rank =  0   Radius =  0.650 angstrom
                   Q00  =  -0.004655

C          x =  2.936379  y =  1.760694  z =  3.261336 angstrom
           Maximum rank =  0   Radius =  0.650 angstrom
                   Q00  =  -0.106528

N          x =  0.096379  y =  0.505694  z =  0.535336 angstrom
           Maximum rank =  0   Radius =  0.650 angstrom
                   Q00  =  -0.512631

H          x = -1.016621  y =  1.781694  z = -0.871664 angstrom
           Maximum rank =  0   Radius =  0.325 angstrom
                   Q00  =   0.088054

H          x = -0.153621  y = -0.404306  z =  0.163336 angstrom
           Maximum rank =  0   Radius =  0.325 angstrom
                   Q00  =   0.245347

H          x = -0.061621  y =  4.246694  z = -0.887664 angstrom
           Maximum rank =  0   Radius =  0.325 angstrom
                   Q00  =   0.093352

H          x =  1.255379  y =  4.623694  z =  0.224336 angstrom
           Maximum rank =  0   Radius =  0.325 angstrom
                   Q00  =   0.099327

H          x =  1.635379  y = -1.219306  z =  2.237336 angstrom
           Maximum rank =  0   Radius =  0.325 angstrom
                   Q00  =   0.070528

H          x =  2.428379  y =  3.716694  z =  2.436336 angstrom
           Maximum rank =  0   Radius =  0.325 angstrom
                   Q00  =   0.069809

H          x =  3.247379  y = -0.270306  z =  3.862336 angstrom
           Maximum rank =  0   Radius =  0.325 angstrom
                   Q00  =   0.059746

H          x =  3.661379  y =  2.150694  z =  3.965336 angstrom
           Maximum rank =  0   Radius =  0.325 angstrom
                   Q00  =   0.058954

H          x = -0.437391  y =  4.743934  z =  0.783656 angstrom
           Maximum rank =  0   Radius =  0.325 angstrom
                   Q00  =   0.095805

C          x = -3.560621  y = -2.947306  z = -0.107664 angstrom
           Maximum rank =  0   Radius =  0.650 angstrom
                   Q00  =  -0.203162

C          x = -1.044621  y = -0.992306  z = -2.138664 angstrom
           Maximum rank =  0   Radius =  0.650 angstrom
                   Q00  =   0.271616

C          x = -1.311621  y = -1.967306  z = -1.147664 angstrom
           Maximum rank =  0   Radius =  0.650 angstrom
                   Q00  =  -0.114712

C          x = -2.746621  y = -1.978306  z = -0.938664 angstrom
           Maximum rank =  0   Radius =  0.650 angstrom
                   Q00  =  -0.108486

C          x = -3.253621  y = -1.016306  z = -1.741664 angstrom
           Maximum rank =  0   Radius =  0.650 angstrom
                   Q00  =   0.075904

C          x =  0.233379  y = -0.726306  z = -2.599664 angstrom
           Maximum rank =  0   Radius =  0.650 angstrom
                   Q00  =  -0.111674

C          x =  1.285379  y = -1.489306  z = -2.100664 angstrom
           Maximum rank =  0   Radius =  0.650 angstrom
                   Q00  =  -0.030291

C          x = -0.226621  y = -2.743306  z = -0.664664 angstrom
           Maximum rank =  0   Radius =  0.650 angstrom
                   Q00  =  -0.104355

C          x =  1.075379  y = -2.477306  z = -1.121664 angstrom
           Maximum rank =  0   Radius =  0.650 angstrom
                   Q00  =  -0.100525

N          x = -2.232621  y = -0.403306  z = -2.443664 angstrom
           Maximum rank =  0   Radius =  0.650 angstrom
                   Q00  =  -0.502402

H          x = -2.401621  y =  0.209694  z = -3.248664 angstrom
           Maximum rank =  0   Radius =  0.325 angstrom
                   Q00  =   0.218336

H          x =  0.405379  y =  0.044694  z = -3.331664 angstrom
           Maximum rank =  0   Radius =  0.325 angstrom
                   Q00  =   0.078839

H          x = -4.309621  y = -0.800306  z = -1.863664 angstrom
           Maximum rank =  0   Radius =  0.325 angstrom
                   Q00  =   0.106139

H          x =  2.290379  y = -1.303306  z = -2.456664 angstrom
           Maximum rank =  0   Radius =  0.325 angstrom
                   Q00  =   0.076975

H          x = -0.400621  y = -3.531306  z =  0.055336 angstrom
           Maximum rank =  0   Radius =  0.325 angstrom
                   Q00  =   0.075146

H          x = -3.329621  y = -3.952306  z = -0.464664 angstrom
           Maximum rank =  0   Radius =  0.325 angstrom
                   Q00  =   0.100186

H          x = -4.619621  y = -2.764306  z = -0.294664 angstrom
           Maximum rank =  0   Radius =  0.325 angstrom
                   Q00  =   0.106390

H          x =  1.912379  y = -3.055306  z = -0.749664 angstrom
           Maximum rank =  0   Radius =  0.325 angstrom
                   Q00  =   0.073698

H          x = -3.367981  y = -2.906906  z =  0.974586 angstrom
           Maximum rank =  0   Radius =  0.325 angstrom
                   Q00  =   0.103195

Total multipoles referred to origin at
           x =   0.000000,  y =    0.000000,  z =    0.000000 angstrom
                   Q00  =  -0.000000

Finished at 8:52:4 on 28 Apr 2020

  DMA results are available in the Python driver through the
	  variable('DMA DISTRIBUTED MULTIPOLES')
  and
	  variable('DMA TOTAL MULTIPOLES')
  commands.

    Psi4 stopped on: Tuesday, 28 April 2020 08:52AM
    Psi4 wall time for execution: 8:42:31.75

*** Psi4 exiting successfully. Buy a developer a beer!
