                               Psi4 1.3.2 release

  ==> Input File <==

--------------------------------------------------------------------------
import numpy as np
set {scf_type pk
basis cc-pvdz
d_convergence 10
gdma_switch   0
gdma_limit    0
gdma_origin   [ 0.0,  0.0,  0.0 ]
}
molecule test {
    units Angstrom
    0 1
    --
    0 1
    C                2.439212170824921    -1.192051086523675    -0.837370120540809
    C                1.333212170824921    -1.074051086523675     0.213629879459191
    O                1.460212170824921    -0.305051086523675     1.163629879459191
    N                0.244212170824921    -1.804051086523675     0.033629879459191
    H                3.396212170824921    -1.280051086523675    -0.321370120540809
    H                2.443212170824921    -0.285051086523675    -1.441370120540809
    H               -0.502787829175079    -1.757051086523675     0.712629879459191
    H                0.177212170824921    -2.410051086523675    -0.761370120540809
    H                2.309252170824921    -2.042881086523675    -1.522350120540809
    C               -1.420787829175079     1.104948913476325    -0.021370120540809
    C               -2.501787829175079     0.768948913476325    -1.038370120540809
    C               -1.489787829175079     2.543948913476325     0.511629879459191
    H               -1.579787829175079     0.410948913476325     0.802629879459191
    H               -0.439787829175079     0.929948913476325    -0.461370120540809
    H               -3.477787829175079     0.906948913476325    -0.575370120540809
    H               -1.441787829175079     3.245948913476325    -0.322370120540809
    H               -2.398877829175079    -0.277681086523675    -1.360820120540809
    H               -2.466115829175079     1.413948913476325    -1.928710120540809
    H               -2.440999829175079     2.677598913476325     1.047659879459191
    H               -0.619277829175079     2.754468913476325     1.150289879459191

}
e, wfn = energy('scf', return_wfn=True)
gdma(wfn)
dmavals = variable('DMA DISTRIBUTED MULTIPOLES')
charges = np.array(dmavals)
print(charges)
np.save('SSI-275ASN-278LEU-1-dimer.npy', np.array(charges))--------------------------------------------------------------------------

*** tstart() called on ds3
*** at Mon Apr 27 16:52:12 2020

   => Loading Basis Set <=

    Name: CC-PVDZ
    Role: ORBITAL
    Keyword: BASIS
    atoms 1-2, 10-12 entry C          line   138 file /theoryfs2/ds/metcalf/miniconda2/envs/tf2gpu/share/psi4/basis/cc-pvdz.gbs
    atoms 3          entry O          line   198 file /theoryfs2/ds/metcalf/miniconda2/envs/tf2gpu/share/psi4/basis/cc-pvdz.gbs
    atoms 4          entry N          line   168 file /theoryfs2/ds/metcalf/miniconda2/envs/tf2gpu/share/psi4/basis/cc-pvdz.gbs
    atoms 5-9, 13-20 entry H          line    22 file /theoryfs2/ds/metcalf/miniconda2/envs/tf2gpu/share/psi4/basis/cc-pvdz.gbs

         ---------------------------------------------------------
                                   SCF
               by Justin Turney, Rob Parrish, Andy Simmonett
                          and Daniel G. A. Smith
                              RHF Reference
                        1 Threads,    500 MiB Core
         ---------------------------------------------------------

  ==> Geometry <==

    Molecular point group: c1
    Full point group: C1

    Geometry (in Angstrom), charge = 0, multiplicity = 1:

       Center              X                  Y                   Z               Mass
    ------------   -----------------  -----------------  -----------------  -----------------
         C            2.439212170825    -1.192051086524    -0.837370120541    12.000000000000
         C            1.333212170825    -1.074051086524     0.213629879459    12.000000000000
         O            1.460212170825    -0.305051086524     1.163629879459    15.994914619570
         N            0.244212170825    -1.804051086524     0.033629879459    14.003074004430
         H            3.396212170825    -1.280051086524    -0.321370120541     1.007825032230
         H            2.443212170825    -0.285051086524    -1.441370120541     1.007825032230
         H           -0.502787829175    -1.757051086524     0.712629879459     1.007825032230
         H            0.177212170825    -2.410051086524    -0.761370120541     1.007825032230
         H            2.309252170825    -2.042881086524    -1.522350120541     1.007825032230
         C           -1.420787829175     1.104948913476    -0.021370120541    12.000000000000
         C           -2.501787829175     0.768948913476    -1.038370120541    12.000000000000
         C           -1.489787829175     2.543948913476     0.511629879459    12.000000000000
         H           -1.579787829175     0.410948913476     0.802629879459     1.007825032230
         H           -0.439787829175     0.929948913476    -0.461370120541     1.007825032230
         H           -3.477787829175     0.906948913476    -0.575370120541     1.007825032230
         H           -1.441787829175     3.245948913476    -0.322370120541     1.007825032230
         H           -2.398877829175    -0.277681086524    -1.360820120541     1.007825032230
         H           -2.466115829175     1.413948913476    -1.928710120541     1.007825032230
         H           -2.440999829175     2.677598913476     1.047659879459     1.007825032230
         H           -0.619277829175     2.754468913476     1.150289879459     1.007825032230

  Running in c1 symmetry.

  Rotational constants: A =      0.11993  B =      0.03398  C =      0.03039 [cm^-1]
  Rotational constants: A =   3595.29514  B =   1018.61528  C =    911.17453 [MHz]
  Nuclear repulsion =  306.645629726648338

  Charge       = 0
  Multiplicity = 1
  Electrons    = 58
  Nalpha       = 29
  Nbeta        = 29

  ==> Algorithm <==

  SCF Algorithm Type is PK.
  DIIS enabled.
  MOM disabled.
  Fractional occupation disabled.
  Guess Type is SAD.
  Energy threshold   = 1.00e-06
  Density threshold  = 1.00e-10
  Integral threshold = 0.00e+00

  ==> Primary Basis <==

  Basis Set: CC-PVDZ
    Blend: CC-PVDZ
    Number of shells: 81
    Number of basis function: 163
    Number of Cartesian functions: 170
    Spherical Harmonics?: true
    Max angular momentum: 2

  ==> Pre-Iterations <==

   -------------------------------------------------------
    Irrep   Nso     Nmo     Nalpha   Nbeta   Ndocc  Nsocc
   -------------------------------------------------------
     A        163     163       0       0       0       0
   -------------------------------------------------------
    Total     163     163      29      29      29       0
   -------------------------------------------------------

  ==> Integral Setup <==

  Using integral reordering PK algorithm.
  Sizing the integral batches needed.
  Building batch lookup table.
   Calculation information:
      Number of atoms:                  20
      Number of AO shells:              81
      Number of primitives:            219
      Number of atomic orbitals:       170
      Number of basis functions:       163

      Integral cutoff                 1.00e-12
      Number of threads:                 1

	Batch   1 pq = [       0,    9405] index = [             0,44231715] size =     44231715
	Batch   2 pq = [    9405,   13366] index = [      44231715,89331661] size =     45099946
  Task number: 9
  Buffer size: 11059200
  Buffer per thread: 2
  We computed 4959702 shell quartets total.
  Whereas there are 5516181 unique shell quartets.

  ==> DiskJK: Disk-Based J/K Matrices <==

    J tasked:                  Yes
    K tasked:                  Yes
    wK tasked:                  No
    Memory [MiB]:              375
    Schwarz Cutoff:          1E-12

    OpenMP threads:              1

  Minimum eigenvalue in the overlap matrix is 4.3869518832E-03.
  Using Symmetric Orthogonalization.

  SCF Guess: Superposition of Atomic Densities via on-the-fly atomic UHF.

  ==> Iterations <==

                        Total Energy        Delta E     RMS |[F,P]|

   @RHF iter SAD:  -324.93876994980963   -3.24939e+02   0.00000e+00
   @RHF iter   1:  -326.00034635098291   -1.06158e+00   4.15925e-03 DIIS
   @RHF iter   2:  -326.20207227242361   -2.01726e-01   2.29831e-03 DIIS
   @RHF iter   3:  -326.25735117336262   -5.52789e-02   4.91631e-04 DIIS
   @RHF iter   4:  -326.26116082910517   -3.80966e-03   2.00097e-04 DIIS
   @RHF iter   5:  -326.26182013652374   -6.59307e-04   3.05891e-05 DIIS
   @RHF iter   6:  -326.26185066384556   -3.05273e-05   1.33811e-05 DIIS
   @RHF iter   7:  -326.26185567217914   -5.00833e-06   5.13402e-06 DIIS
   @RHF iter   8:  -326.26185670516384   -1.03298e-06   1.82996e-06 DIIS
   @RHF iter   9:  -326.26185684058140   -1.35418e-07   4.92745e-07 DIIS
   @RHF iter  10:  -326.26185684763260   -7.05120e-09   1.61960e-07 DIIS
   @RHF iter  11:  -326.26185684848605   -8.53447e-10   3.91738e-08 DIIS
   @RHF iter  12:  -326.26185684853260   -4.65548e-11   9.55980e-09 DIIS
   @RHF iter  13:  -326.26185684853556   -2.95586e-12   2.39402e-09 DIIS
   @RHF iter  14:  -326.26185684853510    4.54747e-13   8.87312e-10 DIIS
   @RHF iter  15:  -326.26185684853544   -3.41061e-13   3.24399e-10 DIIS
   @RHF iter  16:  -326.26185684853567   -2.27374e-13   1.37022e-10 DIIS
   @RHF iter  17:  -326.26185684853465    1.02318e-12   6.72139e-11 DIIS
  Energy and wave function converged.

  ==> Post-Iterations <==

    Orbital Energies [Eh]
    ---------------------

    Doubly Occupied:

       1A    -20.503038     2A    -15.590760     3A    -11.349428
       4A    -11.244621     5A    -11.214536     6A    -11.211789
       7A    -11.209460     8A     -1.367875     9A     -1.219731
      10A     -1.046958    11A     -0.997342    12A     -0.918664
      13A     -0.802796    14A     -0.789482    15A     -0.731319
      16A     -0.655227    17A     -0.623469    18A     -0.611199
      19A     -0.586661    20A     -0.569404    21A     -0.557110
      22A     -0.543623    23A     -0.526747    24A     -0.524436
      25A     -0.466545    26A     -0.461723    27A     -0.459001
      28A     -0.409468    29A     -0.404357

    Virtual:

      30A      0.155346    31A      0.189250    32A      0.198710
      33A      0.205633    34A      0.219459    35A      0.235170
      36A      0.247213    37A      0.260385    38A      0.268209
      39A      0.275815    40A      0.299360    41A      0.307848
      42A      0.309754    43A      0.340140    44A      0.373518
      45A      0.384666    46A      0.430598    47A      0.470751
      48A      0.559907    49A      0.581697    50A      0.609960
      51A      0.615320    52A      0.619112    53A      0.630343
      54A      0.658679    55A      0.688108    56A      0.692751
      57A      0.722046    58A      0.748845    59A      0.791708
      60A      0.811371    61A      0.828168    62A      0.835700
      63A      0.856299    64A      0.865619    65A      0.880593
      66A      0.888896    67A      0.896516    68A      0.899948
      69A      0.905161    70A      0.914345    71A      0.921945
      72A      0.937137    73A      0.951369    74A      0.957113
      75A      0.971095    76A      0.989308    77A      1.022067
      78A      1.059825    79A      1.084114    80A      1.120554
      81A      1.125752    82A      1.131018    83A      1.200949
      84A      1.221323    85A      1.317325    86A      1.347438
      87A      1.374438    88A      1.402071    89A      1.412109
      90A      1.427849    91A      1.449096    92A      1.478758
      93A      1.481423    94A      1.515522    95A      1.586679
      96A      1.636606    97A      1.647522    98A      1.661403
      99A      1.684009   100A      1.689923   101A      1.693602
     102A      1.740462   103A      1.828085   104A      1.840482
     105A      1.871018   106A      1.876886   107A      1.884366
     108A      1.899043   109A      1.901876   110A      1.911176
     111A      1.927193   112A      1.939343   113A      1.940823
     114A      1.956069   115A      1.972840   116A      1.990210
     117A      2.001412   118A      2.002504   119A      2.020113
     120A      2.034306   121A      2.036143   122A      2.062622
     123A      2.085551   124A      2.134987   125A      2.154357
     126A      2.166393   127A      2.225286   128A      2.295130
     129A      2.305462   130A      2.313519   131A      2.336988
     132A      2.353431   133A      2.432966   134A      2.442096
     135A      2.460236   136A      2.533307   137A      2.539980
     138A      2.557065   139A      2.575955   140A      2.590682
     141A      2.630576   142A      2.633336   143A      2.636239
     144A      2.740809   145A      2.752066   146A      2.760197
     147A      2.762859   148A      2.785436   149A      2.802128
     150A      2.814109   151A      2.852266   152A      2.916738
     153A      2.965463   154A      2.978828   155A      2.994672
     156A      3.076877   157A      3.106658   158A      3.132853
     159A      3.290357   160A      3.500908   161A      3.533712
     162A      3.869268   163A      3.910841

    Final Occupation by Irrep:
              A
    DOCC [    29 ]

  @RHF Final Energy:  -326.26185684853465

   => Energetics <=

    Nuclear Repulsion Energy =            306.6456297266483375
    One-Electron Energy =               -1050.6214352762851831
    Two-Electron Energy =                 417.7139487011021401
    Total Energy =                       -326.2618568485346486

Computation Completed

Properties will be evaluated at   0.000000,   0.000000,   0.000000 [a0]

Properties computed using the SCF density matrix

  Nuclear Dipole Moment: [e a0]
     X:    -6.5947      Y:     4.0227      Z:    -4.6649

  Electronic Dipole Moment: [e a0]
     X:     6.2709      Y:    -5.1481      Z:     3.5470

  Dipole Moment: [e a0]
     X:    -0.3238      Y:    -1.1253      Z:    -1.1179     Total:     1.6189

  Dipole Moment: [D]
     X:    -0.8230      Y:    -2.8604      Z:    -2.8414     Total:     4.1149

*** tstop() called on ds3 at Mon Apr 27 16:52:58 2020
Module time:
	user time   =      32.94 seconds =       0.55 minutes
	system time =      14.20 seconds =       0.24 minutes
	total time  =         46 seconds =       0.77 minutes
Total time:
	user time   =      32.94 seconds =       0.55 minutes
	system time =      14.20 seconds =       0.24 minutes
	total time  =         46 seconds =       0.77 minutes
                                     G D M A

                                 by Anthony Stone

                           version 2.2.06, 22 June 2011

               Distributed Multipoles from Gaussian wavefunctions

Starting at 16:52:58 on 27 Apr 2020

Using SCF density matrix from file ./SSI/SSI-275ASN-278LEU-1-dimer.test.28358.fchk

                         Distributed Multipole Analysis

Standard DMA

Positions and radii in angstrom
Multipole moments in atomic units, ea_0^k for rank k

C          x =  2.439212  y = -1.192051  z = -0.837370 angstrom
           Maximum rank =  0   Radius =  0.650 angstrom
                   Q00  =  -0.266643

C          x =  1.333212  y = -1.074051  z =  0.213630 angstrom
           Maximum rank =  0   Radius =  0.650 angstrom
                   Q00  =   0.797334

O          x =  1.460212  y = -0.305051  z =  1.163630 angstrom
           Maximum rank =  0   Radius =  0.650 angstrom
                   Q00  =  -0.784649

N          x =  0.244212  y = -1.804051  z =  0.033630 angstrom
           Maximum rank =  0   Radius =  0.650 angstrom
                   Q00  =  -0.511434

H          x =  3.396212  y = -1.280051  z = -0.321370 angstrom
           Maximum rank =  0   Radius =  0.325 angstrom
                   Q00  =   0.134381

H          x =  2.443212  y = -0.285051  z = -1.441370 angstrom
           Maximum rank =  0   Radius =  0.325 angstrom
                   Q00  =   0.131430

H          x = -0.502788  y = -1.757051  z =  0.712630 angstrom
           Maximum rank =  0   Radius =  0.325 angstrom
                   Q00  =   0.229039

H          x =  0.177212  y = -2.410051  z = -0.761370 angstrom
           Maximum rank =  0   Radius =  0.325 angstrom
                   Q00  =   0.202912

H          x =  2.309252  y = -2.042881  z = -1.522350 angstrom
           Maximum rank =  0   Radius =  0.325 angstrom
                   Q00  =   0.076413

C          x = -1.420788  y =  1.104949  z = -0.021370 angstrom
           Maximum rank =  0   Radius =  0.650 angstrom
                   Q00  =  -0.061798

C          x = -2.501788  y =  0.768949  z = -1.038370 angstrom
           Maximum rank =  0   Radius =  0.650 angstrom
                   Q00  =  -0.243457

C          x = -1.489788  y =  2.543949  z =  0.511630 angstrom
           Maximum rank =  0   Radius =  0.650 angstrom
                   Q00  =  -0.241775

H          x = -1.579788  y =  0.410949  z =  0.802630 angstrom
           Maximum rank =  0   Radius =  0.325 angstrom
                   Q00  =   0.033166

H          x = -0.439788  y =  0.929949  z = -0.461370 angstrom
           Maximum rank =  0   Radius =  0.325 angstrom
                   Q00  =   0.048174

H          x = -3.477788  y =  0.906949  z = -0.575370 angstrom
           Maximum rank =  0   Radius =  0.325 angstrom
                   Q00  =   0.074302

H          x = -1.441788  y =  3.245949  z = -0.322370 angstrom
           Maximum rank =  0   Radius =  0.325 angstrom
                   Q00  =   0.071822

H          x = -2.398878  y = -0.277681  z = -1.360820 angstrom
           Maximum rank =  0   Radius =  0.325 angstrom
                   Q00  =   0.065131

H          x = -2.466116  y =  1.413949  z = -1.928710 angstrom
           Maximum rank =  0   Radius =  0.325 angstrom
                   Q00  =   0.075469

H          x = -2.441000  y =  2.677599  z =  1.047660 angstrom
           Maximum rank =  0   Radius =  0.325 angstrom
                   Q00  =   0.072959

H          x = -0.619278  y =  2.754469  z =  1.150290 angstrom
           Maximum rank =  0   Radius =  0.325 angstrom
                   Q00  =   0.097225

Total multipoles referred to origin at
           x =   0.000000,  y =    0.000000,  z =    0.000000 angstrom
                   Q00  =  -0.000000

Finished at 16:52:58 on 27 Apr 2020

  DMA results are available in the Python driver through the
	  variable('DMA DISTRIBUTED MULTIPOLES')
  and
	  variable('DMA TOTAL MULTIPOLES')
  commands.

    Psi4 stopped on: Monday, 27 April 2020 04:52PM
    Psi4 wall time for execution: 0:00:45.67

*** Psi4 exiting successfully. Buy a developer a beer!
