                               Psi4 1.3.2 release

  ==> Input File <==

--------------------------------------------------------------------------
import numpy as np
set {scf_type pk
basis cc-pvdz
d_convergence 10
gdma_switch   0
gdma_limit    0
gdma_origin   [ 0.0,  0.0,  0.0 ]
}
molecule test {
    units Angstrom
    -1 1
    --
    -1 1
    C                1.347088189919017    -1.252076770731870     0.141543696905085
    C                2.558088189919018    -0.554076770731870     0.703543696905084
    C                0.861088189919017    -0.560076770731870     2.419543696905084
    C               -1.389911810080982    -1.836076770731870    -0.409456303094915
    C               -1.007911810080983    -1.167076770731870     0.918543696905085
    O               -1.860911810080983    -0.793076770731870     1.731543696905085
    N                0.302088189919017    -1.009076770731870     1.141543696905085
    H                1.117088189919017    -0.913076770731870    -0.862456303094915
    H                1.554088189919018    -2.322076770731870     0.110543696905085
    H                2.603088189919017     0.485923229268130     0.390543696905085
    H                3.475088189919017    -1.060076770731870     0.401543696905085
    H                0.582088189919017    -1.243076770731870     3.221543696905085
    H               -0.840911810080983    -1.321076770731870    -1.194456303094916
    H                2.422998189919018    -0.593508770731870     1.794503696905084
    H                1.948888189919018    -0.594609770731870     2.259823696905085
    H                0.558378189919017     0.461020229268130     2.694733696905085
    H               -1.121221810080983    -2.902546770731870    -0.388323303094916
    H               -2.446051810080982    -1.706024770731870    -0.688139303094916
    C               -0.260911810080983     2.105923229268130    -3.028456303094916
    C               -0.218911810080983     1.713923229268130    -1.563456303094915
    O               -1.269911810080983     1.799923229268130    -0.882456303094916
    O                0.877088189919017     1.360923229268130    -1.080456303094916
    H               -0.118911810080983     1.213923229268130    -3.642456303094916
    H                0.558088189919017     2.798923229268130    -3.236456303094916
    H               -1.209041810080983     2.588603229268129    -3.307866303094916

}
e, wfn = energy('scf', return_wfn=True)
gdma(wfn)
dmavals = variable('DMA DISTRIBUTED MULTIPOLES')
charges = np.array(dmavals)
print(charges)
np.save('SSI-029PRO-085GLU-1-dimer.npy', np.array(charges))--------------------------------------------------------------------------

*** tstart() called on ds3
*** at Tue Apr 28 19:57:55 2020

   => Loading Basis Set <=

    Name: CC-PVDZ
    Role: ORBITAL
    Keyword: BASIS
    atoms 1-5, 19-20  entry C          line   138 file /theoryfs2/ds/metcalf/miniconda2/envs/tf2gpu/share/psi4/basis/cc-pvdz.gbs
    atoms 6, 21-22    entry O          line   198 file /theoryfs2/ds/metcalf/miniconda2/envs/tf2gpu/share/psi4/basis/cc-pvdz.gbs
    atoms 7           entry N          line   168 file /theoryfs2/ds/metcalf/miniconda2/envs/tf2gpu/share/psi4/basis/cc-pvdz.gbs
    atoms 8-18, 23-25 entry H          line    22 file /theoryfs2/ds/metcalf/miniconda2/envs/tf2gpu/share/psi4/basis/cc-pvdz.gbs

         ---------------------------------------------------------
                                   SCF
               by Justin Turney, Rob Parrish, Andy Simmonett
                          and Daniel G. A. Smith
                              RHF Reference
                        1 Threads,    500 MiB Core
         ---------------------------------------------------------

  ==> Geometry <==

    Molecular point group: c1
    Full point group: C1

    Geometry (in Angstrom), charge = -1, multiplicity = 1:

       Center              X                  Y                   Z               Mass
    ------------   -----------------  -----------------  -----------------  -----------------
         C            1.347088189919    -1.252076770732     0.141543696905    12.000000000000
         C            2.558088189919    -0.554076770732     0.703543696905    12.000000000000
         C            0.861088189919    -0.560076770732     2.419543696905    12.000000000000
         C           -1.389911810081    -1.836076770732    -0.409456303095    12.000000000000
         C           -1.007911810081    -1.167076770732     0.918543696905    12.000000000000
         O           -1.860911810081    -0.793076770732     1.731543696905    15.994914619570
         N            0.302088189919    -1.009076770732     1.141543696905    14.003074004430
         H            1.117088189919    -0.913076770732    -0.862456303095     1.007825032230
         H            1.554088189919    -2.322076770732     0.110543696905     1.007825032230
         H            2.603088189919     0.485923229268     0.390543696905     1.007825032230
         H            3.475088189919    -1.060076770732     0.401543696905     1.007825032230
         H            0.582088189919    -1.243076770732     3.221543696905     1.007825032230
         H           -0.840911810081    -1.321076770732    -1.194456303095     1.007825032230
         H            2.422998189919    -0.593508770732     1.794503696905     1.007825032230
         H            1.948888189919    -0.594609770732     2.259823696905     1.007825032230
         H            0.558378189919     0.461020229268     2.694733696905     1.007825032230
         H           -1.121221810081    -2.902546770732    -0.388323303095     1.007825032230
         H           -2.446051810081    -1.706024770732    -0.688139303095     1.007825032230
         C           -0.260911810081     2.105923229268    -3.028456303095    12.000000000000
         C           -0.218911810081     1.713923229268    -1.563456303095    12.000000000000
         O           -1.269911810081     1.799923229268    -0.882456303095    15.994914619570
         O            0.877088189919     1.360923229268    -1.080456303095    15.994914619570
         H           -0.118911810081     1.213923229268    -3.642456303095     1.007825032230
         H            0.558088189919     2.798923229268    -3.236456303095     1.007825032230
         H           -1.209041810081     2.588603229268    -3.307866303095     1.007825032230

  Running in c1 symmetry.

  Rotational constants: A =      0.04379  B =      0.02379  C =      0.01902 [cm^-1]
  Rotational constants: A =   1312.93562  B =    713.26312  C =    570.15077 [MHz]
  Nuclear repulsion =  656.850894968222292

  Charge       = -1
  Multiplicity = 1
  Electrons    = 88
  Nalpha       = 44
  Nbeta        = 44

  ==> Algorithm <==

  SCF Algorithm Type is PK.
  DIIS enabled.
  MOM disabled.
  Fractional occupation disabled.
  Guess Type is SAD.
  Energy threshold   = 1.00e-06
  Density threshold  = 1.00e-10
  Integral threshold = 0.00e+00

  ==> Primary Basis <==

  Basis Set: CC-PVDZ
    Blend: CC-PVDZ
    Number of shells: 108
    Number of basis function: 224
    Number of Cartesian functions: 235
    Spherical Harmonics?: true
    Max angular momentum: 2

  ==> Pre-Iterations <==

   -------------------------------------------------------
    Irrep   Nso     Nmo     Nalpha   Nbeta   Ndocc  Nsocc
   -------------------------------------------------------
     A        224     224       0       0       0       0
   -------------------------------------------------------
    Total     224     224      44      44      44       0
   -------------------------------------------------------

  ==> Integral Setup <==

  Using integral reordering PK algorithm.
  Sizing the integral batches needed.
  Building batch lookup table.
   Calculation information:
      Number of atoms:                  25
      Number of AO shells:             108
      Number of primitives:            312
      Number of atomic orbitals:       235
      Number of basis functions:       224

      Integral cutoff                 1.00e-12
      Number of threads:                 1

	Batch   1 pq = [       0,    9405] index = [             0,44231715] size =     44231715
	Batch   2 pq = [    9405,   13301] index = [      44231715,88464951] size =     44233236
	Batch   3 pq = [   13301,   16290] index = [      88464951,132690195] size =     44225244
	Batch   4 pq = [   16290,   18810] index = [     132690195,176917455] size =     44227260
	Batch   5 pq = [   18810,   21030] index = [     176917455,221140965] size =     44223510
	Batch   6 pq = [   21030,   23037] index = [     221140965,265363203] size =     44222238
	Batch   7 pq = [   23037,   24883] index = [     265363203,309594286] size =     44231083
	Batch   8 pq = [   24883,   25200] index = [     309594286,317532600] size =      7938314
  Task number: 29
  Buffer size: 11059200
  Buffer per thread: 2
  We computed 17914055 shell quartets total.
  Whereas there are 17325441 unique shell quartets.
     3.40 percent of shell quartets recomputed by reordering.

  ==> DiskJK: Disk-Based J/K Matrices <==

    J tasked:                  Yes
    K tasked:                  Yes
    wK tasked:                  No
    Memory [MiB]:              375
    Schwarz Cutoff:          1E-12

    OpenMP threads:              1

  Minimum eigenvalue in the overlap matrix is 1.4430900573E-03.
  Using Symmetric Orthogonalization.

  SCF Guess: Superposition of Atomic Densities via on-the-fly atomic UHF.

  ==> Iterations <==

                        Total Energy        Delta E     RMS |[F,P]|

   @RHF iter SAD:  -550.90186668003525   -5.50902e+02   0.00000e+00
   @RHF iter   1:  -551.73414822342841   -8.32282e-01   3.96961e-03 DIIS
   @RHF iter   2:  -552.03225867550498   -2.98110e-01   2.35691e-03 DIIS
   @RHF iter   3:  -552.13297334885669   -1.00715e-01   4.03481e-04 DIIS
   @RHF iter   4:  -552.13822293953899   -5.24959e-03   1.65493e-04 DIIS
   @RHF iter   5:  -552.13912183177547   -8.98892e-04   3.83881e-05 DIIS
   @RHF iter   6:  -552.13918775042862   -6.59187e-05   1.94825e-05 DIIS
   @RHF iter   7:  -552.13920435139335   -1.66010e-05   5.61493e-06 DIIS
   @RHF iter   8:  -552.13920704203701   -2.69064e-06   2.28417e-06 DIIS
   @RHF iter   9:  -552.13920740711433   -3.65077e-07   8.29634e-07 DIIS
   @RHF iter  10:  -552.13920744778761   -4.06733e-08   2.39411e-07 DIIS
   @RHF iter  11:  -552.13920745076518   -2.97757e-09   9.02898e-08 DIIS
   @RHF iter  12:  -552.13920745108328   -3.18096e-10   3.37115e-08 DIIS
   @RHF iter  13:  -552.13920745113637   -5.30918e-11   9.88842e-09 DIIS
   @RHF iter  14:  -552.13920745114353   -7.16227e-12   3.13988e-09 DIIS
   @RHF iter  15:  -552.13920745114149    2.04636e-12   1.14894e-09 DIIS
   @RHF iter  16:  -552.13920745114535   -3.86535e-12   3.76256e-10 DIIS
   @RHF iter  17:  -552.13920745114467    6.82121e-13   1.66377e-10 DIIS
   @RHF iter  18:  -552.13920745114467    0.00000e+00   5.98872e-11 DIIS
  Energy and wave function converged.

  ==> Post-Iterations <==

    Orbital Energies [Eh]
    ---------------------

    Doubly Occupied:

       1A    -20.360721     2A    -20.277905     3A    -20.272051
       4A    -15.443013     5A    -11.206167     6A    -11.130300
       7A    -11.129184     8A    -11.118893     9A    -11.107341
      10A    -11.080287    11A    -11.062579    12A     -1.220149
      13A     -1.164873    14A     -1.113715    15A     -1.050504
      16A     -0.933083    17A     -0.870062    18A     -0.835035
      19A     -0.809312    20A     -0.718537    21A     -0.619475
      22A     -0.595673    23A     -0.534526    24A     -0.515115
      25A     -0.511176    26A     -0.483883    27A     -0.458449
      28A     -0.447631    29A     -0.425224    30A     -0.418001
      31A     -0.417286    32A     -0.412778    33A     -0.396949
      34A     -0.394198    35A     -0.382683    36A     -0.353380
      37A     -0.349526    38A     -0.317060    39A     -0.264156
      40A     -0.262416    41A     -0.222537    42A     -0.198775
      43A     -0.185672    44A     -0.175359

    Virtual:

      45A      0.299009    46A      0.320074    47A      0.331508
      48A      0.333094    49A      0.348740    50A      0.371903
      51A      0.375241    52A      0.379655    53A      0.391418
      54A      0.394489    55A      0.408048    56A      0.420916
      57A      0.434456    58A      0.459644    59A      0.470129
      60A      0.481404    61A      0.490189    62A      0.526590
      63A      0.543647    64A      0.563216    65A      0.585897
      66A      0.632033    67A      0.647930    68A      0.668258
      69A      0.672767    70A      0.706669    71A      0.733203
      72A      0.763512    73A      0.769808    74A      0.792238
      75A      0.812006    76A      0.815490    77A      0.833209
      78A      0.851725    79A      0.874444    80A      0.884356
      81A      0.893397    82A      0.920148    83A      0.938835
      84A      0.951976    85A      0.976450    86A      0.991835
      87A      0.992209    88A      1.003915    89A      1.011346
      90A      1.015868    91A      1.023270    92A      1.027866
      93A      1.041630    94A      1.049773    95A      1.052022
      96A      1.059266    97A      1.068446    98A      1.086231
      99A      1.097332   100A      1.119471   101A      1.131007
     102A      1.145484   103A      1.162452   104A      1.176407
     105A      1.202952   106A      1.213894   107A      1.238129
     108A      1.259721   109A      1.308422   110A      1.333883
     111A      1.347546   112A      1.352655   113A      1.371401
     114A      1.378680   115A      1.469085   116A      1.484295
     117A      1.516991   118A      1.523235   119A      1.549057
     120A      1.554398   121A      1.568593   122A      1.572527
     123A      1.577103   124A      1.591835   125A      1.610126
     126A      1.654571   127A      1.663636   128A      1.680699
     129A      1.698147   130A      1.712672   131A      1.732260
     132A      1.758060   133A      1.773107   134A      1.777795
     135A      1.791814   136A      1.826717   137A      1.833146
     138A      1.845642   139A      1.850705   140A      1.882985
     141A      1.925840   142A      1.969444   143A      1.982150
     144A      2.008895   145A      2.019176   146A      2.025607
     147A      2.045188   148A      2.055898   149A      2.060496
     150A      2.070483   151A      2.083325   152A      2.089245
     153A      2.092546   154A      2.115348   155A      2.124166
     156A      2.137896   157A      2.150078   158A      2.182423
     159A      2.194260   160A      2.207552   161A      2.214105
     162A      2.234448   163A      2.252587   164A      2.260333
     165A      2.286341   166A      2.295580   167A      2.307357
     168A      2.317548   169A      2.341194   170A      2.361460
     171A      2.368793   172A      2.412235   173A      2.424700
     174A      2.455154   175A      2.475089   176A      2.489056
     177A      2.523512   178A      2.566044   179A      2.576387
     180A      2.583605   181A      2.631464   182A      2.647587
     183A      2.656039   184A      2.674371   185A      2.683028
     186A      2.715258   187A      2.723961   188A      2.765108
     189A      2.774229   190A      2.840559   191A      2.874843
     192A      2.898318   193A      2.900737   194A      2.919952
     195A      2.933771   196A      2.945655   197A      2.951828
     198A      2.969802   199A      2.978961   200A      3.002421
     201A      3.016767   202A      3.069227   203A      3.129373
     204A      3.159081   205A      3.226363   206A      3.236668
     207A      3.241597   208A      3.263671   209A      3.294251
     210A      3.313726   211A      3.351202   212A      3.370303
     213A      3.487406   214A      3.504458   215A      3.623496
     216A      3.654997   217A      3.781750   218A      3.818344
     219A      3.954456   220A      4.037646   221A      4.056193
     222A      4.093348   223A      4.196820   224A      5.191708

    Final Occupation by Irrep:
              A
    DOCC [    44 ]

  @RHF Final Energy:  -552.13920745114467

   => Energetics <=

    Nuclear Repulsion Energy =            656.8508949682222919
    One-Electron Energy =               -2073.4889316959124699
    Two-Electron Energy =                 864.4988292765455071
    Total Energy =                       -552.1392074511446708

Computation Completed

Properties will be evaluated at   0.000000,   0.000000,   0.000000 [a0]

Properties computed using the SCF density matrix

  Nuclear Dipole Moment: [e a0]
     X:     8.5039      Y:    -4.7740      Z:    -2.2983

  Electronic Dipole Moment: [e a0]
     X:    -6.7621      Y:     2.3579      Z:     2.5357

  Dipole Moment: [e a0]
     X:     1.7418      Y:    -2.4161      Z:     0.2373     Total:     2.9879

  Dipole Moment: [D]
     X:     4.4273      Y:    -6.1410      Z:     0.6032     Total:     7.5945

*** tstop() called on ds3 at Tue Apr 28 20:00:59 2020
Module time:
	user time   =     138.16 seconds =       2.30 minutes
	system time =      52.41 seconds =       0.87 minutes
	total time  =        184 seconds =       3.07 minutes
Total time:
	user time   =     138.16 seconds =       2.30 minutes
	system time =      52.41 seconds =       0.87 minutes
	total time  =        184 seconds =       3.07 minutes
                                     G D M A

                                 by Anthony Stone

                           version 2.2.06, 22 June 2011

               Distributed Multipoles from Gaussian wavefunctions

Starting at 20:0:59 on 28 Apr 2020

Using SCF density matrix from file ./SSI/SSI-029PRO-085GLU-1-dimer.test.29389.fchk

                         Distributed Multipole Analysis

Standard DMA

Positions and radii in angstrom
Multipole moments in atomic units, ea_0^k for rank k

C          x =  1.347088  y = -1.252077  z =  0.141544 angstrom
           Maximum rank =  0   Radius =  0.650 angstrom
                   Q00  =   0.072110

C          x =  2.558088  y = -0.554077  z =  0.703544 angstrom
           Maximum rank =  0   Radius =  0.650 angstrom
                   Q00  =  -0.217693

C          x =  0.861088  y = -0.560077  z =  2.419544 angstrom
           Maximum rank =  0   Radius =  0.650 angstrom
                   Q00  =  -0.079300

C          x = -1.389912  y = -1.836077  z = -0.409456 angstrom
           Maximum rank =  0   Radius =  0.650 angstrom
                   Q00  =  -0.280951

C          x = -1.007912  y = -1.167077  z =  0.918544 angstrom
           Maximum rank =  0   Radius =  0.650 angstrom
                   Q00  =   0.785401

O          x = -1.860912  y = -0.793077  z =  1.731544 angstrom
           Maximum rank =  0   Radius =  0.650 angstrom
                   Q00  =  -0.797598

N          x =  0.302088  y = -1.009077  z =  1.141544 angstrom
           Maximum rank =  0   Radius =  0.650 angstrom
                   Q00  =  -0.452292

H          x =  1.117088  y = -0.913077  z = -0.862456 angstrom
           Maximum rank =  0   Radius =  0.325 angstrom
                   Q00  =   0.101343

H          x =  1.554088  y = -2.322077  z =  0.110544 angstrom
           Maximum rank =  0   Radius =  0.325 angstrom
                   Q00  =  -0.013657

H          x =  2.603088  y =  0.485923  z =  0.390544 angstrom
           Maximum rank =  0   Radius =  0.325 angstrom
                   Q00  =   0.147433

H          x =  3.475088  y = -1.060077  z =  0.401544 angstrom
           Maximum rank =  0   Radius =  0.325 angstrom
                   Q00  =   0.040953

H          x =  0.582088  y = -1.243077  z =  3.221544 angstrom
           Maximum rank =  0   Radius =  0.325 angstrom
                   Q00  =   0.059640

H          x = -0.840912  y = -1.321077  z = -1.194456 angstrom
           Maximum rank =  0   Radius =  0.325 angstrom
                   Q00  =   0.124892

H          x =  2.422998  y = -0.593509  z =  1.794504 angstrom
           Maximum rank =  0   Radius =  0.325 angstrom
                   Q00  =   0.050510

H          x =  1.948888  y = -0.594610  z =  2.259824 angstrom
           Maximum rank =  0   Radius =  0.325 angstrom
                   Q00  =   0.114437

H          x =  0.558378  y =  0.461020  z =  2.694734 angstrom
           Maximum rank =  0   Radius =  0.325 angstrom
                   Q00  =   0.115675

H          x = -1.121222  y = -2.902547  z = -0.388323 angstrom
           Maximum rank =  0   Radius =  0.325 angstrom
                   Q00  =   0.076213

H          x = -2.446052  y = -1.706025  z = -0.688139 angstrom
           Maximum rank =  0   Radius =  0.325 angstrom
                   Q00  =   0.118375

C          x = -0.260912  y =  2.105923  z = -3.028456 angstrom
           Maximum rank =  0   Radius =  0.650 angstrom
                   Q00  =  -0.270805

C          x = -0.218912  y =  1.713923  z = -1.563456 angstrom
           Maximum rank =  0   Radius =  0.650 angstrom
                   Q00  =   0.947010

O          x = -1.269912  y =  1.799923  z = -0.882456 angstrom
           Maximum rank =  0   Radius =  0.650 angstrom
                   Q00  =  -0.912533

O          x =  0.877088  y =  1.360923  z = -1.080456 angstrom
           Maximum rank =  0   Radius =  0.650 angstrom
                   Q00  =  -0.921469

H          x = -0.118912  y =  1.213923  z = -3.642456 angstrom
           Maximum rank =  0   Radius =  0.325 angstrom
                   Q00  =   0.068649

H          x =  0.558088  y =  2.798923  z = -3.236456 angstrom
           Maximum rank =  0   Radius =  0.325 angstrom
                   Q00  =   0.065760

H          x = -1.209042  y =  2.588603  z = -3.307866 angstrom
           Maximum rank =  0   Radius =  0.325 angstrom
                   Q00  =   0.057893

Total multipoles referred to origin at
           x =   0.000000,  y =    0.000000,  z =    0.000000 angstrom
                   Q00  =  -1.000000

Finished at 20:0:59 on 28 Apr 2020

  DMA results are available in the Python driver through the
	  variable('DMA DISTRIBUTED MULTIPOLES')
  and
	  variable('DMA TOTAL MULTIPOLES')
  commands.

    Psi4 stopped on: Tuesday, 28 April 2020 08:00PM
    Psi4 wall time for execution: 0:03:04.03

*** Psi4 exiting successfully. Buy a developer a beer!
