                               Psi4 1.3.2 release

  ==> Input File <==

--------------------------------------------------------------------------
import numpy as np
set {scf_type pk
basis cc-pvdz
d_convergence 10
gdma_switch   0
gdma_limit    0
gdma_origin   [ 0.0,  0.0,  0.0 ]
}
molecule test {
    units Angstrom
    0 1
    --
    0 1
    C                1.171318901226618    -2.325717444901310    -0.618379468191800
    C                1.781318901226618    -3.521717444901309     0.110620531808200
    H                1.218318901226618    -2.476717444901309    -1.697379468191800
    H                0.130318901226618    -2.207717444901309    -0.317379468191800
    H                1.709318901226618    -1.417717444901309    -0.348379468191800
    H                1.828318901226618    -3.286717444901309     1.171620531808200
    H                2.778248901226618    -3.838954444901309    -0.229225468191800
    H                1.119228901226618    -4.387707444901309    -0.036683468191800
    C               -0.776681098773382     0.738282555098691    -1.161379468191800
    C               -1.603681098773382     2.383282555098690     0.776620531808200
    S               -0.229681098773382     1.273282555098691     0.442620531808200
    H               -1.060681098773382     1.578282555098691    -1.783379468191800
    H                0.025318901226618     0.188282555098691    -1.653379468191800
    H               -1.639681098773382     0.082282555098691    -1.048379468191800
    H               -2.506681098773382     1.804282555098691     0.950620531808200
    H               -1.755681098773382     3.032282555098690    -0.085379468191800
    H               -1.373971098773382     2.993182555098691     1.662762531808200

}
e, wfn = energy('scf', return_wfn=True)
gdma(wfn)
dmavals = variable('DMA DISTRIBUTED MULTIPOLES')
charges = np.array(dmavals)
print(charges)
np.save('SSI-016THR-022MET-1-dimer.npy', np.array(charges))--------------------------------------------------------------------------

*** tstart() called on ds3
*** at Sun Apr 26 16:56:49 2020

   => Loading Basis Set <=

    Name: CC-PVDZ
    Role: ORBITAL
    Keyword: BASIS
    atoms 1-2, 9-10  entry C          line   138 file /theoryfs2/ds/metcalf/miniconda2/envs/tf2gpu/share/psi4/basis/cc-pvdz.gbs
    atoms 3-8, 12-17 entry H          line    22 file /theoryfs2/ds/metcalf/miniconda2/envs/tf2gpu/share/psi4/basis/cc-pvdz.gbs
    atoms 11         entry S          line   598 file /theoryfs2/ds/metcalf/miniconda2/envs/tf2gpu/share/psi4/basis/cc-pvdz.gbs

         ---------------------------------------------------------
                                   SCF
               by Justin Turney, Rob Parrish, Andy Simmonett
                          and Daniel G. A. Smith
                              RHF Reference
                        1 Threads,    500 MiB Core
         ---------------------------------------------------------

  ==> Geometry <==

    Molecular point group: c1
    Full point group: C1

    Geometry (in Angstrom), charge = 0, multiplicity = 1:

       Center              X                  Y                   Z               Mass
    ------------   -----------------  -----------------  -----------------  -----------------
         C            1.171318901227    -2.325717444901    -0.618379468192    12.000000000000
         C            1.781318901227    -3.521717444901     0.110620531808    12.000000000000
         H            1.218318901227    -2.476717444901    -1.697379468192     1.007825032230
         H            0.130318901227    -2.207717444901    -0.317379468192     1.007825032230
         H            1.709318901227    -1.417717444901    -0.348379468192     1.007825032230
         H            1.828318901227    -3.286717444901     1.171620531808     1.007825032230
         H            2.778248901227    -3.838954444901    -0.229225468192     1.007825032230
         H            1.119228901227    -4.387707444901    -0.036683468192     1.007825032230
         C           -0.776681098773     0.738282555099    -1.161379468192    12.000000000000
         C           -1.603681098773     2.383282555099     0.776620531808    12.000000000000
         S           -0.229681098773     1.273282555099     0.442620531808    31.972071174400
         H           -1.060681098773     1.578282555099    -1.783379468192     1.007825032230
         H            0.025318901227     0.188282555099    -1.653379468192     1.007825032230
         H           -1.639681098773     0.082282555099    -1.048379468192     1.007825032230
         H           -2.506681098773     1.804282555099     0.950620531808     1.007825032230
         H           -1.755681098773     3.032282555099    -0.085379468192     1.007825032230
         H           -1.373971098773     2.993182555099     1.662762531808     1.007825032230

  Running in c1 symmetry.

  Rotational constants: A =      0.28435  B =      0.03054  C =      0.02875 [cm^-1]
  Rotational constants: A =   8524.67059  B =    915.44756  C =    862.01712 [MHz]
  Nuclear repulsion =  221.786911207741383

  Charge       = 0
  Multiplicity = 1
  Electrons    = 52
  Nalpha       = 26
  Nbeta        = 26

  ==> Algorithm <==

  SCF Algorithm Type is PK.
  DIIS enabled.
  MOM disabled.
  Fractional occupation disabled.
  Guess Type is SAD.
  Energy threshold   = 1.00e-06
  Density threshold  = 1.00e-10
  Integral threshold = 0.00e+00

  ==> Primary Basis <==

  Basis Set: CC-PVDZ
    Blend: CC-PVDZ
    Number of shells: 68
    Number of basis function: 134
    Number of Cartesian functions: 139
    Spherical Harmonics?: true
    Max angular momentum: 2

  ==> Pre-Iterations <==

   -------------------------------------------------------
    Irrep   Nso     Nmo     Nalpha   Nbeta   Ndocc  Nsocc
   -------------------------------------------------------
     A        134     134       0       0       0       0
   -------------------------------------------------------
    Total     134     134      26      26      26       0
   -------------------------------------------------------

  ==> Integral Setup <==

  Using integral reordering PK algorithm.
  Sizing the integral batches needed.
  Building batch lookup table.
   Calculation information:
      Number of atoms:                  17
      Number of AO shells:              68
      Number of primitives:            198
      Number of atomic orbitals:       139
      Number of basis functions:       134

      Integral cutoff                 1.00e-12
      Number of threads:                 1

	Batch   1 pq = [       0,    9045] index = [             0,40910535] size =     40910535
  Task number: 4
  Buffer size: 11059200
  Buffer per thread: 2
  We computed 2084370 shell quartets total.
  Whereas there are 2753031 unique shell quartets.

  ==> DiskJK: Disk-Based J/K Matrices <==

    J tasked:                  Yes
    K tasked:                  Yes
    wK tasked:                  No
    Memory [MiB]:              375
    Schwarz Cutoff:          1E-12

    OpenMP threads:              1

  Minimum eigenvalue in the overlap matrix is 6.6197179056E-03.
  Using Symmetric Orthogonalization.

  SCF Guess: Superposition of Atomic Densities via on-the-fly atomic UHF.

  ==> Iterations <==

                        Total Energy        Delta E     RMS |[F,P]|

   @RHF iter SAD:  -554.96554171400749   -5.54966e+02   0.00000e+00
   @RHF iter   1:  -555.84381058997565   -8.78269e-01   3.39124e-03 DIIS
   @RHF iter   2:  -555.96802160037873   -1.24211e-01   1.35537e-03 DIIS
   @RHF iter   3:  -555.98642821627789   -1.84066e-02   3.16899e-04 DIIS
   @RHF iter   4:  -555.98831083126868   -1.88261e-03   4.85784e-05 DIIS
   @RHF iter   5:  -555.98834990168427   -3.90704e-05   1.14831e-05 DIIS
   @RHF iter   6:  -555.98835209304139   -2.19136e-06   2.88845e-06 DIIS
   @RHF iter   7:  -555.98835223080630   -1.37765e-07   7.53551e-07 DIIS
   @RHF iter   8:  -555.98835224149150   -1.06852e-08   1.87138e-07 DIIS
   @RHF iter   9:  -555.98835224239940   -9.07903e-10   5.40626e-08 DIIS
   @RHF iter  10:  -555.98835224246795   -6.85532e-11   1.54514e-08 DIIS
   @RHF iter  11:  -555.98835224247364   -5.68434e-12   3.52872e-09 DIIS
   @RHF iter  12:  -555.98835224247523   -1.59162e-12   1.04749e-09 DIIS
   @RHF iter  13:  -555.98835224247352    1.70530e-12   2.55343e-10 DIIS
   @RHF iter  14:  -555.98835224247534   -1.81899e-12   8.16006e-11 DIIS
  Energy and wave function converged.

  ==> Post-Iterations <==

    Orbital Energies [Eh]
    ---------------------

    Doubly Occupied:

       1A    -91.934124     2A    -11.255207     3A    -11.250700
       4A    -11.216488     5A    -11.215695     6A     -8.938569
       7A     -6.620609     8A     -6.619123     9A     -6.616765
      10A     -1.069320    11A     -1.016238    12A     -0.949490
      13A     -0.836277    14A     -0.805159    15A     -0.608991
      16A     -0.603041    17A     -0.598393    18A     -0.591346
      19A     -0.572956    20A     -0.559694    21A     -0.503820
      22A     -0.492518    23A     -0.485247    24A     -0.477567
      25A     -0.432928    26A     -0.330546

    Virtual:

      27A      0.174058    28A      0.179995    29A      0.197696
      30A      0.222739    31A      0.230339    32A      0.241055
      33A      0.254845    34A      0.257491    35A      0.276085
      36A      0.279069    37A      0.288844    38A      0.301157
      39A      0.304667    40A      0.331887    41A      0.409054
      42A      0.521959    43A      0.553806    44A      0.581491
      45A      0.592734    46A      0.605511    47A      0.608548
      48A      0.623811    49A      0.656525    50A      0.678914
      51A      0.691505    52A      0.717436    53A      0.758052
      54A      0.798402    55A      0.816301    56A      0.829542
      57A      0.838305    58A      0.866740    59A      0.876940
      60A      0.882087    61A      0.888335    62A      0.891916
      63A      0.893368    64A      0.897952    65A      0.906567
      66A      0.912989    67A      0.920229    68A      0.939293
      69A      0.951934    70A      0.959767    71A      0.977509
      72A      1.026396    73A      1.122258    74A      1.137795
      75A      1.178583    76A      1.230958    77A      1.260717
      78A      1.314474    79A      1.346312    80A      1.367741
      81A      1.391392    82A      1.457146    83A      1.478722
      84A      1.488159    85A      1.507093    86A      1.594534
      87A      1.664449    88A      1.682194    89A      1.688183
      90A      1.698062    91A      1.858876    92A      1.870167
      93A      1.879350    94A      1.885748    95A      1.903764
      96A      1.914229    97A      1.921812    98A      1.938752
      99A      1.948623   100A      1.952041   101A      1.968613
     102A      1.974327   103A      1.976127   104A      1.986047
     105A      2.002390   106A      2.016393   107A      2.063404
     108A      2.082053   109A      2.086557   110A      2.135618
     111A      2.220546   112A      2.242278   113A      2.303854
     114A      2.337592   115A      2.413879   116A      2.438074
     117A      2.444915   118A      2.454911   119A      2.464573
     120A      2.469981   121A      2.551968   122A      2.585688
     123A      2.736034   124A      2.759858   125A      2.765551
     126A      2.775766   127A      2.786397   128A      2.796663
     129A      2.826529   130A      2.836628   131A      2.852085
     132A      2.876168   133A      2.943506   134A      2.962176

    Final Occupation by Irrep:
              A
    DOCC [    26 ]

  @RHF Final Energy:  -555.98835224247534

   => Energetics <=

    Nuclear Repulsion Energy =            221.7869112077413831
    One-Electron Energy =               -1202.3489054661381488
    Two-Electron Energy =                 424.5736420159215072
    Total Energy =                       -555.9883522424752300

Computation Completed

Properties will be evaluated at   0.000000,   0.000000,   0.000000 [a0]

Properties computed using the SCF density matrix

  Nuclear Dipole Moment: [e a0]
     X:     0.4368      Y:    -7.4070      Z:    -3.1894

  Electronic Dipole Moment: [e a0]
     X:    -0.9703      Y:     7.5709      Z:     2.8537

  Dipole Moment: [e a0]
     X:    -0.5335      Y:     0.1639      Z:    -0.3357     Total:     0.6513

  Dipole Moment: [D]
     X:    -1.3561      Y:     0.4166      Z:    -0.8532     Total:     1.6554

*** tstop() called on ds3 at Sun Apr 26 16:57:13 2020
Module time:
	user time   =      16.29 seconds =       0.27 minutes
	system time =       5.30 seconds =       0.09 minutes
	total time  =         24 seconds =       0.40 minutes
Total time:
	user time   =      16.29 seconds =       0.27 minutes
	system time =       5.30 seconds =       0.09 minutes
	total time  =         24 seconds =       0.40 minutes
                                     G D M A

                                 by Anthony Stone

                           version 2.2.06, 22 June 2011

               Distributed Multipoles from Gaussian wavefunctions

Starting at 16:57:13 on 26 Apr 2020

Using SCF density matrix from file ./SSI/SSI-016THR-022MET-1-dimer.test.16986.fchk

                         Distributed Multipole Analysis

Standard DMA

Positions and radii in angstrom
Multipole moments in atomic units, ea_0^k for rank k

C          x =  1.171319  y = -2.325717  z = -0.618379 angstrom
           Maximum rank =  0   Radius =  0.650 angstrom
                   Q00  =  -0.241278

C          x =  1.781319  y = -3.521717  z =  0.110621 angstrom
           Maximum rank =  0   Radius =  0.650 angstrom
                   Q00  =  -0.236106

H          x =  1.218319  y = -2.476717  z = -1.697379 angstrom
           Maximum rank =  0   Radius =  0.325 angstrom
                   Q00  =   0.074995

H          x =  0.130319  y = -2.207717  z = -0.317379 angstrom
           Maximum rank =  0   Radius =  0.325 angstrom
                   Q00  =   0.084342

H          x =  1.709319  y = -1.417717  z = -0.348379 angstrom
           Maximum rank =  0   Radius =  0.325 angstrom
                   Q00  =   0.081642

H          x =  1.828319  y = -3.286717  z =  1.171621 angstrom
           Maximum rank =  0   Radius =  0.325 angstrom
                   Q00  =   0.082701

H          x =  2.778249  y = -3.838954  z = -0.229225 angstrom
           Maximum rank =  0   Radius =  0.325 angstrom
                   Q00  =   0.081340

H          x =  1.119229  y = -4.387707  z = -0.036683 angstrom
           Maximum rank =  0   Radius =  0.325 angstrom
                   Q00  =   0.072700

C          x = -0.776681  y =  0.738283  z = -1.161379 angstrom
           Maximum rank =  0   Radius =  0.650 angstrom
                   Q00  =  -0.362838

C          x = -1.603681  y =  2.383283  z =  0.776621 angstrom
           Maximum rank =  0   Radius =  0.650 angstrom
                   Q00  =  -0.345318

S          x = -0.229681  y =  1.273283  z =  0.442621 angstrom
           Maximum rank =  0   Radius =  0.650 angstrom
                   Q00  =   0.134423

H          x = -1.060681  y =  1.578283  z = -1.783379 angstrom
           Maximum rank =  0   Radius =  0.325 angstrom
                   Q00  =   0.085035

H          x =  0.025319  y =  0.188283  z = -1.653379 angstrom
           Maximum rank =  0   Radius =  0.325 angstrom
                   Q00  =   0.122457

H          x = -1.639681  y =  0.082283  z = -1.048379 angstrom
           Maximum rank =  0   Radius =  0.325 angstrom
                   Q00  =   0.077217

H          x = -2.506681  y =  1.804283  z =  0.950621 angstrom
           Maximum rank =  0   Radius =  0.325 angstrom
                   Q00  =   0.084619

H          x = -1.755681  y =  3.032283  z = -0.085379 angstrom
           Maximum rank =  0   Radius =  0.325 angstrom
                   Q00  =   0.085698

H          x = -1.373971  y =  2.993183  z =  1.662763 angstrom
           Maximum rank =  0   Radius =  0.325 angstrom
                   Q00  =   0.118370

Total multipoles referred to origin at
           x =   0.000000,  y =    0.000000,  z =    0.000000 angstrom
                   Q00  =   0.000000

Finished at 16:57:13 on 26 Apr 2020

  DMA results are available in the Python driver through the
	  variable('DMA DISTRIBUTED MULTIPOLES')
  and
	  variable('DMA TOTAL MULTIPOLES')
  commands.

    Psi4 stopped on: Sunday, 26 April 2020 04:57PM
    Psi4 wall time for execution: 0:00:23.75

*** Psi4 exiting successfully. Buy a developer a beer!
