                               Psi4 1.3.2 release

  ==> Input File <==

--------------------------------------------------------------------------
import numpy as np
set {scf_type pk
basis cc-pvdz
d_convergence 10
gdma_switch   0
gdma_limit    0
gdma_origin   [ 0.0,  0.0,  0.0 ]
}
molecule test {
    units Angstrom
    0 1
    --
    0 1
    C               -2.951891234109238    -0.835678239114508    -0.063191368544436
    C               -0.773891234109238     0.375321760885492    -0.149191368544436
    C               -1.754891234109238    -0.345678239114508    -0.827191368544436
    C                0.327108765890762     0.888321760885492    -0.831191368544436
    C                0.488108765890762     0.636321760885492    -2.190191368544436
    C               -1.594891234109238    -0.641678239114508    -2.178191368544436
    C               -0.484891234109238    -0.127678239114508    -2.862191368544436
    H               -0.894891234109238     0.575321760885492     0.905808631455564
    H                1.074108765890762     1.469321760885492    -0.309191368544436
    H               -2.597891234109238    -1.323678239114508     0.839808631455564
    H               -3.517891234109238    -1.550678239114508    -0.662191368544436
    H                1.351108765890762     1.010321760885492    -2.724191368544436
    H               -2.316891234109238    -1.250678239114508    -2.703191368544436
    H               -0.348891234109238    -0.345678239114508    -3.913191368544437
    H               -3.599781234109238    -0.010698239114508     0.267948631455564
    C                1.626108765890762    -0.188678239114508     2.195808631455564
    C                2.434108765890763    -1.009678239114508     3.247808631455564
    O                1.967108765890762     1.196321760885492     2.258808631455564
    H                1.859108765890762    -0.555678239114508     1.194808631455564
    H                0.560108765890762    -0.309678239114508     2.376808631455564
    H                3.450108765890763    -0.616678239114508     3.244808631455564
    H                1.200108765890762     1.708321760885492     1.969808631455564
    H                2.494998765890763    -2.068138239114508     2.954628631455564
    H                2.037228765890762    -0.845328239114508     4.260468631455563

}
e, wfn = energy('scf', return_wfn=True)
gdma(wfn)
dmavals = variable('DMA DISTRIBUTED MULTIPOLES')
charges = np.array(dmavals)
print(charges)
np.save('SSI-024PHE-100SER-1-dimer.npy', np.array(charges))--------------------------------------------------------------------------

*** tstart() called on ds3
*** at Tue Apr 28 20:06:13 2020

   => Loading Basis Set <=

    Name: CC-PVDZ
    Role: ORBITAL
    Keyword: BASIS
    atoms 1-7, 16-17  entry C          line   138 file /theoryfs2/ds/metcalf/miniconda2/envs/tf2gpu/share/psi4/basis/cc-pvdz.gbs
    atoms 8-15, 19-24 entry H          line    22 file /theoryfs2/ds/metcalf/miniconda2/envs/tf2gpu/share/psi4/basis/cc-pvdz.gbs
    atoms 18          entry O          line   198 file /theoryfs2/ds/metcalf/miniconda2/envs/tf2gpu/share/psi4/basis/cc-pvdz.gbs

         ---------------------------------------------------------
                                   SCF
               by Justin Turney, Rob Parrish, Andy Simmonett
                          and Daniel G. A. Smith
                              RHF Reference
                        1 Threads,    500 MiB Core
         ---------------------------------------------------------

  ==> Geometry <==

    Molecular point group: c1
    Full point group: C1

    Geometry (in Angstrom), charge = 0, multiplicity = 1:

       Center              X                  Y                   Z               Mass
    ------------   -----------------  -----------------  -----------------  -----------------
         C           -2.951891234109    -0.835678239115    -0.063191368544    12.000000000000
         C           -0.773891234109     0.375321760885    -0.149191368544    12.000000000000
         C           -1.754891234109    -0.345678239115    -0.827191368544    12.000000000000
         C            0.327108765891     0.888321760885    -0.831191368544    12.000000000000
         C            0.488108765891     0.636321760885    -2.190191368544    12.000000000000
         C           -1.594891234109    -0.641678239115    -2.178191368544    12.000000000000
         C           -0.484891234109    -0.127678239115    -2.862191368544    12.000000000000
         H           -0.894891234109     0.575321760885     0.905808631456     1.007825032230
         H            1.074108765891     1.469321760885    -0.309191368544     1.007825032230
         H           -2.597891234109    -1.323678239115     0.839808631456     1.007825032230
         H           -3.517891234109    -1.550678239115    -0.662191368544     1.007825032230
         H            1.351108765891     1.010321760885    -2.724191368544     1.007825032230
         H           -2.316891234109    -1.250678239115    -2.703191368544     1.007825032230
         H           -0.348891234109    -0.345678239115    -3.913191368544     1.007825032230
         H           -3.599781234109    -0.010698239115     0.267948631456     1.007825032230
         C            1.626108765891    -0.188678239115     2.195808631456    12.000000000000
         C            2.434108765891    -1.009678239115     3.247808631456    12.000000000000
         O            1.967108765891     1.196321760885     2.258808631456    15.994914619570
         H            1.859108765891    -0.555678239115     1.194808631456     1.007825032230
         H            0.560108765891    -0.309678239115     2.376808631456     1.007825032230
         H            3.450108765891    -0.616678239115     3.244808631456     1.007825032230
         H            1.200108765891     1.708321760885     1.969808631456     1.007825032230
         H            2.494998765891    -2.068138239115     2.954628631456     1.007825032230
         H            2.037228765891    -0.845328239115     4.260468631456     1.007825032230

  Running in c1 symmetry.

  Rotational constants: A =      0.06371  B =      0.01928  C =      0.01645 [cm^-1]
  Rotational constants: A =   1910.02311  B =    577.90803  C =    493.24591 [MHz]
  Nuclear repulsion =  489.419627589186462

  Charge       = 0
  Multiplicity = 1
  Electrons    = 76
  Nalpha       = 38
  Nbeta        = 38

  ==> Algorithm <==

  SCF Algorithm Type is PK.
  DIIS enabled.
  MOM disabled.
  Fractional occupation disabled.
  Guess Type is SAD.
  Energy threshold   = 1.00e-06
  Density threshold  = 1.00e-10
  Integral threshold = 0.00e+00

  ==> Primary Basis <==

  Basis Set: CC-PVDZ
    Blend: CC-PVDZ
    Number of shells: 102
    Number of basis function: 210
    Number of Cartesian functions: 220
    Spherical Harmonics?: true
    Max angular momentum: 2

  ==> Pre-Iterations <==

   -------------------------------------------------------
    Irrep   Nso     Nmo     Nalpha   Nbeta   Ndocc  Nsocc
   -------------------------------------------------------
     A        210     210       0       0       0       0
   -------------------------------------------------------
    Total     210     210      38      38      38       0
   -------------------------------------------------------

  ==> Integral Setup <==

  Using integral reordering PK algorithm.
  Sizing the integral batches needed.
  Building batch lookup table.
   Calculation information:
      Number of atoms:                  24
      Number of AO shells:             102
      Number of primitives:            290
      Number of atomic orbitals:       220
      Number of basis functions:       210

      Integral cutoff                 1.00e-12
      Number of threads:                 1

	Batch   1 pq = [       0,    9405] index = [             0,44231715] size =     44231715
	Batch   2 pq = [    9405,   13301] index = [      44231715,88464951] size =     44233236
	Batch   3 pq = [   13301,   16290] index = [      88464951,132690195] size =     44225244
	Batch   4 pq = [   16290,   18810] index = [     132690195,176917455] size =     44227260
	Batch   5 pq = [   18810,   21030] index = [     176917455,221140965] size =     44223510
	Batch   6 pq = [   21030,   22155] index = [     221140965,245433090] size =     24292125
  Task number: 23
  Buffer size: 11059200
  Buffer per thread: 2
  We computed 11795150 shell quartets total.
  Whereas there are 13799631 unique shell quartets.

  ==> DiskJK: Disk-Based J/K Matrices <==

    J tasked:                  Yes
    K tasked:                  Yes
    wK tasked:                  No
    Memory [MiB]:              375
    Schwarz Cutoff:          1E-12

    OpenMP threads:              1

  Minimum eigenvalue in the overlap matrix is 3.3057578179E-04.
  Using Symmetric Orthogonalization.

  SCF Guess: Superposition of Atomic Densities via on-the-fly atomic UHF.

  ==> Iterations <==

                        Total Energy        Delta E     RMS |[F,P]|

   @RHF iter SAD:  -422.53402603191830   -4.22534e+02   0.00000e+00
   @RHF iter   1:  -423.59977378041941   -1.06575e+00   2.92702e-03 DIIS
   @RHF iter   2:  -423.80562404110452   -2.05850e-01   1.32327e-03 DIIS
   @RHF iter   3:  -423.84124761131682   -3.56236e-02   2.89151e-04 DIIS
   @RHF iter   4:  -423.84408936963200   -2.84176e-03   8.94625e-05 DIIS
   @RHF iter   5:  -423.84428240074482   -1.93031e-04   1.74085e-05 DIIS
   @RHF iter   6:  -423.84429285775087   -1.04570e-05   4.78802e-06 DIIS
   @RHF iter   7:  -423.84429372769290   -8.69942e-07   1.81586e-06 DIIS
   @RHF iter   8:  -423.84429385310881   -1.25416e-07   5.83092e-07 DIIS
   @RHF iter   9:  -423.84429387529661   -2.21878e-08   2.63169e-07 DIIS
   @RHF iter  10:  -423.84429388168030   -6.38369e-09   1.17591e-07 DIIS
   @RHF iter  11:  -423.84429388357978   -1.89948e-09   4.51443e-08 DIIS
   @RHF iter  12:  -423.84429388383649   -2.56705e-10   1.86501e-08 DIIS
   @RHF iter  13:  -423.84429388385865   -2.21689e-11   6.26784e-09 DIIS
   @RHF iter  14:  -423.84429388386138   -2.72848e-12   2.09020e-09 DIIS
   @RHF iter  15:  -423.84429388386025    1.13687e-12   6.69955e-10 DIIS
   @RHF iter  16:  -423.84429388385882    1.42109e-12   2.55154e-10 DIIS
   @RHF iter  17:  -423.84429388385956   -7.38964e-13   1.31483e-10 DIIS
   @RHF iter  18:  -423.84429388386150   -1.93268e-12   5.42500e-11 DIIS
  Energy and wave function converged.

  ==> Post-Iterations <==

    Orbital Energies [Eh]
    ---------------------

    Doubly Occupied:

       1A    -20.551229     2A    -11.275199     3A    -11.245499
       4A    -11.242438     5A    -11.240685     6A    -11.236586
       7A    -11.236206     8A    -11.235391     9A    -11.232747
      10A    -11.221706    11A     -1.349459    12A     -1.155602
      13A     -1.048277    14A     -1.015366    15A     -0.998472
      16A     -0.935033    17A     -0.834449    18A     -0.829569
      19A     -0.799003    20A     -0.699263    21A     -0.685899
      22A     -0.641248    23A     -0.635777    24A     -0.630011
      25A     -0.587828    26A     -0.577806    27A     -0.567276
      28A     -0.558875    29A     -0.543822    30A     -0.530470
      31A     -0.529496    32A     -0.492170    33A     -0.488605
      34A     -0.485921    35A     -0.471281    36A     -0.433350
      37A     -0.335888    38A     -0.324549

    Virtual:

      39A      0.126900    40A      0.137625    41A      0.163570
      42A      0.193945    43A      0.197481    44A      0.208671
      45A      0.227218    46A      0.237175    47A      0.252654
      48A      0.255156    49A      0.272934    50A      0.275986
      51A      0.280827    52A      0.288544    53A      0.318573
      54A      0.335793    55A      0.360617    56A      0.374610
      57A      0.384514    58A      0.395107    59A      0.446039
      60A      0.461220    61A      0.475605    62A      0.505049
      63A      0.563021    64A      0.587720    65A      0.599083
      66A      0.606543    67A      0.641151    68A      0.666196
      69A      0.675511    70A      0.694331    71A      0.699434
      72A      0.716075    73A      0.731275    74A      0.736787
      75A      0.740205    76A      0.743955    77A      0.749281
      78A      0.757372    79A      0.777739    80A      0.786296
      81A      0.792245    82A      0.815209    83A      0.829594
      84A      0.855983    85A      0.861998    86A      0.869109
      87A      0.878769    88A      0.885441    89A      0.890874
      90A      0.894330    91A      0.897878    92A      0.909181
      93A      0.914635    94A      0.924068    95A      0.940908
      96A      0.949742    97A      0.957168    98A      0.984183
      99A      1.003449   100A      1.032192   101A      1.064788
     102A      1.104597   103A      1.116165   104A      1.126336
     105A      1.143883   106A      1.155677   107A      1.175609
     108A      1.193997   109A      1.201187   110A      1.215679
     111A      1.239304   112A      1.250128   113A      1.256654
     114A      1.289918   115A      1.301472   116A      1.304259
     117A      1.315933   118A      1.323146   119A      1.405286
     120A      1.417569   121A      1.444862   122A      1.478366
     123A      1.501700   124A      1.513993   125A      1.528898
     126A      1.555646   127A      1.573916   128A      1.621769
     129A      1.661525   130A      1.676509   131A      1.679138
     132A      1.685513   133A      1.731942   134A      1.738101
     135A      1.752298   136A      1.770245   137A      1.787480
     138A      1.810435   139A      1.846250   140A      1.857368
     141A      1.874893   142A      1.889121   143A      1.896837
     144A      1.901815   145A      1.906675   146A      1.908569
     147A      1.916121   148A      1.921491   149A      1.939012
     150A      1.944758   151A      1.958067   152A      1.958684
     153A      1.974920   154A      1.978355   155A      2.015012
     156A      2.017545   157A      2.028133   158A      2.032784
     159A      2.061205   160A      2.083290   161A      2.101805
     162A      2.119890   163A      2.137494   164A      2.143482
     165A      2.162546   166A      2.180569   167A      2.190930
     168A      2.195499   169A      2.231371   170A      2.264079
     171A      2.264798   172A      2.276783   173A      2.302132
     174A      2.306962   175A      2.334195   176A      2.353239
     177A      2.366077   178A      2.442578   179A      2.448825
     180A      2.469326   181A      2.491854   182A      2.517293
     183A      2.531408   184A      2.552651   185A      2.571562
     186A      2.625833   187A      2.725647   188A      2.748959
     189A      2.758815   190A      2.770298   191A      2.780608
     192A      2.785405   193A      2.806623   194A      2.816082
     195A      2.844235   196A      2.854797   197A      2.869318
     198A      2.954253   199A      2.965436   200A      3.003097
     201A      3.014736   202A      3.151116   203A      3.191890
     204A      3.292769   205A      3.317206   206A      3.408038
     207A      3.459785   208A      3.607280   209A      3.947714
     210A      4.116995

    Final Occupation by Irrep:
              A
    DOCC [    38 ]

  @RHF Final Energy:  -423.84429388386150

   => Energetics <=

    Nuclear Repulsion Energy =            489.4196275891864616
    One-Electron Energy =               -1544.7229373576551552
    Two-Electron Energy =                 631.4590158846073109
    Total Energy =                       -423.8442938838614964

Computation Completed

Properties will be evaluated at   0.000000,   0.000000,   0.000000 [a0]

Properties computed using the SCF density matrix

  Nuclear Dipole Moment: [e a0]
     X:     0.7132      Y:    -3.8506      Z:     7.2321

  Electronic Dipole Moment: [e a0]
     X:    -1.3901      Y:     3.5218      Z:    -7.4226

  Dipole Moment: [e a0]
     X:    -0.6769      Y:    -0.3288      Z:    -0.1905     Total:     0.7763

  Dipole Moment: [D]
     X:    -1.7206      Y:    -0.8358      Z:    -0.4841     Total:     1.9732

*** tstop() called on ds3 at Tue Apr 28 20:08:17 2020
Module time:
	user time   =      89.57 seconds =       1.49 minutes
	system time =      39.64 seconds =       0.66 minutes
	total time  =        124 seconds =       2.07 minutes
Total time:
	user time   =      89.57 seconds =       1.49 minutes
	system time =      39.64 seconds =       0.66 minutes
	total time  =        124 seconds =       2.07 minutes
                                     G D M A

                                 by Anthony Stone

                           version 2.2.06, 22 June 2011

               Distributed Multipoles from Gaussian wavefunctions

Starting at 20:8:18 on 28 Apr 2020

Using SCF density matrix from file ./SSI/SSI-024PHE-100SER-1-dimer.test.32249.fchk

                         Distributed Multipole Analysis

Standard DMA

Positions and radii in angstrom
Multipole moments in atomic units, ea_0^k for rank k

C          x = -2.951891  y = -0.835678  z = -0.063191 angstrom
           Maximum rank =  0   Radius =  0.650 angstrom
                   Q00  =  -0.201749

C          x = -0.773891  y =  0.375322  z = -0.149191 angstrom
           Maximum rank =  0   Radius =  0.650 angstrom
                   Q00  =  -0.023403

C          x = -1.754891  y = -0.345678  z = -0.827191 angstrom
           Maximum rank =  0   Radius =  0.650 angstrom
                   Q00  =  -0.086525

C          x =  0.327109  y =  0.888322  z = -0.831191 angstrom
           Maximum rank =  0   Radius =  0.650 angstrom
                   Q00  =  -0.058892

C          x =  0.488109  y =  0.636322  z = -2.190191 angstrom
           Maximum rank =  0   Radius =  0.650 angstrom
                   Q00  =  -0.077420

C          x = -1.594891  y = -0.641678  z = -2.178191 angstrom
           Maximum rank =  0   Radius =  0.650 angstrom
                   Q00  =  -0.084444

C          x = -0.484891  y = -0.127678  z = -2.862191 angstrom
           Maximum rank =  0   Radius =  0.650 angstrom
                   Q00  =  -0.061501

H          x = -0.894891  y =  0.575322  z =  0.905809 angstrom
           Maximum rank =  0   Radius =  0.325 angstrom
                   Q00  =   0.040283

H          x =  1.074109  y =  1.469322  z = -0.309191 angstrom
           Maximum rank =  0   Radius =  0.325 angstrom
                   Q00  =   0.045668

H          x = -2.597891  y = -1.323678  z =  0.839809 angstrom
           Maximum rank =  0   Radius =  0.325 angstrom
                   Q00  =   0.096481

H          x = -3.517891  y = -1.550678  z = -0.662191 angstrom
           Maximum rank =  0   Radius =  0.325 angstrom
                   Q00  =   0.100185

H          x =  1.351109  y =  1.010322  z = -2.724191 angstrom
           Maximum rank =  0   Radius =  0.325 angstrom
                   Q00  =   0.067095

H          x = -2.316891  y = -1.250678  z = -2.703191 angstrom
           Maximum rank =  0   Radius =  0.325 angstrom
                   Q00  =   0.063976

H          x = -0.348891  y = -0.345678  z = -3.913191 angstrom
           Maximum rank =  0   Radius =  0.325 angstrom
                   Q00  =   0.068580

H          x = -3.599781  y = -0.010698  z =  0.267949 angstrom
           Maximum rank =  0   Radius =  0.325 angstrom
                   Q00  =   0.102568

C          x =  1.626109  y = -0.188678  z =  2.195809 angstrom
           Maximum rank =  0   Radius =  0.650 angstrom
                   Q00  =   0.084706

C          x =  2.434109  y = -1.009678  z =  3.247809 angstrom
           Maximum rank =  0   Radius =  0.650 angstrom
                   Q00  =  -0.237407

O          x =  1.967109  y =  1.196322  z =  2.258809 angstrom
           Maximum rank =  0   Radius =  0.650 angstrom
                   Q00  =  -0.605202

H          x =  1.859109  y = -0.555678  z =  1.194809 angstrom
           Maximum rank =  0   Radius =  0.325 angstrom
                   Q00  =   0.057685

H          x =  0.560109  y = -0.309678  z =  2.376809 angstrom
           Maximum rank =  0   Radius =  0.325 angstrom
                   Q00  =   0.034488

H          x =  3.450109  y = -0.616678  z =  3.244809 angstrom
           Maximum rank =  0   Radius =  0.325 angstrom
                   Q00  =   0.097651

H          x =  1.200109  y =  1.708322  z =  1.969809 angstrom
           Maximum rank =  0   Radius =  0.325 angstrom
                   Q00  =   0.401242

H          x =  2.494999  y = -2.068138  z =  2.954629 angstrom
           Maximum rank =  0   Radius =  0.325 angstrom
                   Q00  =   0.088447

H          x =  2.037229  y = -0.845328  z =  4.260469 angstrom
           Maximum rank =  0   Radius =  0.325 angstrom
                   Q00  =   0.087487

Total multipoles referred to origin at
           x =   0.000000,  y =    0.000000,  z =    0.000000 angstrom
                   Q00  =  -0.000000

Finished at 20:8:18 on 28 Apr 2020

  DMA results are available in the Python driver through the
	  variable('DMA DISTRIBUTED MULTIPOLES')
  and
	  variable('DMA TOTAL MULTIPOLES')
  commands.

    Psi4 stopped on: Tuesday, 28 April 2020 08:08PM
    Psi4 wall time for execution: 0:02:04.95

*** Psi4 exiting successfully. Buy a developer a beer!
