                               Psi4 1.3.2 release

  ==> Input File <==

--------------------------------------------------------------------------
import numpy as np
set {scf_type pk
basis cc-pvdz
d_convergence 10
gdma_switch   0
gdma_limit    0
gdma_origin   [ 0.0,  0.0,  0.0 ]
}
molecule test {
    units Angstrom
    0 1
    --
    0 1
    C                0.181108278960152     1.631798491889273     3.233926595518174
    C               -1.345891721039847     1.468798491889273     3.412926595518174
    H                0.579108278960152     2.361798491889274     3.938926595518174
    H                0.673108278960152     0.677798491889273     3.427926595518174
    H                0.402108278960152     1.945798491889273     2.214926595518174
    H               -1.527891721039847     1.316798491889273     4.476926595518174
    H               -1.857620721039847     2.384750491889274     3.082524595518174
    H               -1.734311721039848     0.590349491889273     2.876776595518174
    C                0.599108278960152     2.299798491889274    -1.923073404481826
    C                1.015108278960152     0.469798491889273    -0.235073404481826
    C                0.376108278960152     0.901798491889273    -1.405073404481826
    C                0.816108278960152    -0.828201508110727     0.222926595518174
    C               -0.456891721039848     0.011798491889273    -2.087073404481826
    C               -0.026891721039847    -1.715201508110727    -0.459073404481826
    C               -0.666891721039848    -1.298201508110727    -1.632073404481826
    O               -0.266891721039847    -2.969201508110726     0.048926595518174
    H                1.664108278960152     1.139798491889273     0.308926595518174
    H                1.300108278960153    -1.158201508110727     1.130926595518174
    H                0.675108278960152     2.259798491889274    -3.011073404481826
    H                1.554108278960153     2.667798491889274    -1.546073404481827
    H               -0.942891721039848     0.328798491889273    -2.996073404481826
    H               -1.323891721039848    -1.968201508110726    -2.168073404481826
    H               -0.882891721039847    -3.467201508110727    -0.500073404481826
    H               -0.188442721039847     3.011389491889274    -1.634280404481826

}
e, wfn = energy('scf', return_wfn=True)
gdma(wfn)
dmavals = variable('DMA DISTRIBUTED MULTIPOLES')
charges = np.array(dmavals)
print(charges)
np.save('SSI-162VAL-167TYR-2-dimer.npy', np.array(charges))--------------------------------------------------------------------------

*** tstart() called on ds3
*** at Tue Apr 28 11:51:48 2020

   => Loading Basis Set <=

    Name: CC-PVDZ
    Role: ORBITAL
    Keyword: BASIS
    atoms 1-2, 9-15  entry C          line   138 file /theoryfs2/ds/metcalf/miniconda2/envs/tf2gpu/share/psi4/basis/cc-pvdz.gbs
    atoms 3-8, 17-24 entry H          line    22 file /theoryfs2/ds/metcalf/miniconda2/envs/tf2gpu/share/psi4/basis/cc-pvdz.gbs
    atoms 16         entry O          line   198 file /theoryfs2/ds/metcalf/miniconda2/envs/tf2gpu/share/psi4/basis/cc-pvdz.gbs

         ---------------------------------------------------------
                                   SCF
               by Justin Turney, Rob Parrish, Andy Simmonett
                          and Daniel G. A. Smith
                              RHF Reference
                        1 Threads,    500 MiB Core
         ---------------------------------------------------------

  ==> Geometry <==

    Molecular point group: c1
    Full point group: C1

    Geometry (in Angstrom), charge = 0, multiplicity = 1:

       Center              X                  Y                   Z               Mass
    ------------   -----------------  -----------------  -----------------  -----------------
         C            0.181108278960     1.631798491889     3.233926595518    12.000000000000
         C           -1.345891721040     1.468798491889     3.412926595518    12.000000000000
         H            0.579108278960     2.361798491889     3.938926595518     1.007825032230
         H            0.673108278960     0.677798491889     3.427926595518     1.007825032230
         H            0.402108278960     1.945798491889     2.214926595518     1.007825032230
         H           -1.527891721040     1.316798491889     4.476926595518     1.007825032230
         H           -1.857620721040     2.384750491889     3.082524595518     1.007825032230
         H           -1.734311721040     0.590349491889     2.876776595518     1.007825032230
         C            0.599108278960     2.299798491889    -1.923073404482    12.000000000000
         C            1.015108278960     0.469798491889    -0.235073404482    12.000000000000
         C            0.376108278960     0.901798491889    -1.405073404482    12.000000000000
         C            0.816108278960    -0.828201508111     0.222926595518    12.000000000000
         C           -0.456891721040     0.011798491889    -2.087073404482    12.000000000000
         C           -0.026891721040    -1.715201508111    -0.459073404482    12.000000000000
         C           -0.666891721040    -1.298201508111    -1.632073404482    12.000000000000
         O           -0.266891721040    -2.969201508111     0.048926595518    15.994914619570
         H            1.664108278960     1.139798491889     0.308926595518     1.007825032230
         H            1.300108278960    -1.158201508111     1.130926595518     1.007825032230
         H            0.675108278960     2.259798491889    -3.011073404482     1.007825032230
         H            1.554108278960     2.667798491889    -1.546073404482     1.007825032230
         H           -0.942891721040     0.328798491889    -2.996073404482     1.007825032230
         H           -1.323891721040    -1.968201508111    -2.168073404482     1.007825032230
         H           -0.882891721040    -3.467201508111    -0.500073404482     1.007825032230
         H           -0.188442721040     3.011389491889    -1.634280404482     1.007825032230

  Running in c1 symmetry.

  Rotational constants: A =      0.04067  B =      0.02598  C =      0.01814 [cm^-1]
  Rotational constants: A =   1219.39850  B =    778.98814  C =    543.83358 [MHz]
  Nuclear repulsion =  492.515058632227465

  Charge       = 0
  Multiplicity = 1
  Electrons    = 76
  Nalpha       = 38
  Nbeta        = 38

  ==> Algorithm <==

  SCF Algorithm Type is PK.
  DIIS enabled.
  MOM disabled.
  Fractional occupation disabled.
  Guess Type is SAD.
  Energy threshold   = 1.00e-06
  Density threshold  = 1.00e-10
  Integral threshold = 0.00e+00

  ==> Primary Basis <==

  Basis Set: CC-PVDZ
    Blend: CC-PVDZ
    Number of shells: 102
    Number of basis function: 210
    Number of Cartesian functions: 220
    Spherical Harmonics?: true
    Max angular momentum: 2

  ==> Pre-Iterations <==

   -------------------------------------------------------
    Irrep   Nso     Nmo     Nalpha   Nbeta   Ndocc  Nsocc
   -------------------------------------------------------
     A        210     210       0       0       0       0
   -------------------------------------------------------
    Total     210     210      38      38      38       0
   -------------------------------------------------------

  ==> Integral Setup <==

  Using integral reordering PK algorithm.
  Sizing the integral batches needed.
  Building batch lookup table.
   Calculation information:
      Number of atoms:                  24
      Number of AO shells:             102
      Number of primitives:            290
      Number of atomic orbitals:       220
      Number of basis functions:       210

      Integral cutoff                 1.00e-12
      Number of threads:                 1

	Batch   1 pq = [       0,    9405] index = [             0,44231715] size =     44231715
	Batch   2 pq = [    9405,   13301] index = [      44231715,88464951] size =     44233236
	Batch   3 pq = [   13301,   16290] index = [      88464951,132690195] size =     44225244
	Batch   4 pq = [   16290,   18810] index = [     132690195,176917455] size =     44227260
	Batch   5 pq = [   18810,   21030] index = [     176917455,221140965] size =     44223510
	Batch   6 pq = [   21030,   22155] index = [     221140965,245433090] size =     24292125
  Task number: 23
  Buffer size: 11059200
  Buffer per thread: 2
  We computed 11689407 shell quartets total.
  Whereas there are 13799631 unique shell quartets.

  ==> DiskJK: Disk-Based J/K Matrices <==

    J tasked:                  Yes
    K tasked:                  Yes
    wK tasked:                  No
    Memory [MiB]:              375
    Schwarz Cutoff:          1E-12

    OpenMP threads:              1

  Minimum eigenvalue in the overlap matrix is 3.3502456478E-04.
  Using Symmetric Orthogonalization.

  SCF Guess: Superposition of Atomic Densities via on-the-fly atomic UHF.

  ==> Iterations <==

                        Total Energy        Delta E     RMS |[F,P]|

   @RHF iter SAD:  -422.56409250858428   -4.22564e+02   0.00000e+00
   @RHF iter   1:  -423.60201378530508   -1.03792e+00   2.96817e-03 DIIS
   @RHF iter   2:  -423.81637654256321   -2.14363e-01   1.26493e-03 DIIS
   @RHF iter   3:  -423.85159116881579   -3.52146e-02   2.88593e-04 DIIS
   @RHF iter   4:  -423.85450057208493   -2.90940e-03   1.21866e-04 DIIS
   @RHF iter   5:  -423.85488479865757   -3.84227e-04   2.07934e-05 DIIS
   @RHF iter   6:  -423.85490270459655   -1.79059e-05   6.52714e-06 DIIS
   @RHF iter   7:  -423.85490446868272   -1.76409e-06   2.18256e-06 DIIS
   @RHF iter   8:  -423.85490473046087   -2.61778e-07   8.25607e-07 DIIS
   @RHF iter   9:  -423.85490477762687   -4.71660e-08   3.54165e-07 DIIS
   @RHF iter  10:  -423.85490478751831   -9.89144e-09   1.52755e-07 DIIS
   @RHF iter  11:  -423.85490479070063   -3.18232e-09   6.71583e-08 DIIS
   @RHF iter  12:  -423.85490479121984   -5.19208e-10   2.98817e-08 DIIS
   @RHF iter  13:  -423.85490479130141   -8.15703e-11   8.52510e-09 DIIS
   @RHF iter  14:  -423.85490479130851   -7.10543e-12   2.50821e-09 DIIS
   @RHF iter  15:  -423.85490479130556    2.95586e-12   8.37352e-10 DIIS
   @RHF iter  16:  -423.85490479130618   -6.25278e-13   3.51223e-10 DIIS
   @RHF iter  17:  -423.85490479130681   -6.25278e-13   1.67280e-10 DIIS
   @RHF iter  18:  -423.85490479130601    7.95808e-13   8.18903e-11 DIIS
  Energy and wave function converged.

  ==> Post-Iterations <==

    Orbital Energies [Eh]
    ---------------------

    Doubly Occupied:

       1A    -20.583325     2A    -11.302557     3A    -11.240054
       4A    -11.239323     5A    -11.236584     6A    -11.235060
       7A    -11.231808     8A    -11.228592     9A    -11.215586
      10A    -11.213883    11A     -1.394677    12A     -1.148121
      13A     -1.036088    14A     -1.016843    15A     -1.009221
      16A     -0.925544    17A     -0.843115    18A     -0.833522
      19A     -0.800805    20A     -0.729925    21A     -0.665671
      22A     -0.641512    23A     -0.608957    24A     -0.593770
      25A     -0.591339    26A     -0.585034    27A     -0.583242
      28A     -0.570358    29A     -0.565835    30A     -0.525633
      31A     -0.500443    32A     -0.493546    33A     -0.485488
      34A     -0.481649    35A     -0.479157    36A     -0.465534
      37A     -0.337986    38A     -0.301344

    Virtual:

      39A      0.127571    40A      0.151998    41A      0.177106
      42A      0.179746    43A      0.196458    44A      0.211148
      45A      0.221023    46A      0.243600    47A      0.250247
      48A      0.259477    49A      0.267716    50A      0.282107
      51A      0.285046    52A      0.290433    53A      0.303008
      54A      0.335834    55A      0.368613    56A      0.378409
      57A      0.395468    58A      0.425439    59A      0.452076
      60A      0.479488    61A      0.493844    62A      0.507921
      63A      0.584154    64A      0.602689    65A      0.610695
      66A      0.618676    67A      0.637275    68A      0.651039
      69A      0.652936    70A      0.684187    71A      0.686772
      72A      0.689802    73A      0.699251    74A      0.708879
      75A      0.731577    76A      0.738043    77A      0.765236
      78A      0.769042    79A      0.780524    80A      0.786341
      81A      0.808137    82A      0.838958    83A      0.844622
      84A      0.847589    85A      0.865123    86A      0.875693
      87A      0.883808    88A      0.888947    89A      0.896839
      90A      0.901428    91A      0.908219    92A      0.911880
      93A      0.929209    94A      0.933390    95A      0.937848
      96A      0.941196    97A      0.946153    98A      0.975060
      99A      0.995526   100A      1.011865   101A      1.022803
     102A      1.061041   103A      1.115435   104A      1.123397
     105A      1.132671   106A      1.141160   107A      1.149896
     108A      1.167645   109A      1.200608   110A      1.233376
     111A      1.244691   112A      1.254286   113A      1.277984
     114A      1.284971   115A      1.294522   116A      1.306763
     117A      1.311404   118A      1.348630   119A      1.363290
     120A      1.383991   121A      1.472183   122A      1.479575
     123A      1.488520   124A      1.505161   125A      1.522848
     126A      1.550617   127A      1.573985   128A      1.611513
     129A      1.620947   130A      1.685566   131A      1.690007
     132A      1.698564   133A      1.707639   134A      1.736917
     135A      1.746372   136A      1.781589   137A      1.799930
     138A      1.803491   139A      1.868631   140A      1.870663
     141A      1.874403   142A      1.882506   143A      1.884367
     144A      1.892115   145A      1.908257   146A      1.914381
     147A      1.916805   148A      1.934871   149A      1.940800
     150A      1.949686   151A      1.950576   152A      1.954259
     153A      1.966274   154A      1.979315   155A      1.983407
     156A      1.995380   157A      2.037099   158A      2.042668
     159A      2.058359   160A      2.061392   161A      2.065275
     162A      2.106785   163A      2.132001   164A      2.136384
     165A      2.153512   166A      2.161173   167A      2.195827
     168A      2.227825   169A      2.257225   170A      2.275642
     171A      2.295021   172A      2.301390   173A      2.310844
     174A      2.327281   175A      2.366387   176A      2.415288
     177A      2.444818   178A      2.450980   179A      2.465886
     180A      2.478067   181A      2.487127   182A      2.523658
     183A      2.535472   184A      2.561242   185A      2.589654
     186A      2.603612   187A      2.629001   188A      2.747054
     189A      2.766693   190A      2.768337   191A      2.782149
     192A      2.797777   193A      2.809928   194A      2.841631
     195A      2.847239   196A      2.855161   197A      2.894629
     198A      2.946254   199A      2.954148   200A      2.972065
     201A      2.995378   202A      3.073805   203A      3.108651
     204A      3.244057   205A      3.271888   206A      3.339660
     207A      3.561581   208A      3.653474   209A      3.956052
     210A      4.179558

    Final Occupation by Irrep:
              A
    DOCC [    38 ]

  @RHF Final Energy:  -423.85490479130601

   => Energetics <=

    Nuclear Repulsion Energy =            492.5150586322274648
    One-Electron Energy =               -1550.8576654717442125
    Two-Electron Energy =                 634.4877020482107355
    Total Energy =                       -423.8549047913060122

Computation Completed

Properties will be evaluated at   0.000000,   0.000000,   0.000000 [a0]

Properties computed using the SCF density matrix

  Nuclear Dipole Moment: [e a0]
     X:    -1.5108      Y:    11.3209      Z:     9.0020

  Electronic Dipole Moment: [e a0]
     X:     1.2077      Y:   -11.2588      Z:    -9.5043

  Dipole Moment: [e a0]
     X:    -0.3031      Y:     0.0621      Z:    -0.5023     Total:     0.5899

  Dipole Moment: [D]
     X:    -0.7703      Y:     0.1579      Z:    -1.2766     Total:     1.4994

*** tstop() called on ds3 at Tue Apr 28 11:53:54 2020
Module time:
	user time   =      89.43 seconds =       1.49 minutes
	system time =      42.43 seconds =       0.71 minutes
	total time  =        126 seconds =       2.10 minutes
Total time:
	user time   =      89.43 seconds =       1.49 minutes
	system time =      42.43 seconds =       0.71 minutes
	total time  =        126 seconds =       2.10 minutes
                                     G D M A

                                 by Anthony Stone

                           version 2.2.06, 22 June 2011

               Distributed Multipoles from Gaussian wavefunctions

Starting at 11:53:54 on 28 Apr 2020

Using SCF density matrix from file ./SSI/SSI-162VAL-167TYR-2-dimer.test.12186.fchk

                         Distributed Multipole Analysis

Standard DMA

Positions and radii in angstrom
Multipole moments in atomic units, ea_0^k for rank k

C          x =  0.181108  y =  1.631798  z =  3.233927 angstrom
           Maximum rank =  0   Radius =  0.650 angstrom
                   Q00  =  -0.238484

C          x = -1.345892  y =  1.468798  z =  3.412927 angstrom
           Maximum rank =  0   Radius =  0.650 angstrom
                   Q00  =  -0.239877

H          x =  0.579108  y =  2.361798  z =  3.938927 angstrom
           Maximum rank =  0   Radius =  0.325 angstrom
                   Q00  =   0.077395

H          x =  0.673108  y =  0.677798  z =  3.427927 angstrom
           Maximum rank =  0   Radius =  0.325 angstrom
                   Q00  =   0.078930

H          x =  0.402108  y =  1.945798  z =  2.214927 angstrom
           Maximum rank =  0   Radius =  0.325 angstrom
                   Q00  =   0.080987

H          x = -1.527892  y =  1.316798  z =  4.476927 angstrom
           Maximum rank =  0   Radius =  0.325 angstrom
                   Q00  =   0.074859

H          x = -1.857621  y =  2.384750  z =  3.082525 angstrom
           Maximum rank =  0   Radius =  0.325 angstrom
                   Q00  =   0.078333

H          x = -1.734312  y =  0.590349  z =  2.876777 angstrom
           Maximum rank =  0   Radius =  0.325 angstrom
                   Q00  =   0.088745

C          x =  0.599108  y =  2.299798  z = -1.923073 angstrom
           Maximum rank =  0   Radius =  0.650 angstrom
                   Q00  =  -0.192075

C          x =  1.015108  y =  0.469798  z = -0.235073 angstrom
           Maximum rank =  0   Radius =  0.650 angstrom
                   Q00  =  -0.054776

C          x =  0.376108  y =  0.901798  z = -1.405073 angstrom
           Maximum rank =  0   Radius =  0.650 angstrom
                   Q00  =  -0.143360

C          x =  0.816108  y = -0.828202  z =  0.222927 angstrom
           Maximum rank =  0   Radius =  0.650 angstrom
                   Q00  =  -0.084318

C          x = -0.456892  y =  0.011798  z = -2.087073 angstrom
           Maximum rank =  0   Radius =  0.650 angstrom
                   Q00  =   0.052789

C          x = -0.026892  y = -1.715202  z = -0.459073 angstrom
           Maximum rank =  0   Radius =  0.650 angstrom
                   Q00  =   0.312888

C          x = -0.666892  y = -1.298202  z = -1.632073 angstrom
           Maximum rank =  0   Radius =  0.650 angstrom
                   Q00  =  -0.203605

O          x = -0.266892  y = -2.969202  z =  0.048927 angstrom
           Maximum rank =  0   Radius =  0.650 angstrom
                   Q00  =  -0.679998

H          x =  1.664108  y =  1.139798  z =  0.308927 angstrom
           Maximum rank =  0   Radius =  0.325 angstrom
                   Q00  =   0.069710

H          x =  1.300108  y = -1.158202  z =  1.130927 angstrom
           Maximum rank =  0   Radius =  0.325 angstrom
                   Q00  =   0.080580

H          x =  0.675108  y =  2.259798  z = -3.011073 angstrom
           Maximum rank =  0   Radius =  0.325 angstrom
                   Q00  =   0.096275

H          x =  1.554108  y =  2.667798  z = -1.546073 angstrom
           Maximum rank =  0   Radius =  0.325 angstrom
                   Q00  =   0.095357

H          x = -0.942892  y =  0.328798  z = -2.996073 angstrom
           Maximum rank =  0   Radius =  0.325 angstrom
                   Q00  =   0.067230

H          x = -1.323892  y = -1.968202  z = -2.168073 angstrom
           Maximum rank =  0   Radius =  0.325 angstrom
                   Q00  =   0.074719

H          x = -0.882892  y = -3.467202  z = -0.500073 angstrom
           Maximum rank =  0   Radius =  0.325 angstrom
                   Q00  =   0.407262

H          x = -0.188443  y =  3.011389  z = -1.634280 angstrom
           Maximum rank =  0   Radius =  0.325 angstrom
                   Q00  =   0.100434

Total multipoles referred to origin at
           x =   0.000000,  y =    0.000000,  z =    0.000000 angstrom
                   Q00  =  -0.000000

Finished at 11:53:54 on 28 Apr 2020

  DMA results are available in the Python driver through the
	  variable('DMA DISTRIBUTED MULTIPOLES')
  and
	  variable('DMA TOTAL MULTIPOLES')
  commands.

    Psi4 stopped on: Tuesday, 28 April 2020 11:53AM
    Psi4 wall time for execution: 0:02:06.67

*** Psi4 exiting successfully. Buy a developer a beer!
