                               Psi4 1.3.2 release

  ==> Input File <==

--------------------------------------------------------------------------
import numpy as np
set {scf_type pk
basis cc-pvdz
d_convergence 10
gdma_switch   0
gdma_limit    0
gdma_origin   [ 0.0,  0.0,  0.0 ]
}
molecule test {
    units Angstrom
    0 1
    --
    0 1
    C                2.600105982444700    -0.882073868996566    -0.939980915420118
    C                0.719105982444700    -0.548073868996566     0.775019084579882
    C                1.637105982444700    -1.402073868996566     0.088019084579882
    C               -0.044894017555300    -1.301073868996566     1.687019084579882
    C                1.416105982444700    -2.646073868996566     0.583019084579882
    C                0.492105982444700     0.839926131003434     0.692019084579882
    C               -0.440894017555300     1.533926131003434     1.435019084579882
    C               -1.185894017555300     0.779926131003434     2.323019084579882
    C               -0.964894017555300    -0.567073868996566     2.386019084579882
    N                0.402105982444700    -2.576073868996567     1.543019084579882
    H                1.094105982444700     1.402926131003434    -0.008980915420118
    H               -0.579894017555300     2.603926131003434     1.334019084579882
    H               -1.941894017555300     1.247926131003434     2.944019084579882
    H                3.127105982444700    -0.048073868996566    -0.473980915420118
    H                2.042105982444700    -0.478073868996566    -1.784980915420118
    H                1.937105982444700    -3.553073868996567     0.292019084579882
    H                0.054105982444700    -3.381073868996566     2.053019084579882
    H               -1.575894017555300    -1.122073868996566     3.085019084579882
    H                3.350615982444701    -1.611613868996566    -1.278360915420118
    C               -1.424894017555300     1.836926131003434    -2.517980915420118
    C               -1.085894017555300     3.252926131003434    -2.922980915420118
    C               -1.849894017555300     1.115926131003434    -3.786980915420118
    H               -2.201894017555299     1.815926131003434    -1.751980915420118
    H               -0.523894017555300     1.358926131003434    -2.130980915420118
    H               -1.993894017555300     3.857926131003434    -2.908980915420118
    H               -0.333894017555300     3.688926131003434    -2.264980915420118
    H               -1.533894017555300     0.072926131003434    -3.726980915420119
    H               -0.721099017555300     3.171456131003433    -3.957530915420118
    H               -1.267256017555300     1.655206131003434    -4.548360915420118
    H               -2.938268017555299     1.140986131003433    -3.944510915420119

}
e, wfn = energy('scf', return_wfn=True)
gdma(wfn)
dmavals = variable('DMA DISTRIBUTED MULTIPOLES')
charges = np.array(dmavals)
print(charges)
np.save('SSI-099TRP-118PRO-1-dimer.npy', np.array(charges))--------------------------------------------------------------------------

*** tstart() called on ds3
*** at Tue Apr 28 11:26:32 2020

   => Loading Basis Set <=

    Name: CC-PVDZ
    Role: ORBITAL
    Keyword: BASIS
    atoms 1-9, 20-22   entry C          line   138 file /theoryfs2/ds/metcalf/miniconda2/envs/tf2gpu/share/psi4/basis/cc-pvdz.gbs
    atoms 10           entry N          line   168 file /theoryfs2/ds/metcalf/miniconda2/envs/tf2gpu/share/psi4/basis/cc-pvdz.gbs
    atoms 11-19, 23-30 entry H          line    22 file /theoryfs2/ds/metcalf/miniconda2/envs/tf2gpu/share/psi4/basis/cc-pvdz.gbs

         ---------------------------------------------------------
                                   SCF
               by Justin Turney, Rob Parrish, Andy Simmonett
                          and Daniel G. A. Smith
                              RHF Reference
                        1 Threads,    500 MiB Core
         ---------------------------------------------------------

  ==> Geometry <==

    Molecular point group: c1
    Full point group: C1

    Geometry (in Angstrom), charge = 0, multiplicity = 1:

       Center              X                  Y                   Z               Mass
    ------------   -----------------  -----------------  -----------------  -----------------
         C            2.600105982445    -0.882073868997    -0.939980915420    12.000000000000
         C            0.719105982445    -0.548073868997     0.775019084580    12.000000000000
         C            1.637105982445    -1.402073868997     0.088019084580    12.000000000000
         C           -0.044894017555    -1.301073868997     1.687019084580    12.000000000000
         C            1.416105982445    -2.646073868997     0.583019084580    12.000000000000
         C            0.492105982445     0.839926131003     0.692019084580    12.000000000000
         C           -0.440894017555     1.533926131003     1.435019084580    12.000000000000
         C           -1.185894017555     0.779926131003     2.323019084580    12.000000000000
         C           -0.964894017555    -0.567073868997     2.386019084580    12.000000000000
         N            0.402105982445    -2.576073868997     1.543019084580    14.003074004430
         H            1.094105982445     1.402926131003    -0.008980915420     1.007825032230
         H           -0.579894017555     2.603926131003     1.334019084580     1.007825032230
         H           -1.941894017555     1.247926131003     2.944019084580     1.007825032230
         H            3.127105982445    -0.048073868997    -0.473980915420     1.007825032230
         H            2.042105982445    -0.478073868997    -1.784980915420     1.007825032230
         H            1.937105982445    -3.553073868997     0.292019084580     1.007825032230
         H            0.054105982445    -3.381073868997     2.053019084580     1.007825032230
         H           -1.575894017555    -1.122073868997     3.085019084580     1.007825032230
         H            3.350615982445    -1.611613868997    -1.278360915420     1.007825032230
         C           -1.424894017555     1.836926131003    -2.517980915420    12.000000000000
         C           -1.085894017555     3.252926131003    -2.922980915420    12.000000000000
         C           -1.849894017555     1.115926131003    -3.786980915420    12.000000000000
         H           -2.201894017555     1.815926131003    -1.751980915420     1.007825032230
         H           -0.523894017555     1.358926131003    -2.130980915420     1.007825032230
         H           -1.993894017555     3.857926131003    -2.908980915420     1.007825032230
         H           -0.333894017555     3.688926131003    -2.264980915420     1.007825032230
         H           -1.533894017555     0.072926131003    -3.726980915420     1.007825032230
         H           -0.721099017555     3.171456131003    -3.957530915420     1.007825032230
         H           -1.267256017555     1.655206131003    -4.548360915420     1.007825032230
         H           -2.938268017555     1.140986131003    -3.944510915420     1.007825032230

  Running in c1 symmetry.

  Rotational constants: A =      0.03208  B =      0.01410  C =      0.01156 [cm^-1]
  Rotational constants: A =    961.86209  B =    422.57324  C =    346.43999 [MHz]
  Nuclear repulsion =  741.979887938383513

  Charge       = 0
  Multiplicity = 1
  Electrons    = 96
  Nalpha       = 48
  Nbeta        = 48

  ==> Algorithm <==

  SCF Algorithm Type is PK.
  DIIS enabled.
  MOM disabled.
  Fractional occupation disabled.
  Guess Type is SAD.
  Energy threshold   = 1.00e-06
  Density threshold  = 1.00e-10
  Integral threshold = 0.00e+00

  ==> Primary Basis <==

  Basis Set: CC-PVDZ
    Blend: CC-PVDZ
    Number of shells: 129
    Number of basis function: 267
    Number of Cartesian functions: 280
    Spherical Harmonics?: true
    Max angular momentum: 2

  ==> Pre-Iterations <==

   -------------------------------------------------------
    Irrep   Nso     Nmo     Nalpha   Nbeta   Ndocc  Nsocc
   -------------------------------------------------------
     A        267     267       0       0       0       0
   -------------------------------------------------------
    Total     267     267      48      48      48       0
   -------------------------------------------------------

  ==> Integral Setup <==

  Using integral reordering PK algorithm.
  Sizing the integral batches needed.
  Building batch lookup table.
   Calculation information:
      Number of atoms:                  30
      Number of AO shells:             129
      Number of primitives:            371
      Number of atomic orbitals:       280
      Number of basis functions:       267

      Integral cutoff                 1.00e-12
      Number of threads:                 1

	Batch   1 pq = [       0,    9405] index = [             0,44231715] size =     44231715
	Batch   2 pq = [    9405,   13301] index = [      44231715,88464951] size =     44233236
	Batch   3 pq = [   13301,   16290] index = [      88464951,132690195] size =     44225244
	Batch   4 pq = [   16290,   18810] index = [     132690195,176917455] size =     44227260
	Batch   5 pq = [   18810,   21030] index = [     176917455,221140965] size =     44223510
	Batch   6 pq = [   21030,   23037] index = [     221140965,265363203] size =     44222238
	Batch   7 pq = [   23037,   24883] index = [     265363203,309594286] size =     44231083
	Batch   8 pq = [   24883,   26601] index = [     309594286,353819901] size =     44225615
	Batch   9 pq = [   26601,   28214] index = [     353819901,398029005] size =     44209104
	Batch  10 pq = [   28214,   29740] index = [     398029005,442248670] size =     44219665
	Batch  11 pq = [   29740,   31191] index = [     442248670,486454836] size =     44206166
	Batch  12 pq = [   31191,   32578] index = [     486454836,530679331] size =     44224495
	Batch  13 pq = [   32578,   33908] index = [     530679331,574893186] size =     44213855
	Batch  14 pq = [   33908,   35188] index = [     574893186,619115266] size =     44222080
	Batch  15 pq = [   35188,   35778] index = [     619115266,640050531] size =     20935265
  Task number: 58
  Buffer size: 11059200
  Buffer per thread: 2
  We computed 32561470 shell quartets total.
  Whereas there are 35158305 unique shell quartets.

  ==> DiskJK: Disk-Based J/K Matrices <==

    J tasked:                  Yes
    K tasked:                  Yes
    wK tasked:                  No
    Memory [MiB]:              375
    Schwarz Cutoff:          1E-12

    OpenMP threads:              1

  Minimum eigenvalue in the overlap matrix is 2.3889812987E-04.
  Using Symmetric Orthogonalization.

  SCF Guess: Superposition of Atomic Densities via on-the-fly atomic UHF.

  ==> Iterations <==

                        Total Energy        Delta E     RMS |[F,P]|

   @RHF iter SAD:  -518.30143604015689   -5.18301e+02   0.00000e+00
   @RHF iter   1:  -518.44917652815695   -1.47740e-01   2.56002e-03 DIIS
   @RHF iter   2:  -518.71364869803438   -2.64472e-01   1.18540e-03 DIIS
   @RHF iter   3:  -518.76602265692406   -5.23740e-02   2.91526e-04 DIIS
   @RHF iter   4:  -518.77034767394571   -4.32502e-03   1.31712e-04 DIIS
   @RHF iter   5:  -518.77103722202571   -6.89548e-04   1.94676e-05 DIIS
   @RHF iter   6:  -518.77107042455987   -3.32025e-05   8.78611e-06 DIIS
   @RHF iter   7:  -518.77107723436598   -6.80981e-06   3.62479e-06 DIIS
   @RHF iter   8:  -518.77107906662502   -1.83226e-06   1.53315e-06 DIIS
   @RHF iter   9:  -518.77107946097647   -3.94351e-07   6.58153e-07 DIIS
   @RHF iter  10:  -518.77107954014105   -7.91646e-08   2.79921e-07 DIIS
   @RHF iter  11:  -518.77107955726592   -1.71249e-08   1.00323e-07 DIIS
   @RHF iter  12:  -518.77107955931126   -2.04534e-09   3.69755e-08 DIIS
   @RHF iter  13:  -518.77107955947292   -1.61663e-10   1.03129e-08 DIIS
   @RHF iter  14:  -518.77107955949521   -2.22826e-11   4.01637e-09 DIIS
   @RHF iter  15:  -518.77107955949180    3.41061e-12   1.96254e-09 DIIS
   @RHF iter  16:  -518.77107955950123   -9.43601e-12   9.55062e-10 DIIS
   @RHF iter  17:  -518.77107955950419   -2.95586e-12   3.53429e-10 DIIS
   @RHF iter  18:  -518.77107955950225    1.93268e-12   1.44991e-10 DIIS
   @RHF iter  19:  -518.77107955949703    5.22959e-12   4.83397e-11 DIIS
  Energy and wave function converged.

  ==> Post-Iterations <==

    Orbital Energies [Eh]
    ---------------------

    Doubly Occupied:

       1A    -15.604925     2A    -11.269145     3A    -11.261802
       4A    -11.229903     5A    -11.225958     6A    -11.224827
       7A    -11.222949     8A    -11.221663     9A    -11.218382
      10A    -11.214716    11A    -11.207915    12A    -11.207478
      13A    -11.205749    14A     -1.295384    15A     -1.135757
      16A     -1.075268    17A     -1.058613    18A     -1.002860
      19A     -0.985714    20A     -0.937524    21A     -0.910989
      22A     -0.841753    23A     -0.808039    24A     -0.788617
      25A     -0.751750    26A     -0.718832    27A     -0.663957
      28A     -0.654857    29A     -0.629584    30A     -0.606789
      31A     -0.594553    32A     -0.594185    33A     -0.579391
      34A     -0.574000    35A     -0.553937    36A     -0.538775
      37A     -0.535158    38A     -0.531721    39A     -0.510378
      40A     -0.501199    41A     -0.473328    42A     -0.466121
      43A     -0.459637    44A     -0.454875    45A     -0.451895
      46A     -0.370646    47A     -0.300432    48A     -0.278154

    Virtual:

      49A      0.127873    50A      0.164678    51A      0.170316
      52A      0.182883    53A      0.196356    54A      0.202858
      55A      0.217960    56A      0.218708    57A      0.234993
      58A      0.237068    59A      0.246090    60A      0.258698
      61A      0.265332    62A      0.268140    63A      0.275254
      64A      0.286660    65A      0.303348    66A      0.314669
      67A      0.339043    68A      0.360060    69A      0.371876
      70A      0.381637    71A      0.391246    72A      0.409951
      73A      0.426835    74A      0.428976    75A      0.447349
      76A      0.476768    77A      0.485359    78A      0.503281
      79A      0.517427    80A      0.562307    81A      0.592646
      82A      0.601618    83A      0.604737    84A      0.619563
      85A      0.627342    86A      0.628573    87A      0.651514
      88A      0.661874    89A      0.669222    90A      0.695222
      91A      0.709313    92A      0.719292    93A      0.732196
      94A      0.743849    95A      0.753500    96A      0.755737
      97A      0.763070    98A      0.774493    99A      0.779879
     100A      0.780636   101A      0.794622   102A      0.805198
     103A      0.808211   104A      0.823524   105A      0.831549
     106A      0.856702   107A      0.865606   108A      0.873821
     109A      0.877085   110A      0.883120   111A      0.885634
     112A      0.888629   113A      0.899810   114A      0.907972
     115A      0.912608   116A      0.914783   117A      0.919680
     118A      0.929800   119A      0.935070   120A      0.944825
     121A      0.952286   122A      0.959431   123A      0.967401
     124A      0.982644   125A      0.986705   126A      0.993798
     127A      1.009120   128A      1.033420   129A      1.070420
     130A      1.077505   131A      1.088108   132A      1.103640
     133A      1.114345   134A      1.126657   135A      1.131205
     136A      1.148766   137A      1.174808   138A      1.186643
     139A      1.193524   140A      1.210919   141A      1.215348
     142A      1.244890   143A      1.257336   144A      1.263850
     145A      1.280697   146A      1.296248   147A      1.298579
     148A      1.327405   149A      1.332821   150A      1.376146
     151A      1.380060   152A      1.412292   153A      1.425366
     154A      1.468060   155A      1.472295   156A      1.495174
     157A      1.525940   158A      1.567029   159A      1.579767
     160A      1.586422   161A      1.612595   162A      1.622173
     163A      1.633380   164A      1.636210   165A      1.645676
     166A      1.668957   167A      1.684037   168A      1.691989
     169A      1.728812   170A      1.737063   171A      1.742246
     172A      1.748012   173A      1.767482   174A      1.777104
     175A      1.805369   176A      1.819284   177A      1.825919
     178A      1.839990   179A      1.866054   180A      1.875062
     181A      1.881418   182A      1.890790   183A      1.898326
     184A      1.917247   185A      1.926177   186A      1.937804
     187A      1.939300   188A      1.941834   189A      1.948134
     190A      1.955652   191A      1.958034   192A      1.974520
     193A      1.982663   194A      1.991309   195A      2.000593
     196A      2.015185   197A      2.026790   198A      2.031188
     199A      2.034800   200A      2.040896   201A      2.055759
     202A      2.070073   203A      2.090684   204A      2.090945
     205A      2.098931   206A      2.120703   207A      2.126650
     208A      2.148955   209A      2.155111   210A      2.161363
     211A      2.168445   212A      2.196120   213A      2.206821
     214A      2.214362   215A      2.223066   216A      2.230637
     217A      2.248922   218A      2.269896   219A      2.291419
     220A      2.316442   221A      2.320181   222A      2.324465
     223A      2.361498   224A      2.365800   225A      2.392833
     226A      2.435518   227A      2.440660   228A      2.455194
     229A      2.456663   230A      2.469721   231A      2.506558
     232A      2.538076   233A      2.559735   234A      2.579846
     235A      2.630094   236A      2.636778   237A      2.644832
     238A      2.658458   239A      2.701182   240A      2.702385
     241A      2.706336   242A      2.759909   243A      2.764969
     244A      2.774981   245A      2.784765   246A      2.795440
     247A      2.807494   248A      2.817393   249A      2.830865
     250A      2.846052   251A      2.855151   252A      2.865263
     253A      2.871310   254A      2.921010   255A      2.923669
     256A      2.957977   257A      2.980870   258A      3.022261
     259A      3.042314   260A      3.081329   261A      3.114888
     262A      3.147763   263A      3.263633   264A      3.304104
     265A      3.384086   266A      3.685758   267A      3.975690

    Final Occupation by Irrep:
              A
    DOCC [    48 ]

  @RHF Final Energy:  -518.77107955949703

   => Energetics <=

    Nuclear Repulsion Energy =            741.9798879383835128
    One-Electron Energy =               -2173.6017692978243758
    Two-Electron Energy =                 912.8508017999439517
    Total Energy =                       -518.7710795594970250

Computation Completed

Properties will be evaluated at   0.000000,   0.000000,   0.000000 [a0]

Properties computed using the SCF density matrix

  Nuclear Dipole Moment: [e a0]
     X:    -3.7573      Y:    11.0913      Z:   -17.8844

  Electronic Dipole Moment: [e a0]
     X:     3.8633      Y:   -11.9049      Z:    18.0796

  Dipole Moment: [e a0]
     X:     0.1060      Y:    -0.8136      Z:     0.1952     Total:     0.8434

  Dipole Moment: [D]
     X:     0.2695      Y:    -2.0681      Z:     0.4963     Total:     2.1438

*** tstop() called on ds3 at Tue Apr 28 11:32:46 2020
Module time:
	user time   =     251.63 seconds =       4.19 minutes
	system time =     101.91 seconds =       1.70 minutes
	total time  =        374 seconds =       6.23 minutes
Total time:
	user time   =     251.63 seconds =       4.19 minutes
	system time =     101.91 seconds =       1.70 minutes
	total time  =        374 seconds =       6.23 minutes
                                     G D M A

                                 by Anthony Stone

                           version 2.2.06, 22 June 2011

               Distributed Multipoles from Gaussian wavefunctions

Starting at 11:32:46 on 28 Apr 2020

Using SCF density matrix from file ./SSI/SSI-099TRP-118PRO-1-dimer.test.17000.fchk

                         Distributed Multipole Analysis

Standard DMA

Positions and radii in angstrom
Multipole moments in atomic units, ea_0^k for rank k

C          x =  2.600106  y = -0.882074  z = -0.939981 angstrom
           Maximum rank =  0   Radius =  0.650 angstrom
                   Q00  =  -0.216751

C          x =  0.719106  y = -0.548074  z =  0.775019 angstrom
           Maximum rank =  0   Radius =  0.650 angstrom
                   Q00  =  -0.079923

C          x =  1.637106  y = -1.402074  z =  0.088019 angstrom
           Maximum rank =  0   Radius =  0.650 angstrom
                   Q00  =  -0.090851

C          x = -0.044894  y = -1.301074  z =  1.687019 angstrom
           Maximum rank =  0   Radius =  0.650 angstrom
                   Q00  =   0.250207

C          x =  1.416106  y = -2.646074  z =  0.583019 angstrom
           Maximum rank =  0   Radius =  0.650 angstrom
                   Q00  =   0.064274

C          x =  0.492106  y =  0.839926  z =  0.692019 angstrom
           Maximum rank =  0   Radius =  0.650 angstrom
                   Q00  =  -0.090231

C          x = -0.440894  y =  1.533926  z =  1.435019 angstrom
           Maximum rank =  0   Radius =  0.650 angstrom
                   Q00  =  -0.094284

C          x = -1.185894  y =  0.779926  z =  2.323019 angstrom
           Maximum rank =  0   Radius =  0.650 angstrom
                   Q00  =  -0.071932

C          x = -0.964894  y = -0.567074  z =  2.386019 angstrom
           Maximum rank =  0   Radius =  0.650 angstrom
                   Q00  =  -0.023101

N          x =  0.402106  y = -2.576074  z =  1.543019 angstrom
           Maximum rank =  0   Radius =  0.650 angstrom
                   Q00  =  -0.524758

H          x =  1.094106  y =  1.402926  z = -0.008981 angstrom
           Maximum rank =  0   Radius =  0.325 angstrom
                   Q00  =   0.057218

H          x = -0.579894  y =  2.603926  z =  1.334019 angstrom
           Maximum rank =  0   Radius =  0.325 angstrom
                   Q00  =   0.064649

H          x = -1.941894  y =  1.247926  z =  2.944019 angstrom
           Maximum rank =  0   Radius =  0.325 angstrom
                   Q00  =   0.065871

H          x =  3.127106  y = -0.048074  z = -0.473981 angstrom
           Maximum rank =  0   Radius =  0.325 angstrom
                   Q00  =   0.102615

H          x =  2.042106  y = -0.478074  z = -1.784981 angstrom
           Maximum rank =  0   Radius =  0.325 angstrom
                   Q00  =   0.103913

H          x =  1.937106  y = -3.553074  z =  0.292019 angstrom
           Maximum rank =  0   Radius =  0.325 angstrom
                   Q00  =   0.110512

H          x =  0.054106  y = -3.381074  z =  2.053019 angstrom
           Maximum rank =  0   Radius =  0.325 angstrom
                   Q00  =   0.210276

H          x = -1.575894  y = -1.122074  z =  3.085019 angstrom
           Maximum rank =  0   Radius =  0.325 angstrom
                   Q00  =   0.053874

H          x =  3.350616  y = -1.611614  z = -1.278361 angstrom
           Maximum rank =  0   Radius =  0.325 angstrom
                   Q00  =   0.107788

C          x = -1.424894  y =  1.836926  z = -2.517981 angstrom
           Maximum rank =  0   Radius =  0.650 angstrom
                   Q00  =  -0.084267

C          x = -1.085894  y =  3.252926  z = -2.922981 angstrom
           Maximum rank =  0   Radius =  0.650 angstrom
                   Q00  =  -0.221236

C          x = -1.849894  y =  1.115926  z = -3.786981 angstrom
           Maximum rank =  0   Radius =  0.650 angstrom
                   Q00  =  -0.206540

H          x = -2.201894  y =  1.815926  z = -1.751981 angstrom
           Maximum rank =  0   Radius =  0.325 angstrom
                   Q00  =   0.056710

H          x = -0.523894  y =  1.358926  z = -2.130981 angstrom
           Maximum rank =  0   Radius =  0.325 angstrom
                   Q00  =   0.052615

H          x = -1.993894  y =  3.857926  z = -2.908981 angstrom
           Maximum rank =  0   Radius =  0.325 angstrom
                   Q00  =   0.075085

H          x = -0.333894  y =  3.688926  z = -2.264981 angstrom
           Maximum rank =  0   Radius =  0.325 angstrom
                   Q00  =   0.078152

H          x = -1.533894  y =  0.072926  z = -3.726981 angstrom
           Maximum rank =  0   Radius =  0.325 angstrom
                   Q00  =   0.085491

H          x = -0.721099  y =  3.171456  z = -3.957531 angstrom
           Maximum rank =  0   Radius =  0.325 angstrom
                   Q00  =   0.050614

H          x = -1.267256  y =  1.655206  z = -4.548361 angstrom
           Maximum rank =  0   Radius =  0.325 angstrom
                   Q00  =   0.045634

H          x = -2.938268  y =  1.140986  z = -3.944511 angstrom
           Maximum rank =  0   Radius =  0.325 angstrom
                   Q00  =   0.068375

Total multipoles referred to origin at
           x =   0.000000,  y =    0.000000,  z =    0.000000 angstrom
                   Q00  =  -0.000000

Finished at 11:32:46 on 28 Apr 2020

  DMA results are available in the Python driver through the
	  variable('DMA DISTRIBUTED MULTIPOLES')
  and
	  variable('DMA TOTAL MULTIPOLES')
  commands.

    Psi4 stopped on: Tuesday, 28 April 2020 11:32AM
    Psi4 wall time for execution: 0:06:13.98

*** Psi4 exiting successfully. Buy a developer a beer!
