                               Psi4 1.3.2 release

  ==> Input File <==

--------------------------------------------------------------------------
import numpy as np
set {scf_type pk
basis cc-pvdz
d_convergence 10
gdma_switch   0
gdma_limit    0
gdma_origin   [ 0.0,  0.0,  0.0 ]
}
molecule test {
    units Angstrom
    -1 1
    --
    -1 1
    C                1.891615613942464     1.987652010599016     0.100705465708867
    C                3.397615613942464     1.832652010599016     0.397705465708867
    H                1.306615613942464     1.569652010599015     0.918705465708867
    H                1.646615613942464     3.045652010599015     0.010705465708867
    H                1.632615613942464     1.479652010599016    -0.827294534291133
    H                3.662615613942464     2.357652010599016     1.314705465708866
    H                3.636915613942464     0.761842010599015     0.475815465708867
    H                3.954525613942464     2.249807010599015    -0.454254534291133
    C               -0.680384386057536    -0.536347989400985    -1.051294534291133
    C               -1.647384386057536    -1.381347989400985    -1.868294534291133
    C               -0.952384386057536    -0.644347989400985     0.410705465708867
    O               -2.043384386057536    -0.214347989400985     0.818705465708867
    O               -0.078384386057536    -1.134347989400985     1.154705465708866
    H                0.346615613942464    -0.844347989400985    -1.260294534291133
    H               -0.784384386057536     0.504652010599015    -1.340294534291133
    H               -2.654384386057536    -0.982347989400985    -1.744294534291134
    H               -1.628744386057536    -2.433212689400985    -1.546994534291133
    H               -1.366744386057536    -1.286103389400985    -2.927614534291134

}
e, wfn = energy('scf', return_wfn=True)
gdma(wfn)
dmavals = variable('DMA DISTRIBUTED MULTIPOLES')
charges = np.array(dmavals)
print(charges)
np.save('SSI-168LEU-172ASP-1-dimer.npy', np.array(charges))--------------------------------------------------------------------------

*** tstart() called on ds3
*** at Sun Apr 26 21:47:46 2020

   => Loading Basis Set <=

    Name: CC-PVDZ
    Role: ORBITAL
    Keyword: BASIS
    atoms 1-2, 9-11  entry C          line   138 file /theoryfs2/ds/metcalf/miniconda2/envs/tf2gpu/share/psi4/basis/cc-pvdz.gbs
    atoms 3-8, 14-18 entry H          line    22 file /theoryfs2/ds/metcalf/miniconda2/envs/tf2gpu/share/psi4/basis/cc-pvdz.gbs
    atoms 12-13      entry O          line   198 file /theoryfs2/ds/metcalf/miniconda2/envs/tf2gpu/share/psi4/basis/cc-pvdz.gbs

         ---------------------------------------------------------
                                   SCF
               by Justin Turney, Rob Parrish, Andy Simmonett
                          and Daniel G. A. Smith
                              RHF Reference
                        1 Threads,    500 MiB Core
         ---------------------------------------------------------

  ==> Geometry <==

    Molecular point group: c1
    Full point group: C1

    Geometry (in Angstrom), charge = -1, multiplicity = 1:

       Center              X                  Y                   Z               Mass
    ------------   -----------------  -----------------  -----------------  -----------------
         C            1.891615613942     1.987652010599     0.100705465709    12.000000000000
         C            3.397615613942     1.832652010599     0.397705465709    12.000000000000
         H            1.306615613942     1.569652010599     0.918705465709     1.007825032230
         H            1.646615613942     3.045652010599     0.010705465709     1.007825032230
         H            1.632615613942     1.479652010599    -0.827294534291     1.007825032230
         H            3.662615613942     2.357652010599     1.314705465709     1.007825032230
         H            3.636915613942     0.761842010599     0.475815465709     1.007825032230
         H            3.954525613942     2.249807010599    -0.454254534291     1.007825032230
         C           -0.680384386058    -0.536347989401    -1.051294534291    12.000000000000
         C           -1.647384386058    -1.381347989401    -1.868294534291    12.000000000000
         C           -0.952384386058    -0.644347989401     0.410705465709    12.000000000000
         O           -2.043384386058    -0.214347989401     0.818705465709    15.994914619570
         O           -0.078384386058    -1.134347989401     1.154705465709    15.994914619570
         H            0.346615613942    -0.844347989401    -1.260294534291     1.007825032230
         H           -0.784384386058     0.504652010599    -1.340294534291     1.007825032230
         H           -2.654384386058    -0.982347989401    -1.744294534291     1.007825032230
         H           -1.628744386058    -2.433212689401    -1.546994534291     1.007825032230
         H           -1.366744386058    -1.286103389401    -2.927614534291     1.007825032230

  Running in c1 symmetry.

  Rotational constants: A =      0.11527  B =      0.03102  C =      0.02787 [cm^-1]
  Rotational constants: A =   3455.82823  B =    929.88662  C =    835.62574 [MHz]
  Nuclear repulsion =  291.604400716011753

  Charge       = -1
  Multiplicity = 1
  Electrons    = 58
  Nalpha       = 29
  Nbeta        = 29

  ==> Algorithm <==

  SCF Algorithm Type is PK.
  DIIS enabled.
  MOM disabled.
  Fractional occupation disabled.
  Guess Type is SAD.
  Energy threshold   = 1.00e-06
  Density threshold  = 1.00e-10
  Integral threshold = 0.00e+00

  ==> Primary Basis <==

  Basis Set: CC-PVDZ
    Blend: CC-PVDZ
    Number of shells: 75
    Number of basis function: 153
    Number of Cartesian functions: 160
    Spherical Harmonics?: true
    Max angular momentum: 2

  ==> Pre-Iterations <==

   -------------------------------------------------------
    Irrep   Nso     Nmo     Nalpha   Nbeta   Ndocc  Nsocc
   -------------------------------------------------------
     A        153     153       0       0       0       0
   -------------------------------------------------------
    Total     153     153      29      29      29       0
   -------------------------------------------------------

  ==> Integral Setup <==

  Using integral reordering PK algorithm.
  Sizing the integral batches needed.
  Building batch lookup table.
   Calculation information:
      Number of atoms:                  18
      Number of AO shells:              75
      Number of primitives:            209
      Number of atomic orbitals:       160
      Number of basis functions:       153

      Integral cutoff                 1.00e-12
      Number of threads:                 1

	Batch   1 pq = [       0,    9405] index = [             0,44231715] size =     44231715
	Batch   2 pq = [    9405,   11781] index = [      44231715,69401871] size =     25170156
  Task number: 7
  Buffer size: 11059200
  Buffer per thread: 2
  We computed 3382153 shell quartets total.
  Whereas there are 4062675 unique shell quartets.

  ==> DiskJK: Disk-Based J/K Matrices <==

    J tasked:                  Yes
    K tasked:                  Yes
    wK tasked:                  No
    Memory [MiB]:              375
    Schwarz Cutoff:          1E-12

    OpenMP threads:              1

  Minimum eigenvalue in the overlap matrix is 4.0933929805E-03.
  Using Symmetric Orthogonalization.

  SCF Guess: Superposition of Atomic Densities via on-the-fly atomic UHF.

  ==> Iterations <==

                        Total Energy        Delta E     RMS |[F,P]|

   @RHF iter SAD:  -343.92396981384940   -3.43924e+02   0.00000e+00
   @RHF iter   1:  -345.22453184585305   -1.30056e+00   4.87788e-03 DIIS
   @RHF iter   2:  -345.44734974109201   -2.22818e-01   2.63752e-03 DIIS
   @RHF iter   3:  -345.50859521738761   -6.12455e-02   4.12231e-04 DIIS
   @RHF iter   4:  -345.51144886719828   -2.85365e-03   1.64745e-04 DIIS
   @RHF iter   5:  -345.51185997502256   -4.11108e-04   2.37779e-05 DIIS
   @RHF iter   6:  -345.51187311409814   -1.31391e-05   5.03851e-06 DIIS
   @RHF iter   7:  -345.51187369082777   -5.76730e-07   1.62324e-06 DIIS
   @RHF iter   8:  -345.51187374199623   -5.11685e-08   6.11268e-07 DIIS
   @RHF iter   9:  -345.51187374829044   -6.29421e-09   2.36902e-07 DIIS
   @RHF iter  10:  -345.51187374944300   -1.15256e-09   7.14214e-08 DIIS
   @RHF iter  11:  -345.51187374958590   -1.42904e-10   1.80055e-08 DIIS
   @RHF iter  12:  -345.51187374959608   -1.01750e-11   6.49676e-09 DIIS
   @RHF iter  13:  -345.51187374959846   -2.38742e-12   2.52314e-09 DIIS
   @RHF iter  14:  -345.51187374959949   -1.02318e-12   9.41262e-10 DIIS
   @RHF iter  15:  -345.51187374959972   -2.27374e-13   3.17295e-10 DIIS
   @RHF iter  16:  -345.51187374959892    7.95808e-13   1.05008e-10 DIIS
   @RHF iter  17:  -345.51187374960028   -1.36424e-12   4.24408e-11 DIIS
  Energy and wave function converged.

  ==> Post-Iterations <==

    Orbital Energies [Eh]
    ---------------------

    Doubly Occupied:

       1A    -20.254431     2A    -20.252679     3A    -11.117154
       4A    -11.103945     5A    -11.098578     6A    -11.076564
       7A    -11.045086     8A     -1.149617     9A     -1.034759
      10A     -0.904536    11A     -0.874692    12A     -0.726200
      13A     -0.703428    14A     -0.509516    15A     -0.490378
      16A     -0.483681    17A     -0.455655    18A     -0.428400
      19A     -0.389924    20A     -0.383319    21A     -0.379390
      22A     -0.372628    23A     -0.367649    24A     -0.362270
      25A     -0.320099    26A     -0.296490    27A     -0.176875
      28A     -0.168280    29A     -0.156948

    Virtual:

      30A      0.289795    31A      0.328518    32A      0.343392
      33A      0.354301    34A      0.359374    35A      0.383680
      36A      0.393166    37A      0.401748    38A      0.417602
      39A      0.428083    40A      0.446996    41A      0.469869
      42A      0.509088    43A      0.551923    44A      0.614307
      45A      0.684785    46A      0.696625    47A      0.709136
      48A      0.728625    49A      0.734092    50A      0.756503
      51A      0.778794    52A      0.794308    53A      0.826140
      54A      0.893575    55A      0.946937    56A      0.984287
      57A      0.993421    58A      0.998944    59A      1.004150
      60A      1.006368    61A      1.015882    62A      1.022427
      63A      1.033110    64A      1.043788    65A      1.053463
      66A      1.060171    67A      1.066855    68A      1.077622
      69A      1.084930    70A      1.112864    71A      1.136021
      72A      1.163809    73A      1.235854    74A      1.252181
      75A      1.263636    76A      1.304661    77A      1.313315
      78A      1.352790    79A      1.393088    80A      1.498267
      81A      1.536454    82A      1.555095    83A      1.588219
      84A      1.594784    85A      1.610515    86A      1.620134
      87A      1.649338    88A      1.679026    89A      1.690813
      90A      1.699898    91A      1.737336    92A      1.778095
      93A      1.819638    94A      1.828289    95A      1.841368
      96A      1.966444    97A      1.981856    98A      1.991778
      99A      2.013620   100A      2.034154   101A      2.046990
     102A      2.053174   103A      2.057616   104A      2.058376
     105A      2.070553   106A      2.076387   107A      2.085816
     108A      2.102910   109A      2.139162   110A      2.153956
     111A      2.185736   112A      2.196040   113A      2.201364
     114A      2.219346   115A      2.250158   116A      2.320961
     117A      2.355672   118A      2.381431   119A      2.395864
     120A      2.427111   121A      2.481029   122A      2.518449
     123A      2.548385   124A      2.570894   125A      2.582724
     126A      2.642328   127A      2.673594   128A      2.683029
     129A      2.707855   130A      2.733259   131A      2.764555
     132A      2.839159   133A      2.865586   134A      2.905710
     135A      2.915806   136A      2.938243   137A      2.967801
     138A      2.982975   139A      3.019685   140A      3.047178
     141A      3.066103   142A      3.089611   143A      3.128997
     144A      3.250516   145A      3.290320   146A      3.308445
     147A      3.376682   148A      3.647789   149A      3.828283
     150A      3.849444   151A      4.074885   152A      4.107443
     153A      4.215648

    Final Occupation by Irrep:
              A
    DOCC [    29 ]

  @RHF Final Energy:  -345.51187374960028

   => Energetics <=

    Nuclear Repulsion Energy =            291.6044007160117530
    One-Electron Energy =               -1060.0662061804262066
    Two-Electron Energy =                 422.9499317148142268
    Total Energy =                       -345.5118737496002836

Computation Completed

Properties will be evaluated at   0.000000,   0.000000,   0.000000 [a0]

Properties computed using the SCF density matrix

  Nuclear Dipole Moment: [e a0]
     X:     9.1323      Y:     6.0148      Z:    -6.9101

  Electronic Dipole Moment: [e a0]
     X:    -7.3225      Y:    -4.8461      Z:     5.0590

  Dipole Moment: [e a0]
     X:     1.8098      Y:     1.1687      Z:    -1.8511     Total:     2.8404

  Dipole Moment: [D]
     X:     4.6000      Y:     2.9705      Z:    -4.7050     Total:     7.2195

*** tstop() called on ds3 at Sun Apr 26 21:48:57 2020
Module time:
	user time   =      23.06 seconds =       0.38 minutes
	system time =      10.28 seconds =       0.17 minutes
	total time  =         71 seconds =       1.18 minutes
Total time:
	user time   =      23.06 seconds =       0.38 minutes
	system time =      10.28 seconds =       0.17 minutes
	total time  =         71 seconds =       1.18 minutes
                                     G D M A

                                 by Anthony Stone

                           version 2.2.06, 22 June 2011

               Distributed Multipoles from Gaussian wavefunctions

Starting at 21:48:57 on 26 Apr 2020

Using SCF density matrix from file ./SSI/SSI-168LEU-172ASP-1-dimer.test.8840.fchk

                         Distributed Multipole Analysis

Standard DMA

Positions and radii in angstrom
Multipole moments in atomic units, ea_0^k for rank k

C          x =  1.891616  y =  1.987652  z =  0.100705 angstrom
           Maximum rank =  0   Radius =  0.650 angstrom
                   Q00  =  -0.207790

C          x =  3.397616  y =  1.832652  z =  0.397705 angstrom
           Maximum rank =  0   Radius =  0.650 angstrom
                   Q00  =  -0.244663

H          x =  1.306616  y =  1.569652  z =  0.918705 angstrom
           Maximum rank =  0   Radius =  0.325 angstrom
                   Q00  =   0.117341

H          x =  1.646616  y =  3.045652  z =  0.010705 angstrom
           Maximum rank =  0   Radius =  0.325 angstrom
                   Q00  =   0.043888

H          x =  1.632616  y =  1.479652  z = -0.827295 angstrom
           Maximum rank =  0   Radius =  0.325 angstrom
                   Q00  =   0.086954

H          x =  3.662616  y =  2.357652  z =  1.314705 angstrom
           Maximum rank =  0   Radius =  0.325 angstrom
                   Q00  =   0.067828

H          x =  3.636916  y =  0.761842  z =  0.475815 angstrom
           Maximum rank =  0   Radius =  0.325 angstrom
                   Q00  =   0.088518

H          x =  3.954526  y =  2.249807  z = -0.454255 angstrom
           Maximum rank =  0   Radius =  0.325 angstrom
                   Q00  =   0.047138

C          x = -0.680384  y = -0.536348  z = -1.051295 angstrom
           Maximum rank =  0   Radius =  0.650 angstrom
                   Q00  =  -0.095288

C          x = -1.647384  y = -1.381348  z = -1.868295 angstrom
           Maximum rank =  0   Radius =  0.650 angstrom
                   Q00  =  -0.216850

C          x = -0.952384  y = -0.644348  z =  0.410705 angstrom
           Maximum rank =  0   Radius =  0.650 angstrom
                   Q00  =   0.996683

O          x = -2.043384  y = -0.214348  z =  0.818705 angstrom
           Maximum rank =  0   Radius =  0.650 angstrom
                   Q00  =  -0.954119

O          x = -0.078384  y = -1.134348  z =  1.154705 angstrom
           Maximum rank =  0   Radius =  0.650 angstrom
                   Q00  =  -0.940441

H          x =  0.346616  y = -0.844348  z = -1.260295 angstrom
           Maximum rank =  0   Radius =  0.325 angstrom
                   Q00  =   0.012663

H          x = -0.784384  y =  0.504652  z = -1.340295 angstrom
           Maximum rank =  0   Radius =  0.325 angstrom
                   Q00  =   0.032491

H          x = -2.654384  y = -0.982348  z = -1.744295 angstrom
           Maximum rank =  0   Radius =  0.325 angstrom
                   Q00  =   0.080625

H          x = -1.628744  y = -2.433213  z = -1.546995 angstrom
           Maximum rank =  0   Radius =  0.325 angstrom
                   Q00  =   0.066886

H          x = -1.366744  y = -1.286103  z = -2.927615 angstrom
           Maximum rank =  0   Radius =  0.325 angstrom
                   Q00  =   0.018135

Total multipoles referred to origin at
           x =   0.000000,  y =    0.000000,  z =    0.000000 angstrom
                   Q00  =  -1.000000

Finished at 21:48:57 on 26 Apr 2020

  DMA results are available in the Python driver through the
	  variable('DMA DISTRIBUTED MULTIPOLES')
  and
	  variable('DMA TOTAL MULTIPOLES')
  commands.

    Psi4 stopped on: Sunday, 26 April 2020 09:48PM
    Psi4 wall time for execution: 0:01:11.13

*** Psi4 exiting successfully. Buy a developer a beer!
