                               Psi4 1.3.2 release

  ==> Input File <==

--------------------------------------------------------------------------
import numpy as np
set {scf_type pk
basis cc-pvdz
d_convergence 10
gdma_switch   0
gdma_limit    0
gdma_origin   [ 0.0,  0.0,  0.0 ]
}
molecule test {
    units Angstrom
    0 1
    --
    0 1
    C                1.308507020118596     0.803679827442701    -1.094831533385656
    C                2.525507020118595     1.144679827442701    -1.963831533385656
    O                1.290507020118596    -0.571320172557299    -0.761831533385656
    H                1.329507020118596     1.393679827442701    -0.179831533385656
    H                0.396507020118596     1.050679827442701    -1.639831533385656
    H                3.426507020118596     0.771679827442701    -1.471831533385656
    H                1.770507020118596    -0.686320172557299     0.073168466614344
    H                2.600777020118596     2.235388827442701    -2.085031533385656
    H                2.426747020118596     0.637092827442701    -2.934731533385656
    C               -1.478492979881404    -0.885320172557299     0.953168466614344
    C               -0.867492979881404     0.212679827442701     1.798168466614344
    C               -2.984492979881404    -0.707320172557299     1.118168466614344
    H               -1.148492979881404    -1.870320172557299     1.285168466614344
    H               -1.225492979881404    -0.730320172557299    -0.095831533385656
    H               -0.835492979881404    -0.116320172557299     2.835168466614344
    H                0.132507020118596     0.486679827442701     1.471168466614344
    H               -3.486492979881404    -0.879320172557299     0.165168466614344
    H               -1.574682979881404     1.050311827442701     1.707268466614344
    H               -3.095422979881404     0.344621827442701     1.419968466614344
    H               -3.380112979881404    -1.388099172557299     1.886268466614344

}
e, wfn = energy('scf', return_wfn=True)
gdma(wfn)
dmavals = variable('DMA DISTRIBUTED MULTIPOLES')
charges = np.array(dmavals)
print(charges)
np.save('SSI-074SER-091PRO-1-dimer.npy', np.array(charges))--------------------------------------------------------------------------

*** tstart() called on ds3
*** at Mon Apr 27 05:48:28 2020

   => Loading Basis Set <=

    Name: CC-PVDZ
    Role: ORBITAL
    Keyword: BASIS
    atoms 1-2, 10-12 entry C          line   138 file /theoryfs2/ds/metcalf/miniconda2/envs/tf2gpu/share/psi4/basis/cc-pvdz.gbs
    atoms 3          entry O          line   198 file /theoryfs2/ds/metcalf/miniconda2/envs/tf2gpu/share/psi4/basis/cc-pvdz.gbs
    atoms 4-9, 13-20 entry H          line    22 file /theoryfs2/ds/metcalf/miniconda2/envs/tf2gpu/share/psi4/basis/cc-pvdz.gbs

         ---------------------------------------------------------
                                   SCF
               by Justin Turney, Rob Parrish, Andy Simmonett
                          and Daniel G. A. Smith
                              RHF Reference
                        1 Threads,    500 MiB Core
         ---------------------------------------------------------

  ==> Geometry <==

    Molecular point group: c1
    Full point group: C1

    Geometry (in Angstrom), charge = 0, multiplicity = 1:

       Center              X                  Y                   Z               Mass
    ------------   -----------------  -----------------  -----------------  -----------------
         C            1.308507020119     0.803679827443    -1.094831533386    12.000000000000
         C            2.525507020119     1.144679827443    -1.963831533386    12.000000000000
         O            1.290507020119    -0.571320172557    -0.761831533386    15.994914619570
         H            1.329507020119     1.393679827443    -0.179831533386     1.007825032230
         H            0.396507020119     1.050679827443    -1.639831533386     1.007825032230
         H            3.426507020119     0.771679827443    -1.471831533386     1.007825032230
         H            1.770507020119    -0.686320172557     0.073168466614     1.007825032230
         H            2.600777020119     2.235388827443    -2.085031533386     1.007825032230
         H            2.426747020119     0.637092827443    -2.934731533386     1.007825032230
         C           -1.478492979881    -0.885320172557     0.953168466614    12.000000000000
         C           -0.867492979881     0.212679827443     1.798168466614    12.000000000000
         C           -2.984492979881    -0.707320172557     1.118168466614    12.000000000000
         H           -1.148492979881    -1.870320172557     1.285168466614     1.007825032230
         H           -1.225492979881    -0.730320172557    -0.095831533386     1.007825032230
         H           -0.835492979881    -0.116320172557     2.835168466614     1.007825032230
         H            0.132507020119     0.486679827443     1.471168466614     1.007825032230
         H           -3.486492979881    -0.879320172557     0.165168466614     1.007825032230
         H           -1.574682979881     1.050311827443     1.707268466614     1.007825032230
         H           -3.095422979881     0.344621827443     1.419968466614     1.007825032230
         H           -3.380112979881    -1.388099172557     1.886268466614     1.007825032230

  Running in c1 symmetry.

  Rotational constants: A =      0.24338  B =      0.03173  C =      0.03117 [cm^-1]
  Rotational constants: A =   7296.34492  B =    951.13488  C =    934.41006 [MHz]
  Nuclear repulsion =  247.225252321426666

  Charge       = 0
  Multiplicity = 1
  Electrons    = 52
  Nalpha       = 26
  Nbeta        = 26

  ==> Algorithm <==

  SCF Algorithm Type is PK.
  DIIS enabled.
  MOM disabled.
  Fractional occupation disabled.
  Guess Type is SAD.
  Energy threshold   = 1.00e-06
  Density threshold  = 1.00e-10
  Integral threshold = 0.00e+00

  ==> Primary Basis <==

  Basis Set: CC-PVDZ
    Blend: CC-PVDZ
    Number of shells: 78
    Number of basis function: 154
    Number of Cartesian functions: 160
    Spherical Harmonics?: true
    Max angular momentum: 2

  ==> Pre-Iterations <==

   -------------------------------------------------------
    Irrep   Nso     Nmo     Nalpha   Nbeta   Ndocc  Nsocc
   -------------------------------------------------------
     A        154     154       0       0       0       0
   -------------------------------------------------------
    Total     154     154      26      26      26       0
   -------------------------------------------------------

  ==> Integral Setup <==

  Using integral reordering PK algorithm.
  Sizing the integral batches needed.
  Building batch lookup table.
   Calculation information:
      Number of atoms:                  20
      Number of AO shells:              78
      Number of primitives:            202
      Number of atomic orbitals:       160
      Number of basis functions:       154

      Integral cutoff                 1.00e-12
      Number of threads:                 1

	Batch   1 pq = [       0,    9405] index = [             0,44231715] size =     44231715
	Batch   2 pq = [    9405,   11935] index = [      44231715,71228080] size =     26996365
  Task number: 7
  Buffer size: 11059200
  Buffer per thread: 2
  We computed 3959405 shell quartets total.
  Whereas there are 4747821 unique shell quartets.

  ==> DiskJK: Disk-Based J/K Matrices <==

    J tasked:                  Yes
    K tasked:                  Yes
    wK tasked:                  No
    Memory [MiB]:              375
    Schwarz Cutoff:          1E-12

    OpenMP threads:              1

  Minimum eigenvalue in the overlap matrix is 4.9118678181E-03.
  Using Symmetric Orthogonalization.

  SCF Guess: Superposition of Atomic Densities via on-the-fly atomic UHF.

  ==> Iterations <==

                        Total Energy        Delta E     RMS |[F,P]|

   @RHF iter SAD:  -271.23058056932985   -2.71231e+02   0.00000e+00
   @RHF iter   1:  -272.12600000982553   -8.95419e-01   3.84018e-03 DIIS
   @RHF iter   2:  -272.30402147871285   -1.78021e-01   1.78440e-03 DIIS
   @RHF iter   3:  -272.33878544232590   -3.47640e-02   3.53131e-04 DIIS
   @RHF iter   4:  -272.34126018732087   -2.47474e-03   1.08298e-04 DIIS
   @RHF iter   5:  -272.34141126022246   -1.51073e-04   2.32726e-05 DIIS
   @RHF iter   6:  -272.34142117585560   -9.91563e-06   5.11568e-06 DIIS
   @RHF iter   7:  -272.34142178254370   -6.06688e-07   1.41035e-06 DIIS
   @RHF iter   8:  -272.34142182920613   -4.66624e-08   4.47198e-07 DIIS
   @RHF iter   9:  -272.34142183531492   -6.10879e-09   1.03652e-07 DIIS
   @RHF iter  10:  -272.34142183571038   -3.95460e-10   2.49078e-08 DIIS
   @RHF iter  11:  -272.34142183573118   -2.08047e-11   7.40031e-09 DIIS
   @RHF iter  12:  -272.34142183573363   -2.44427e-12   2.68979e-09 DIIS
   @RHF iter  13:  -272.34142183573192    1.70530e-12   7.26534e-10 DIIS
   @RHF iter  14:  -272.34142183573312   -1.19371e-12   1.85102e-10 DIIS
   @RHF iter  15:  -272.34142183573402   -9.09495e-13   7.05622e-11 DIIS
  Energy and wave function converged.

  ==> Post-Iterations <==

    Orbital Energies [Eh]
    ---------------------

    Doubly Occupied:

       1A    -20.553364     2A    -11.277509     3A    -11.223096
       4A    -11.210161     5A    -11.208073     6A    -11.206078
       7A     -1.356201     8A     -1.059302     9A     -1.007252
      10A     -0.911293    11A     -0.840412    12A     -0.791678
      13A     -0.694713    14A     -0.631283    15A     -0.626474
      16A     -0.610720    17A     -0.579236    18A     -0.552022
      19A     -0.534995    20A     -0.522463    21A     -0.510800
      22A     -0.477583    23A     -0.475068    24A     -0.459780
      25A     -0.455801    26A     -0.432339

    Virtual:

      27A      0.169976    28A      0.196345    29A      0.208312
      30A      0.225080    31A      0.233134    32A      0.237446
      33A      0.247392    34A      0.265179    35A      0.276110
      36A      0.277175    37A      0.300170    38A      0.325360
      39A      0.338772    40A      0.357838    41A      0.385686
      42A      0.391145    43A      0.406690    44A      0.446096
      45A      0.564346    46A      0.599077    47A      0.601885
      48A      0.614571    49A      0.640936    50A      0.661025
      51A      0.671768    52A      0.712349    53A      0.729702
      54A      0.765717    55A      0.783286    56A      0.816977
      57A      0.841202    58A      0.843723    59A      0.860731
      60A      0.874689    61A      0.882890    62A      0.888508
      63A      0.890641    64A      0.898766    65A      0.904642
      66A      0.919096    67A      0.924594    68A      0.933662
      69A      0.938751    70A      0.943938    71A      0.956199
      72A      0.991434    73A      1.003696    74A      1.083767
      75A      1.112523    76A      1.141796    77A      1.153720
      78A      1.186348    79A      1.216749    80A      1.285489
      81A      1.340094    82A      1.382792    83A      1.439705
      84A      1.473264    85A      1.487763    86A      1.495793
      87A      1.547917    88A      1.589906    89A      1.614812
      90A      1.633032    91A      1.651611    92A      1.665797
      93A      1.684133    94A      1.727577    95A      1.736786
      96A      1.753588    97A      1.810774    98A      1.840427
      99A      1.859297   100A      1.876467   101A      1.887050
     102A      1.895871   103A      1.907320   104A      1.927589
     105A      1.941009   106A      1.955896   107A      1.958205
     108A      1.963722   109A      1.986324   110A      1.993923
     111A      2.002115   112A      2.005103   113A      2.030407
     114A      2.058877   115A      2.072632   116A      2.085546
     117A      2.109677   118A      2.158708   119A      2.183953
     120A      2.236947   121A      2.246639   122A      2.271207
     123A      2.303103   124A      2.322287   125A      2.351979
     126A      2.364489   127A      2.424702   128A      2.430632
     129A      2.461036   130A      2.511733   131A      2.520032
     132A      2.540569   133A      2.559458   134A      2.563641
     135A      2.650302   136A      2.714648   137A      2.751706
     138A      2.761885   139A      2.768634   140A      2.785179
     141A      2.789694   142A      2.801487   143A      2.843246
     144A      2.868903   145A      2.875350   146A      2.915675
     147A      2.924657   148A      2.956485   149A      3.061229
     150A      3.326366   151A      3.398299   152A      3.469683
     153A      3.638148   154A      4.090062

    Final Occupation by Irrep:
              A
    DOCC [    26 ]

  @RHF Final Energy:  -272.34142183573402

   => Energetics <=

    Nuclear Repulsion Energy =            247.2252523214266660
    One-Electron Energy =                -858.7179544859313864
    Two-Electron Energy =                 339.1512803287707243
    Total Energy =                       -272.3414218357340246

Computation Completed

Properties will be evaluated at   0.000000,   0.000000,   0.000000 [a0]

Properties computed using the SCF density matrix

  Nuclear Dipole Moment: [e a0]
     X:    -2.4904      Y:     2.1529      Z:     2.2803

  Electronic Dipole Moment: [e a0]
     X:     2.8689      Y:    -1.7218      Z:    -2.0133

  Dipole Moment: [e a0]
     X:     0.3785      Y:     0.4311      Z:     0.2670     Total:     0.6328

  Dipole Moment: [D]
     X:     0.9620      Y:     1.0959      Z:     0.6785     Total:     1.6083

*** tstop() called on ds3 at Mon Apr 27 05:48:58 2020
Module time:
	user time   =      21.03 seconds =       0.35 minutes
	system time =       9.13 seconds =       0.15 minutes
	total time  =         30 seconds =       0.50 minutes
Total time:
	user time   =      21.03 seconds =       0.35 minutes
	system time =       9.13 seconds =       0.15 minutes
	total time  =         30 seconds =       0.50 minutes
                                     G D M A

                                 by Anthony Stone

                           version 2.2.06, 22 June 2011

               Distributed Multipoles from Gaussian wavefunctions

Starting at 5:48:58 on 27 Apr 2020

Using SCF density matrix from file ./SSI/SSI-074SER-091PRO-1-dimer.test.31024.fchk

                         Distributed Multipole Analysis

Standard DMA

Positions and radii in angstrom
Multipole moments in atomic units, ea_0^k for rank k

C          x =  1.308507  y =  0.803680  z = -1.094832 angstrom
           Maximum rank =  0   Radius =  0.650 angstrom
                   Q00  =   0.101115

C          x =  2.525507  y =  1.144680  z = -1.963832 angstrom
           Maximum rank =  0   Radius =  0.650 angstrom
                   Q00  =  -0.240561

O          x =  1.290507  y = -0.571320  z = -0.761832 angstrom
           Maximum rank =  0   Radius =  0.650 angstrom
                   Q00  =  -0.603177

H          x =  1.329507  y =  1.393680  z = -0.179832 angstrom
           Maximum rank =  0   Radius =  0.325 angstrom
                   Q00  =   0.026267

H          x =  0.396507  y =  1.050680  z = -1.639832 angstrom
           Maximum rank =  0   Radius =  0.325 angstrom
                   Q00  =   0.077241

H          x =  3.426507  y =  0.771680  z = -1.471832 angstrom
           Maximum rank =  0   Radius =  0.325 angstrom
                   Q00  =   0.081820

H          x =  1.770507  y = -0.686320  z =  0.073168 angstrom
           Maximum rank =  0   Radius =  0.325 angstrom
                   Q00  =   0.400764

H          x =  2.600777  y =  2.235389  z = -2.085032 angstrom
           Maximum rank =  0   Radius =  0.325 angstrom
                   Q00  =   0.080708

H          x =  2.426747  y =  0.637093  z = -2.934732 angstrom
           Maximum rank =  0   Radius =  0.325 angstrom
                   Q00  =   0.093354

C          x = -1.478493  y = -0.885320  z =  0.953168 angstrom
           Maximum rank =  0   Radius =  0.650 angstrom
                   Q00  =  -0.098231

C          x = -0.867493  y =  0.212680  z =  1.798168 angstrom
           Maximum rank =  0   Radius =  0.650 angstrom
                   Q00  =  -0.199218

C          x = -2.984493  y = -0.707320  z =  1.118168 angstrom
           Maximum rank =  0   Radius =  0.650 angstrom
                   Q00  =  -0.236309

H          x = -1.148493  y = -1.870320  z =  1.285168 angstrom
           Maximum rank =  0   Radius =  0.325 angstrom
                   Q00  =   0.050333

H          x = -1.225493  y = -0.730320  z = -0.095832 angstrom
           Maximum rank =  0   Radius =  0.325 angstrom
                   Q00  =   0.065825

H          x = -0.835493  y = -0.116320  z =  2.835168 angstrom
           Maximum rank =  0   Radius =  0.325 angstrom
                   Q00  =   0.072345

H          x =  0.132507  y =  0.486680  z =  1.471168 angstrom
           Maximum rank =  0   Radius =  0.325 angstrom
                   Q00  =   0.055155

H          x = -3.486493  y = -0.879320  z =  0.165168 angstrom
           Maximum rank =  0   Radius =  0.325 angstrom
                   Q00  =   0.085286

H          x = -1.574683  y =  1.050312  z =  1.707268 angstrom
           Maximum rank =  0   Radius =  0.325 angstrom
                   Q00  =   0.050602

H          x = -3.095423  y =  0.344622  z =  1.419968 angstrom
           Maximum rank =  0   Radius =  0.325 angstrom
                   Q00  =   0.058892

H          x = -3.380113  y = -1.388099  z =  1.886268 angstrom
           Maximum rank =  0   Radius =  0.325 angstrom
                   Q00  =   0.077790

Total multipoles referred to origin at
           x =   0.000000,  y =    0.000000,  z =    0.000000 angstrom
                   Q00  =  -0.000000

Finished at 5:48:58 on 27 Apr 2020

  DMA results are available in the Python driver through the
	  variable('DMA DISTRIBUTED MULTIPOLES')
  and
	  variable('DMA TOTAL MULTIPOLES')
  commands.

    Psi4 stopped on: Monday, 27 April 2020 05:48AM
    Psi4 wall time for execution: 0:00:29.71

*** Psi4 exiting successfully. Buy a developer a beer!
