                               Psi4 1.3.2 release

  ==> Input File <==

--------------------------------------------------------------------------
import numpy as np
set {scf_type pk
basis cc-pvdz
d_convergence 10
gdma_switch   0
gdma_limit    0
gdma_origin   [ 0.0,  0.0,  0.0 ]
}
molecule test {
    units Angstrom
    1 1
    --
    1 1
    C                0.280009918712905     1.703675083581006     2.929963906038996
    O                0.357009918712905     0.426675083581005     2.325963906038996
    H                0.971009918712905    -0.120324916418995     2.842963906038996
    H               -0.017990081287095     2.435675083581005     2.179963906038996
    H                1.262009918712905     1.985675083581005     3.311963906038995
    H               -0.454840081287095     1.710886083581005     3.748465906038995
    C               -1.195990081287095    -1.186324916418995    -0.062036093961004
    C               -0.237990081287095    -2.282324916418995     0.429963906038996
    C                0.141009918712905     0.283675083581005    -1.525036093961005
    N               -0.780990081287095    -0.653324916418995    -1.362036093961005
    N                0.458009918712905     0.699675083581005    -2.732036093961005
    N                0.752009918712905     0.807675083581005    -0.481036093961004
    H               -2.205990081287095    -1.570324916418995    -0.173036093961004
    H               -1.256990081287095    -0.386324916418995     0.674963906038995
    H               -0.210990081287095    -2.271324916418994     1.520963906038995
    H                0.772009918712905    -2.062324916418995     0.079963906038996
    H               -1.233990081287095    -1.014324916418995    -2.198036093961004
    H                0.204009918712905     0.139675083581005    -3.539036093961005
    H                1.142009918712905     1.428675083581005    -2.846036093961005
    H                0.509009918712905     0.513675083581005     0.458963906038996
    H                1.477009918712905     1.497675083581006    -0.602036093961004
    H               -0.522230081287095    -3.287174916418995     0.084300906038996

}
e, wfn = energy('scf', return_wfn=True)
gdma(wfn)
dmavals = variable('DMA DISTRIBUTED MULTIPOLES')
charges = np.array(dmavals)
print(charges)
np.save('SSI-019SER-026ARG-1-dimer.npy', np.array(charges))--------------------------------------------------------------------------

*** tstart() called on ds3
*** at Tue Apr 28 13:39:10 2020

   => Loading Basis Set <=

    Name: CC-PVDZ
    Role: ORBITAL
    Keyword: BASIS
    atoms 1, 7-9     entry C          line   138 file /theoryfs2/ds/metcalf/miniconda2/envs/tf2gpu/share/psi4/basis/cc-pvdz.gbs
    atoms 2          entry O          line   198 file /theoryfs2/ds/metcalf/miniconda2/envs/tf2gpu/share/psi4/basis/cc-pvdz.gbs
    atoms 3-6, 13-22 entry H          line    22 file /theoryfs2/ds/metcalf/miniconda2/envs/tf2gpu/share/psi4/basis/cc-pvdz.gbs
    atoms 10-12      entry N          line   168 file /theoryfs2/ds/metcalf/miniconda2/envs/tf2gpu/share/psi4/basis/cc-pvdz.gbs

         ---------------------------------------------------------
                                   SCF
               by Justin Turney, Rob Parrish, Andy Simmonett
                          and Daniel G. A. Smith
                              RHF Reference
                        1 Threads,    500 MiB Core
         ---------------------------------------------------------

  ==> Geometry <==

    Molecular point group: c1
    Full point group: C1

    Geometry (in Angstrom), charge = 1, multiplicity = 1:

       Center              X                  Y                   Z               Mass
    ------------   -----------------  -----------------  -----------------  -----------------
         C            0.280009918713     1.703675083581     2.929963906039    12.000000000000
         O            0.357009918713     0.426675083581     2.325963906039    15.994914619570
         H            0.971009918713    -0.120324916419     2.842963906039     1.007825032230
         H           -0.017990081287     2.435675083581     2.179963906039     1.007825032230
         H            1.262009918713     1.985675083581     3.311963906039     1.007825032230
         H           -0.454840081287     1.710886083581     3.748465906039     1.007825032230
         C           -1.195990081287    -1.186324916419    -0.062036093961    12.000000000000
         C           -0.237990081287    -2.282324916419     0.429963906039    12.000000000000
         C            0.141009918713     0.283675083581    -1.525036093961    12.000000000000
         N           -0.780990081287    -0.653324916419    -1.362036093961    14.003074004430
         N            0.458009918713     0.699675083581    -2.732036093961    14.003074004430
         N            0.752009918713     0.807675083581    -0.481036093961    14.003074004430
         H           -2.205990081287    -1.570324916419    -0.173036093961     1.007825032230
         H           -1.256990081287    -0.386324916419     0.674963906039     1.007825032230
         H           -0.210990081287    -2.271324916419     1.520963906039     1.007825032230
         H            0.772009918713    -2.062324916419     0.079963906039     1.007825032230
         H           -1.233990081287    -1.014324916419    -2.198036093961     1.007825032230
         H            0.204009918713     0.139675083581    -3.539036093961     1.007825032230
         H            1.142009918713     1.428675083581    -2.846036093961     1.007825032230
         H            0.509009918713     0.513675083581     0.458963906039     1.007825032230
         H            1.477009918713     1.497675083581    -0.602036093961     1.007825032230
         H           -0.522230081287    -3.287174916419     0.084300906039     1.007825032230

  Running in c1 symmetry.

  Rotational constants: A =      0.07490  B =      0.03646  C =      0.02679 [cm^-1]
  Rotational constants: A =   2245.37733  B =   1093.09775  C =    803.19458 [MHz]
  Nuclear repulsion =  414.834378261691313

  Charge       = 1
  Multiplicity = 1
  Electrons    = 66
  Nalpha       = 33
  Nbeta        = 33

  ==> Algorithm <==

  SCF Algorithm Type is PK.
  DIIS enabled.
  MOM disabled.
  Fractional occupation disabled.
  Guess Type is SAD.
  Energy threshold   = 1.00e-06
  Density threshold  = 1.00e-10
  Integral threshold = 0.00e+00

  ==> Primary Basis <==

  Basis Set: CC-PVDZ
    Blend: CC-PVDZ
    Number of shells: 90
    Number of basis function: 182
    Number of Cartesian functions: 190
    Spherical Harmonics?: true
    Max angular momentum: 2

  ==> Pre-Iterations <==

   -------------------------------------------------------
    Irrep   Nso     Nmo     Nalpha   Nbeta   Ndocc  Nsocc
   -------------------------------------------------------
     A        182     182       0       0       0       0
   -------------------------------------------------------
    Total     182     182      33      33      33       0
   -------------------------------------------------------

  ==> Integral Setup <==

  Using integral reordering PK algorithm.
  Sizing the integral batches needed.
  Building batch lookup table.
   Calculation information:
      Number of atoms:                  22
      Number of AO shells:              90
      Number of primitives:            246
      Number of atomic orbitals:       190
      Number of basis functions:       182

      Integral cutoff                 1.00e-12
      Number of threads:                 1

	Batch   1 pq = [       0,    9405] index = [             0,44231715] size =     44231715
	Batch   2 pq = [    9405,   13301] index = [      44231715,88464951] size =     44233236
	Batch   3 pq = [   13301,   16290] index = [      88464951,132690195] size =     44225244
	Batch   4 pq = [   16290,   16653] index = [     132690195,138669531] size =      5979336
  Task number: 13
  Buffer size: 11059200
  Buffer per thread: 2
  We computed 7804314 shell quartets total.
  Whereas there are 8386560 unique shell quartets.

  ==> DiskJK: Disk-Based J/K Matrices <==

    J tasked:                  Yes
    K tasked:                  Yes
    wK tasked:                  No
    Memory [MiB]:              375
    Schwarz Cutoff:          1E-12

    OpenMP threads:              1

  Minimum eigenvalue in the overlap matrix is 3.7542091950E-03.
  Using Symmetric Orthogonalization.

  SCF Guess: Superposition of Atomic Densities via on-the-fly atomic UHF.

  ==> Iterations <==

                        Total Energy        Delta E     RMS |[F,P]|

   @RHF iter SAD:  -396.94366187040220   -3.96944e+02   0.00000e+00
   @RHF iter   1:  -397.48019933941094   -5.36537e-01   3.33008e-03 DIIS
   @RHF iter   2:  -397.65887241953766   -1.78673e-01   1.38239e-03 DIIS
   @RHF iter   3:  -397.68651739986950   -2.76450e-02   3.43827e-04 DIIS
   @RHF iter   4:  -397.68918138093545   -2.66398e-03   8.99753e-05 DIIS
   @RHF iter   5:  -397.68932973191619   -1.48351e-04   2.27728e-05 DIIS
   @RHF iter   6:  -397.68934469060684   -1.49587e-05   6.17009e-06 DIIS
   @RHF iter   7:  -397.68934585049499   -1.15989e-06   1.77624e-06 DIIS
   @RHF iter   8:  -397.68934596043727   -1.09942e-07   5.69810e-07 DIIS
   @RHF iter   9:  -397.68934596956905   -9.13178e-09   1.03772e-07 DIIS
   @RHF iter  10:  -397.68934596999173   -4.22688e-10   4.07534e-08 DIIS
   @RHF iter  11:  -397.68934597003994   -4.82032e-11   1.13675e-08 DIIS
   @RHF iter  12:  -397.68934597004568   -5.74119e-12   4.97223e-09 DIIS
   @RHF iter  13:  -397.68934597004812   -2.44427e-12   1.35189e-09 DIIS
   @RHF iter  14:  -397.68934597005011   -1.98952e-12   4.49005e-10 DIIS
   @RHF iter  15:  -397.68934597004784    2.27374e-12   1.17136e-10 DIIS
   @RHF iter  16:  -397.68934597004784    0.00000e+00   4.09588e-11 DIIS
  Energy and wave function converged.

  ==> Post-Iterations <==

    Orbital Energies [Eh]
    ---------------------

    Doubly Occupied:

       1A    -20.705113     2A    -15.770718     3A    -15.763941
       4A    -15.757903     5A    -11.567226     6A    -11.416244
       7A    -11.402369     8A    -11.354511     9A     -1.526470
      10A     -1.503389    11A     -1.385362    12A     -1.368494
      13A     -1.166373    14A     -1.052849    15A     -1.043860
      16A     -0.991671    17A     -0.957557    18A     -0.916803
      19A     -0.849086    20A     -0.838386    21A     -0.819384
      22A     -0.804283    23A     -0.772337    24A     -0.752730
      25A     -0.743964    26A     -0.726043    27A     -0.689535
      28A     -0.656951    29A     -0.638595    30A     -0.630719
      31A     -0.595552    32A     -0.585866    33A     -0.559655

    Virtual:

      34A      0.004318    35A      0.038833    36A      0.041071
      37A      0.049399    38A      0.068351    39A      0.084072
      40A      0.102746    41A      0.114168    42A      0.125821
      43A      0.132806    44A      0.149114    45A      0.154401
      46A      0.171775    47A      0.182537    48A      0.224891
      49A      0.235862    50A      0.255342    51A      0.280302
      52A      0.311294    53A      0.355496    54A      0.372075
      55A      0.462390    56A      0.470637    57A      0.497657
      58A      0.503624    59A      0.509300    60A      0.532007
      61A      0.542803    62A      0.559155    63A      0.568781
      64A      0.585344    65A      0.592140    66A      0.607547
      67A      0.633919    68A      0.688888    69A      0.696906
      70A      0.724152    71A      0.731420    72A      0.743099
      73A      0.745310    74A      0.757533    75A      0.769121
      76A      0.777358    77A      0.782584    78A      0.790187
      79A      0.807534    80A      0.816902    81A      0.848453
      82A      0.860596    83A      0.877558    84A      0.900530
      85A      0.932423    86A      0.939446    87A      0.982185
      88A      0.998682    89A      1.024689    90A      1.042615
      91A      1.050230    92A      1.072106    93A      1.131178
      94A      1.156491    95A      1.166058    96A      1.190126
      97A      1.200170    98A      1.227004    99A      1.241244
     100A      1.264366   101A      1.300876   102A      1.319988
     103A      1.385552   104A      1.402208   105A      1.417235
     106A      1.468450   107A      1.496289   108A      1.530141
     109A      1.534920   110A      1.553871   111A      1.561570
     112A      1.599716   113A      1.614022   114A      1.665416
     115A      1.668923   116A      1.700323   117A      1.702178
     118A      1.721515   119A      1.731102   120A      1.743247
     121A      1.758909   122A      1.764890   123A      1.785780
     124A      1.790097   125A      1.806877   126A      1.822042
     127A      1.828858   128A      1.842799   129A      1.851905
     130A      1.870693   131A      1.889656   132A      1.903704
     133A      1.949495   134A      1.964652   135A      1.988222
     136A      2.003905   137A      2.045591   138A      2.053294
     139A      2.097025   140A      2.153824   141A      2.164433
     142A      2.202025   143A      2.212975   144A      2.241061
     145A      2.248177   146A      2.263838   147A      2.277063
     148A      2.287638   149A      2.316624   150A      2.337906
     151A      2.352710   152A      2.363690   153A      2.371775
     154A      2.412584   155A      2.449015   156A      2.472552
     157A      2.538267   158A      2.604971   159A      2.628561
     160A      2.640694   161A      2.643180   162A      2.654422
     163A      2.661502   164A      2.677031   165A      2.713177
     166A      2.723914   167A      2.784866   168A      2.804383
     169A      2.845539   170A      2.885789   171A      2.900570
     172A      2.964085   173A      3.080710   174A      3.104380
     175A      3.138058   176A      3.219163   177A      3.239420
     178A      3.322091   179A      3.447269   180A      3.588977
     181A      3.679914   182A      3.949843

    Final Occupation by Irrep:
              A
    DOCC [    33 ]

  @RHF Final Energy:  -397.68934597004784

   => Energetics <=

    Nuclear Repulsion Energy =            414.8343782616913131
    One-Electron Energy =               -1352.4195732536775267
    Two-Electron Energy =                 539.8958490219383748
    Total Energy =                       -397.6893459700478388

Computation Completed

Properties will be evaluated at   0.000000,   0.000000,   0.000000 [a0]

Properties computed using the SCF density matrix

  Nuclear Dipole Moment: [e a0]
     X:     0.4074      Y:    -0.9381      Z:     5.2221

  Electronic Dipole Moment: [e a0]
     X:     0.2383      Y:     1.4257      Z:    -6.6022

  Dipole Moment: [e a0]
     X:     0.6457      Y:     0.4876      Z:    -1.3801     Total:     1.5998

  Dipole Moment: [D]
     X:     1.6411      Y:     1.2395      Z:    -3.5078     Total:     4.0663

*** tstop() called on ds3 at Tue Apr 28 13:40:38 2020
Module time:
	user time   =      53.60 seconds =       0.89 minutes
	system time =      21.40 seconds =       0.36 minutes
	total time  =         88 seconds =       1.47 minutes
Total time:
	user time   =      53.60 seconds =       0.89 minutes
	system time =      21.40 seconds =       0.36 minutes
	total time  =         88 seconds =       1.47 minutes
                                     G D M A

                                 by Anthony Stone

                           version 2.2.06, 22 June 2011

               Distributed Multipoles from Gaussian wavefunctions

Starting at 13:40:38 on 28 Apr 2020

Using SCF density matrix from file ./SSI/SSI-019SER-026ARG-1-dimer.test.17889.fchk

                         Distributed Multipole Analysis

Standard DMA

Positions and radii in angstrom
Multipole moments in atomic units, ea_0^k for rank k

C          x =  0.280010  y =  1.703675  z =  2.929964 angstrom
           Maximum rank =  0   Radius =  0.650 angstrom
                   Q00  =  -0.077789

O          x =  0.357010  y =  0.426675  z =  2.325964 angstrom
           Maximum rank =  0   Radius =  0.650 angstrom
                   Q00  =  -0.648739

H          x =  0.971010  y = -0.120325  z =  2.842964 angstrom
           Maximum rank =  0   Radius =  0.325 angstrom
                   Q00  =   0.423240

H          x = -0.017990  y =  2.435675  z =  2.179964 angstrom
           Maximum rank =  0   Radius =  0.325 angstrom
                   Q00  =   0.104845

H          x =  1.262010  y =  1.985675  z =  3.311964 angstrom
           Maximum rank =  0   Radius =  0.325 angstrom
                   Q00  =   0.098253

H          x = -0.454840  y =  1.710886  z =  3.748466 angstrom
           Maximum rank =  0   Radius =  0.325 angstrom
                   Q00  =   0.117594

C          x = -1.195990  y = -1.186325  z = -0.062036 angstrom
           Maximum rank =  0   Radius =  0.650 angstrom
                   Q00  =   0.008175

C          x = -0.237990  y = -2.282325  z =  0.429964 angstrom
           Maximum rank =  0   Radius =  0.650 angstrom
                   Q00  =  -0.245563

C          x =  0.141010  y =  0.283675  z = -1.525036 angstrom
           Maximum rank =  0   Radius =  0.650 angstrom
                   Q00  =   1.077947

N          x = -0.780990  y = -0.653325  z = -1.362036 angstrom
           Maximum rank =  0   Radius =  0.650 angstrom
                   Q00  =  -0.508660

N          x =  0.458010  y =  0.699675  z = -2.732036 angstrom
           Maximum rank =  0   Radius =  0.650 angstrom
                   Q00  =  -0.595323

N          x =  0.752010  y =  0.807675  z = -0.481036 angstrom
           Maximum rank =  0   Radius =  0.650 angstrom
                   Q00  =  -0.614591

H          x = -2.205990  y = -1.570325  z = -0.173036 angstrom
           Maximum rank =  0   Radius =  0.325 angstrom
                   Q00  =   0.130160

H          x = -1.256990  y = -0.386325  z =  0.674964 angstrom
           Maximum rank =  0   Radius =  0.325 angstrom
                   Q00  =   0.093879

H          x = -0.210990  y = -2.271325  z =  1.520964 angstrom
           Maximum rank =  0   Radius =  0.325 angstrom
                   Q00  =   0.112834

H          x =  0.772010  y = -2.062325  z =  0.079964 angstrom
           Maximum rank =  0   Radius =  0.325 angstrom
                   Q00  =   0.085679

H          x = -1.233990  y = -1.014325  z = -2.198036 angstrom
           Maximum rank =  0   Radius =  0.325 angstrom
                   Q00  =   0.228009

H          x =  0.204010  y =  0.139675  z = -3.539036 angstrom
           Maximum rank =  0   Radius =  0.325 angstrom
                   Q00  =   0.260627

H          x =  1.142010  y =  1.428675  z = -2.846036 angstrom
           Maximum rank =  0   Radius =  0.325 angstrom
                   Q00  =   0.256988

H          x =  0.509010  y =  0.513675  z =  0.458964 angstrom
           Maximum rank =  0   Radius =  0.325 angstrom
                   Q00  =   0.325535

H          x =  1.477010  y =  1.497675  z = -0.602036 angstrom
           Maximum rank =  0   Radius =  0.325 angstrom
                   Q00  =   0.252074

H          x = -0.522230  y = -3.287175  z =  0.084301 angstrom
           Maximum rank =  0   Radius =  0.325 angstrom
                   Q00  =   0.114824

Total multipoles referred to origin at
           x =   0.000000,  y =    0.000000,  z =    0.000000 angstrom
                   Q00  =   1.000000

Finished at 13:40:38 on 28 Apr 2020

  DMA results are available in the Python driver through the
	  variable('DMA DISTRIBUTED MULTIPOLES')
  and
	  variable('DMA TOTAL MULTIPOLES')
  commands.

    Psi4 stopped on: Tuesday, 28 April 2020 01:40PM
    Psi4 wall time for execution: 0:01:28.69

*** Psi4 exiting successfully. Buy a developer a beer!
