                               Psi4 1.3.2 release

  ==> Input File <==

--------------------------------------------------------------------------
import numpy as np
set {scf_type pk
basis cc-pvdz
d_convergence 10
gdma_switch   0
gdma_limit    0
gdma_origin   [ 0.0,  0.0,  0.0 ]
}
molecule test {
    units Angstrom
    0 1
    --
    0 1
    C                2.592091882105762    -1.706144146300278    -3.063952993650290
    O                1.201091882105762    -1.442144146300278    -3.028952993650291
    H                1.079091882105762    -0.593144146300278    -3.498952993650291
    H                3.132091882105762    -0.995144146300278    -2.440952993650291
    H                2.927091882105762    -1.583144146300278    -4.095952993650291
    H                2.804181882105762    -2.734964146300277    -2.737542993650290
    C               -3.381908117894238     0.462855853699722     1.308047006349709
    C               -1.880908117894238    -0.861144146300278    -0.303952993650290
    C                0.168091882105762    -0.075144146300278     0.175047006349710
    C               -2.077908117894238     0.055855853699722     0.686047006349710
    C               -0.777908117894238     0.576855853699722     1.015047006349710
    C                1.534091882105762     0.199855853699722     0.233047006349710
    C                1.966091882105762     1.146855853699722     1.148047006349710
    C               -0.313908117894238     1.530855853699722     1.936047006349710
    C                1.056091882105762     1.807855853699722     1.994047006349710
    N               -0.540908117894238    -0.942144146300278    -0.615952993650291
    H               -0.146908117894238    -1.504144146300278    -1.366952993650290
    H               -2.660908117894238    -1.431144146300278    -0.791952993650290
    H                2.230091882105762    -0.306144146300278    -0.416952993650290
    H               -3.414908117894238     1.551855853699722     1.338047006349710
    H               -3.362908117894238     0.127855853699722     2.336047006349709
    H                3.018091882105763     1.392855853699722     1.193047006349710
    H               -1.010908117894238     2.041855853699722     2.584047006349709
    H                1.424091882105762     2.547855853699722     2.692047006349709
    H               -4.275838117894238     0.093625853699722     0.784067006349710

}
e, wfn = energy('scf', return_wfn=True)
gdma(wfn)
dmavals = variable('DMA DISTRIBUTED MULTIPOLES')
charges = np.array(dmavals)
print(charges)
np.save('SSI-130SER-153TRP-1-dimer.npy', np.array(charges))--------------------------------------------------------------------------

*** tstart() called on ds3
*** at Tue Apr 28 01:29:32 2020

   => Loading Basis Set <=

    Name: CC-PVDZ
    Role: ORBITAL
    Keyword: BASIS
    atoms 1, 7-15    entry C          line   138 file /theoryfs2/ds/metcalf/miniconda2/envs/tf2gpu/share/psi4/basis/cc-pvdz.gbs
    atoms 2          entry O          line   198 file /theoryfs2/ds/metcalf/miniconda2/envs/tf2gpu/share/psi4/basis/cc-pvdz.gbs
    atoms 3-6, 17-25 entry H          line    22 file /theoryfs2/ds/metcalf/miniconda2/envs/tf2gpu/share/psi4/basis/cc-pvdz.gbs
    atoms 16         entry N          line   168 file /theoryfs2/ds/metcalf/miniconda2/envs/tf2gpu/share/psi4/basis/cc-pvdz.gbs

         ---------------------------------------------------------
                                   SCF
               by Justin Turney, Rob Parrish, Andy Simmonett
                          and Daniel G. A. Smith
                              RHF Reference
                        1 Threads,    500 MiB Core
         ---------------------------------------------------------

  ==> Geometry <==

    Molecular point group: c1
    Full point group: C1

    Geometry (in Angstrom), charge = 0, multiplicity = 1:

       Center              X                  Y                   Z               Mass
    ------------   -----------------  -----------------  -----------------  -----------------
         C            2.592091882106    -1.706144146300    -3.063952993650    12.000000000000
         O            1.201091882106    -1.442144146300    -3.028952993650    15.994914619570
         H            1.079091882106    -0.593144146300    -3.498952993650     1.007825032230
         H            3.132091882106    -0.995144146300    -2.440952993650     1.007825032230
         H            2.927091882106    -1.583144146300    -4.095952993650     1.007825032230
         H            2.804181882106    -2.734964146300    -2.737542993650     1.007825032230
         C           -3.381908117894     0.462855853700     1.308047006350    12.000000000000
         C           -1.880908117894    -0.861144146300    -0.303952993650    12.000000000000
         C            0.168091882106    -0.075144146300     0.175047006350    12.000000000000
         C           -2.077908117894     0.055855853700     0.686047006350    12.000000000000
         C           -0.777908117894     0.576855853700     1.015047006350    12.000000000000
         C            1.534091882106     0.199855853700     0.233047006350    12.000000000000
         C            1.966091882106     1.146855853700     1.148047006350    12.000000000000
         C           -0.313908117894     1.530855853700     1.936047006350    12.000000000000
         C            1.056091882106     1.807855853700     1.994047006350    12.000000000000
         N           -0.540908117894    -0.942144146300    -0.615952993650    14.003074004430
         H           -0.146908117894    -1.504144146300    -1.366952993650     1.007825032230
         H           -2.660908117894    -1.431144146300    -0.791952993650     1.007825032230
         H            2.230091882106    -0.306144146300    -0.416952993650     1.007825032230
         H           -3.414908117894     1.551855853700     1.338047006350     1.007825032230
         H           -3.362908117894     0.127855853700     2.336047006350     1.007825032230
         H            3.018091882106     1.392855853700     1.193047006350     1.007825032230
         H           -1.010908117894     2.041855853700     2.584047006350     1.007825032230
         H            1.424091882106     2.547855853700     2.692047006350     1.007825032230
         H           -4.275838117894     0.093625853700     0.784067006350     1.007825032230

  Running in c1 symmetry.

  Rotational constants: A =      0.04151  B =      0.02033  C =      0.01392 [cm^-1]
  Rotational constants: A =   1244.46077  B =    609.54959  C =    417.17660 [MHz]
  Nuclear repulsion =  659.513961558863798

  Charge       = 0
  Multiplicity = 1
  Electrons    = 88
  Nalpha       = 44
  Nbeta        = 44

  ==> Algorithm <==

  SCF Algorithm Type is PK.
  DIIS enabled.
  MOM disabled.
  Fractional occupation disabled.
  Guess Type is SAD.
  Energy threshold   = 1.00e-06
  Density threshold  = 1.00e-10
  Integral threshold = 0.00e+00

  ==> Primary Basis <==

  Basis Set: CC-PVDZ
    Blend: CC-PVDZ
    Number of shells: 111
    Number of basis function: 233
    Number of Cartesian functions: 245
    Spherical Harmonics?: true
    Max angular momentum: 2

  ==> Pre-Iterations <==

   -------------------------------------------------------
    Irrep   Nso     Nmo     Nalpha   Nbeta   Ndocc  Nsocc
   -------------------------------------------------------
     A        233     233       0       0       0       0
   -------------------------------------------------------
    Total     233     233      44      44      44       0
   -------------------------------------------------------

  ==> Integral Setup <==

  Using integral reordering PK algorithm.
  Sizing the integral batches needed.
  Building batch lookup table.
   Calculation information:
      Number of atoms:                  25
      Number of AO shells:             111
      Number of primitives:            329
      Number of atomic orbitals:       245
      Number of basis functions:       233

      Integral cutoff                 1.00e-12
      Number of threads:                 1

	Batch   1 pq = [       0,    9405] index = [             0,44231715] size =     44231715
	Batch   2 pq = [    9405,   13301] index = [      44231715,88464951] size =     44233236
	Batch   3 pq = [   13301,   16290] index = [      88464951,132690195] size =     44225244
	Batch   4 pq = [   16290,   18810] index = [     132690195,176917455] size =     44227260
	Batch   5 pq = [   18810,   21030] index = [     176917455,221140965] size =     44223510
	Batch   6 pq = [   21030,   23037] index = [     221140965,265363203] size =     44222238
	Batch   7 pq = [   23037,   24883] index = [     265363203,309594286] size =     44231083
	Batch   8 pq = [   24883,   26601] index = [     309594286,353819901] size =     44225615
	Batch   9 pq = [   26601,   27261] index = [     353819901,371594691] size =     17774790
  Task number: 34
  Buffer size: 11059200
  Buffer per thread: 2
  We computed 18277034 shell quartets total.
  Whereas there are 19322436 unique shell quartets.

  ==> DiskJK: Disk-Based J/K Matrices <==

    J tasked:                  Yes
    K tasked:                  Yes
    wK tasked:                  No
    Memory [MiB]:              375
    Schwarz Cutoff:          1E-12

    OpenMP threads:              1

  Minimum eigenvalue in the overlap matrix is 2.4143952020E-04.
  Using Symmetric Orthogonalization.

  SCF Guess: Superposition of Atomic Densities via on-the-fly atomic UHF.

  ==> Iterations <==

                        Total Energy        Delta E     RMS |[F,P]|

   @RHF iter SAD:  -514.73267193753952   -5.14733e+02   0.00000e+00
   @RHF iter   1:  -515.33793043684716   -6.05258e-01   2.66260e-03 DIIS
   @RHF iter   2:  -515.54843528931110   -2.10505e-01   1.21971e-03 DIIS
   @RHF iter   3:  -515.58642730305257   -3.79920e-02   3.13271e-04 DIIS
   @RHF iter   4:  -515.58997089215904   -3.54359e-03   1.24100e-04 DIIS
   @RHF iter   5:  -515.59044434958616   -4.73457e-04   2.38780e-05 DIIS
   @RHF iter   6:  -515.59047421380455   -2.98642e-05   1.11756e-05 DIIS
   @RHF iter   7:  -515.59048147302838   -7.25922e-06   4.00122e-06 DIIS
   @RHF iter   8:  -515.59048336363946   -1.89061e-06   1.60218e-06 DIIS
   @RHF iter   9:  -515.59048372835480   -3.64715e-07   7.27774e-07 DIIS
   @RHF iter  10:  -515.59048379462001   -6.62652e-08   3.42814e-07 DIIS
   @RHF iter  11:  -515.59048381435287   -1.97329e-08   1.15344e-07 DIIS
   @RHF iter  12:  -515.59048381642572   -2.07285e-09   4.17978e-08 DIIS
   @RHF iter  13:  -515.59048381657715   -1.51431e-10   1.49166e-08 DIIS
   @RHF iter  14:  -515.59048381659215   -1.50067e-11   4.70338e-09 DIIS
   @RHF iter  15:  -515.59048381660239   -1.02318e-11   1.94508e-09 DIIS
   @RHF iter  16:  -515.59048381659386    8.52651e-12   1.00812e-09 DIIS
   @RHF iter  17:  -515.59048381659898   -5.11591e-12   4.93289e-10 DIIS
   @RHF iter  18:  -515.59048381659636    2.61480e-12   1.96720e-10 DIIS
   @RHF iter  19:  -515.59048381660000   -3.63798e-12   6.35105e-11 DIIS
  Energy and wave function converged.

  ==> Post-Iterations <==

    Orbital Energies [Eh]
    ---------------------

    Doubly Occupied:

       1A    -20.578668     2A    -15.582423     3A    -11.292623
       4A    -11.254965     5A    -11.253168     6A    -11.225693
       7A    -11.224262     8A    -11.222807     9A    -11.220110
      10A    -11.216193    11A    -11.213092    12A    -11.209052
      13A     -1.375365    14A     -1.278812    15A     -1.117445
      16A     -1.062943    17A     -0.987819    18A     -0.977282
      19A     -0.937417    20A     -0.922853    21A     -0.829812
      22A     -0.793361    23A     -0.742872    24A     -0.710354
      25A     -0.700688    26A     -0.652996    27A     -0.640434
      28A     -0.632180    29A     -0.613154    30A     -0.592921
      31A     -0.582496    32A     -0.578579    33A     -0.560900
      34A     -0.542333    35A     -0.528830    36A     -0.522434
      37A     -0.515051    38A     -0.487646    39A     -0.464474
      40A     -0.464220    41A     -0.451324    42A     -0.362976
      43A     -0.284969    44A     -0.266123

    Virtual:

      45A      0.132413    46A      0.164302    47A      0.175638
      48A      0.193292    49A      0.200946    50A      0.215823
      51A      0.223035    52A      0.236216    53A      0.242216
      54A      0.249539    55A      0.265170    56A      0.271672
      57A      0.284566    58A      0.291997    59A      0.296794
      60A      0.325257    61A      0.369285    62A      0.385486
      63A      0.392891    64A      0.417634    65A      0.427833
      66A      0.451112    67A      0.479652    68A      0.491636
      69A      0.508701    70A      0.518271    71A      0.603981
      72A      0.617171    73A      0.626109    74A      0.630791
      75A      0.637781    76A      0.658117    77A      0.681678
      78A      0.696549    79A      0.704068    80A      0.712778
      81A      0.727961    82A      0.738730    83A      0.744788
      84A      0.746536    85A      0.749133    86A      0.757573
      87A      0.767868    88A      0.787321    89A      0.793137
      90A      0.798183    91A      0.816536    92A      0.819423
      93A      0.843785    94A      0.847362    95A      0.865749
      96A      0.875788    97A      0.884341    98A      0.890849
      99A      0.896092   100A      0.899705   101A      0.905096
     102A      0.915419   103A      0.925374   104A      0.961079
     105A      0.970891   106A      0.979975   107A      0.983778
     108A      1.019326   109A      1.042729   110A      1.068150
     111A      1.080817   112A      1.085009   113A      1.119537
     114A      1.131052   115A      1.134746   116A      1.145190
     117A      1.156118   118A      1.169464   119A      1.185614
     120A      1.212257   121A      1.220652   122A      1.226860
     123A      1.236211   124A      1.248425   125A      1.260330
     126A      1.268996   127A      1.298184   128A      1.306561
     129A      1.310885   130A      1.333541   131A      1.340253
     132A      1.351042   133A      1.378701   134A      1.390064
     135A      1.404454   136A      1.448919   137A      1.483392
     138A      1.547303   139A      1.575622   140A      1.588906
     141A      1.600242   142A      1.625833   143A      1.641556
     144A      1.647040   145A      1.657330   146A      1.669312
     147A      1.674149   148A      1.694665   149A      1.704490
     150A      1.755477   151A      1.766302   152A      1.782821
     153A      1.791615   154A      1.819593   155A      1.826112
     156A      1.843640   157A      1.855271   158A      1.879738
     159A      1.889709   160A      1.891280   161A      1.897200
     162A      1.914268   163A      1.921311   164A      1.931126
     165A      1.939257   166A      1.950445   167A      1.968341
     168A      1.976046   169A      1.984426   170A      2.005063
     171A      2.013601   172A      2.023270   173A      2.034290
     174A      2.067592   175A      2.081402   176A      2.093458
     177A      2.105342   178A      2.110090   179A      2.136722
     180A      2.143266   181A      2.149573   182A      2.156272
     183A      2.165918   184A      2.183517   185A      2.185409
     186A      2.231196   187A      2.234493   188A      2.284644
     189A      2.304613   190A      2.306365   191A      2.326077
     192A      2.334424   193A      2.337439   194A      2.359013
     195A      2.367039   196A      2.402264   197A      2.450332
     198A      2.458700   199A      2.471392   200A      2.476785
     201A      2.549774   202A      2.605664   203A      2.624695
     204A      2.651256   205A      2.669930   206A      2.690859
     207A      2.720268   208A      2.732745   209A      2.760529
     210A      2.770764   211A      2.774576   212A      2.789717
     213A      2.805393   214A      2.819491   215A      2.823458
     216A      2.870450   217A      2.882780   218A      2.916781
     219A      2.989753   220A      3.042929   221A      3.058274
     222A      3.082249   223A      3.126855   224A      3.209913
     225A      3.285456   226A      3.310597   227A      3.350961
     228A      3.387599   229A      3.450657   230A      3.558314
     231A      3.752441   232A      3.945854   233A      4.049338

    Final Occupation by Irrep:
              A
    DOCC [    44 ]

  @RHF Final Energy:  -515.59048381660000

   => Energetics <=

    Nuclear Repulsion Energy =            659.5139615588637980
    One-Electron Energy =               -2008.8606566813632526
    Two-Electron Energy =                 833.7562113058995692
    Total Energy =                       -515.5904838165999990

Computation Completed

Properties will be evaluated at   0.000000,   0.000000,   0.000000 [a0]

Properties computed using the SCF density matrix

  Nuclear Dipole Moment: [e a0]
     X:     1.6407      Y:    -1.3091      Z:    -4.1582

  Electronic Dipole Moment: [e a0]
     X:    -1.1552      Y:     1.0580      Z:     2.9803

  Dipole Moment: [e a0]
     X:     0.4855      Y:    -0.2511      Z:    -1.1779     Total:     1.2985

  Dipole Moment: [D]
     X:     1.2340      Y:    -0.6381      Z:    -2.9939     Total:     3.3005

*** tstop() called on ds3 at Tue Apr 28 01:32:47 2020
Module time:
	user time   =     142.89 seconds =       2.38 minutes
	system time =      58.49 seconds =       0.97 minutes
	total time  =        195 seconds =       3.25 minutes
Total time:
	user time   =     142.89 seconds =       2.38 minutes
	system time =      58.49 seconds =       0.97 minutes
	total time  =        195 seconds =       3.25 minutes
                                     G D M A

                                 by Anthony Stone

                           version 2.2.06, 22 June 2011

               Distributed Multipoles from Gaussian wavefunctions

Starting at 1:32:47 on 28 Apr 2020

Using SCF density matrix from file ./SSI/SSI-130SER-153TRP-1-dimer.test.8639.fchk

                         Distributed Multipole Analysis

Standard DMA

Positions and radii in angstrom
Multipole moments in atomic units, ea_0^k for rank k

C          x =  2.592092  y = -1.706144  z = -3.063953 angstrom
           Maximum rank =  0   Radius =  0.650 angstrom
                   Q00  =  -0.038826

O          x =  1.201092  y = -1.442144  z = -3.028953 angstrom
           Maximum rank =  0   Radius =  0.650 angstrom
                   Q00  =  -0.599100

H          x =  1.079092  y = -0.593144  z = -3.498953 angstrom
           Maximum rank =  0   Radius =  0.325 angstrom
                   Q00  =   0.398074

H          x =  3.132092  y = -0.995144  z = -2.440953 angstrom
           Maximum rank =  0   Radius =  0.325 angstrom
                   Q00  =   0.063581

H          x =  2.927092  y = -1.583144  z = -4.095953 angstrom
           Maximum rank =  0   Radius =  0.325 angstrom
                   Q00  =   0.080384

H          x =  2.804182  y = -2.734964  z = -2.737543 angstrom
           Maximum rank =  0   Radius =  0.325 angstrom
                   Q00  =   0.119604

C          x = -3.381908  y =  0.462856  z =  1.308047 angstrom
           Maximum rank =  0   Radius =  0.650 angstrom
                   Q00  =  -0.200107

C          x = -1.880908  y = -0.861144  z = -0.303953 angstrom
           Maximum rank =  0   Radius =  0.650 angstrom
                   Q00  =   0.093754

C          x =  0.168092  y = -0.075144  z =  0.175047 angstrom
           Maximum rank =  0   Radius =  0.650 angstrom
                   Q00  =   0.300022

C          x = -2.077908  y =  0.055856  z =  0.686047 angstrom
           Maximum rank =  0   Radius =  0.650 angstrom
                   Q00  =  -0.136151

C          x = -0.777908  y =  0.576856  z =  1.015047 angstrom
           Maximum rank =  0   Radius =  0.650 angstrom
                   Q00  =  -0.069725

C          x =  1.534092  y =  0.199856  z =  0.233047 angstrom
           Maximum rank =  0   Radius =  0.650 angstrom
                   Q00  =  -0.110079

C          x =  1.966092  y =  1.146856  z =  1.148047 angstrom
           Maximum rank =  0   Radius =  0.650 angstrom
                   Q00  =  -0.074488

C          x = -0.313908  y =  1.530856  z =  1.936047 angstrom
           Maximum rank =  0   Radius =  0.650 angstrom
                   Q00  =  -0.096691

C          x =  1.056092  y =  1.807856  z =  1.994047 angstrom
           Maximum rank =  0   Radius =  0.650 angstrom
                   Q00  =  -0.089368

N          x = -0.540908  y = -0.942144  z = -0.615953 angstrom
           Maximum rank =  0   Radius =  0.650 angstrom
                   Q00  =  -0.521717

H          x = -0.146908  y = -1.504144  z = -1.366953 angstrom
           Maximum rank =  0   Radius =  0.325 angstrom
                   Q00  =   0.243186

H          x = -2.660908  y = -1.431144  z = -0.791953 angstrom
           Maximum rank =  0   Radius =  0.325 angstrom
                   Q00  =   0.097002

H          x =  2.230092  y = -0.306144  z = -0.416953 angstrom
           Maximum rank =  0   Radius =  0.325 angstrom
                   Q00  =   0.059314

H          x = -3.414908  y =  1.551856  z =  1.338047 angstrom
           Maximum rank =  0   Radius =  0.325 angstrom
                   Q00  =   0.094200

H          x = -3.362908  y =  0.127856  z =  2.336047 angstrom
           Maximum rank =  0   Radius =  0.325 angstrom
                   Q00  =   0.097183

H          x =  3.018092  y =  1.392856  z =  1.193047 angstrom
           Maximum rank =  0   Radius =  0.325 angstrom
                   Q00  =   0.058454

H          x = -1.010908  y =  2.041856  z =  2.584047 angstrom
           Maximum rank =  0   Radius =  0.325 angstrom
                   Q00  =   0.068839

H          x =  1.424092  y =  2.547856  z =  2.692047 angstrom
           Maximum rank =  0   Radius =  0.325 angstrom
                   Q00  =   0.057779

H          x = -4.275838  y =  0.093626  z =  0.784067 angstrom
           Maximum rank =  0   Radius =  0.325 angstrom
                   Q00  =   0.104874

Total multipoles referred to origin at
           x =   0.000000,  y =    0.000000,  z =    0.000000 angstrom
                   Q00  =  -0.000000

Finished at 1:32:47 on 28 Apr 2020

  DMA results are available in the Python driver through the
	  variable('DMA DISTRIBUTED MULTIPOLES')
  and
	  variable('DMA TOTAL MULTIPOLES')
  commands.

    Psi4 stopped on: Tuesday, 28 April 2020 01:32AM
    Psi4 wall time for execution: 0:03:15.49

*** Psi4 exiting successfully. Buy a developer a beer!
