                               Psi4 1.3.2 release

  ==> Input File <==

--------------------------------------------------------------------------
import numpy as np
set {scf_type pk
basis cc-pvdz
d_convergence 10
gdma_switch   0
gdma_limit    0
gdma_origin   [ 0.0,  0.0,  0.0 ]
}
molecule test {
    units Angstrom
    -1 1
    --
    -1 1
    C                0.223482284208329    -0.940669552330296    -0.733162206879213
    C                0.138482284208329    -1.050669552330296    -2.260162206879213
    C                1.482482284208329    -1.576669552330296    -0.165162206879213
    O                2.063482284208329    -2.475669552330296    -0.812162206879213
    O                1.884482284208329    -1.190669552330296     0.952837793120787
    H                0.189482284208329     0.105330447669704    -0.451162206879213
    H               -0.631517715791671    -1.393669552330296    -0.243162206879213
    H                0.517482284208329    -2.026669552330296    -2.565162206879213
    H                0.764102284208329    -0.272787552330296    -2.722262206879213
    H               -0.903627715791671    -1.014066552330297    -2.610362206879213
    C               -1.626517715791671     1.969330447669704     0.660837793120787
    C               -1.015517715791671     3.067330447669704     1.505837793120787
    C               -3.132517715791671     2.147330447669704     0.825837793120787
    H               -1.296517715791671     0.984330447669704     0.992837793120787
    H               -1.373517715791671     2.124330447669704    -0.388162206879213
    H               -0.983517715791671     2.738330447669704     2.542837793120787
    H               -0.015517715791671     3.341330447669704     1.178837793120787
    H               -3.634517715791671     1.975330447669704    -0.127162206879213
    H               -1.722707715791671     3.904962447669704     1.414937793120787
    H               -3.243447715791671     3.199272447669704     1.127637793120787
    H               -3.528137715791671     1.466551447669703     1.593937793120787

}
e, wfn = energy('scf', return_wfn=True)
gdma(wfn)
dmavals = variable('DMA DISTRIBUTED MULTIPOLES')
charges = np.array(dmavals)
print(charges)
np.save('SSI-076ASP-091PRO-1-dimer.npy', np.array(charges))--------------------------------------------------------------------------

*** tstart() called on ds3
*** at Mon Apr 27 14:19:43 2020

   => Loading Basis Set <=

    Name: CC-PVDZ
    Role: ORBITAL
    Keyword: BASIS
    atoms 1-3, 11-13  entry C          line   138 file /theoryfs2/ds/metcalf/miniconda2/envs/tf2gpu/share/psi4/basis/cc-pvdz.gbs
    atoms 4-5         entry O          line   198 file /theoryfs2/ds/metcalf/miniconda2/envs/tf2gpu/share/psi4/basis/cc-pvdz.gbs
    atoms 6-10, 14-21 entry H          line    22 file /theoryfs2/ds/metcalf/miniconda2/envs/tf2gpu/share/psi4/basis/cc-pvdz.gbs

         ---------------------------------------------------------
                                   SCF
               by Justin Turney, Rob Parrish, Andy Simmonett
                          and Daniel G. A. Smith
                              RHF Reference
                        1 Threads,    500 MiB Core
         ---------------------------------------------------------

  ==> Geometry <==

    Molecular point group: c1
    Full point group: C1

    Geometry (in Angstrom), charge = -1, multiplicity = 1:

       Center              X                  Y                   Z               Mass
    ------------   -----------------  -----------------  -----------------  -----------------
         C            0.223482284208    -0.940669552330    -0.733162206879    12.000000000000
         C            0.138482284208    -1.050669552330    -2.260162206879    12.000000000000
         C            1.482482284208    -1.576669552330    -0.165162206879    12.000000000000
         O            2.063482284208    -2.475669552330    -0.812162206879    15.994914619570
         O            1.884482284208    -1.190669552330     0.952837793121    15.994914619570
         H            0.189482284208     0.105330447670    -0.451162206879     1.007825032230
         H           -0.631517715792    -1.393669552330    -0.243162206879     1.007825032230
         H            0.517482284208    -2.026669552330    -2.565162206879     1.007825032230
         H            0.764102284208    -0.272787552330    -2.722262206879     1.007825032230
         H           -0.903627715792    -1.014066552330    -2.610362206879     1.007825032230
         C           -1.626517715792     1.969330447670     0.660837793121    12.000000000000
         C           -1.015517715792     3.067330447670     1.505837793121    12.000000000000
         C           -3.132517715792     2.147330447670     0.825837793121    12.000000000000
         H           -1.296517715792     0.984330447670     0.992837793121     1.007825032230
         H           -1.373517715792     2.124330447670    -0.388162206879     1.007825032230
         H           -0.983517715792     2.738330447670     2.542837793121     1.007825032230
         H           -0.015517715792     3.341330447670     1.178837793121     1.007825032230
         H           -3.634517715792     1.975330447670    -0.127162206879     1.007825032230
         H           -1.722707715792     3.904962447670     1.414937793121     1.007825032230
         H           -3.243447715792     3.199272447670     1.127637793121     1.007825032230
         H           -3.528137715792     1.466551447670     1.593937793121     1.007825032230

  Running in c1 symmetry.

  Rotational constants: A =      0.09685  B =      0.02012  C =      0.01769 [cm^-1]
  Rotational constants: A =   2903.48544  B =    603.04626  C =    530.25412 [MHz]
  Nuclear repulsion =  355.230929842622743

  Charge       = -1
  Multiplicity = 1
  Electrons    = 66
  Nalpha       = 33
  Nbeta        = 33

  ==> Algorithm <==

  SCF Algorithm Type is PK.
  DIIS enabled.
  MOM disabled.
  Fractional occupation disabled.
  Guess Type is SAD.
  Energy threshold   = 1.00e-06
  Density threshold  = 1.00e-10
  Integral threshold = 0.00e+00

  ==> Primary Basis <==

  Basis Set: CC-PVDZ
    Blend: CC-PVDZ
    Number of shells: 87
    Number of basis function: 177
    Number of Cartesian functions: 185
    Spherical Harmonics?: true
    Max angular momentum: 2

  ==> Pre-Iterations <==

   -------------------------------------------------------
    Irrep   Nso     Nmo     Nalpha   Nbeta   Ndocc  Nsocc
   -------------------------------------------------------
     A        177     177       0       0       0       0
   -------------------------------------------------------
    Total     177     177      33      33      33       0
   -------------------------------------------------------

  ==> Integral Setup <==

  Using integral reordering PK algorithm.
  Sizing the integral batches needed.
  Building batch lookup table.
   Calculation information:
      Number of atoms:                  21
      Number of AO shells:              87
      Number of primitives:            241
      Number of atomic orbitals:       185
      Number of basis functions:       177

      Integral cutoff                 1.00e-12
      Number of threads:                 1

	Batch   1 pq = [       0,    9405] index = [             0,44231715] size =     44231715
	Batch   2 pq = [    9405,   13301] index = [      44231715,88464951] size =     44233236
	Batch   3 pq = [   13301,   15753] index = [      88464951,124086381] size =     35621430
  Task number: 12
  Buffer size: 11059200
  Buffer per thread: 2
  We computed 5511701 shell quartets total.
  Whereas there are 7328706 unique shell quartets.

  ==> DiskJK: Disk-Based J/K Matrices <==

    J tasked:                  Yes
    K tasked:                  Yes
    wK tasked:                  No
    Memory [MiB]:              375
    Schwarz Cutoff:          1E-12

    OpenMP threads:              1

  Minimum eigenvalue in the overlap matrix is 3.6752277489E-03.
  Using Symmetric Orthogonalization.

  SCF Guess: Superposition of Atomic Densities via on-the-fly atomic UHF.

  ==> Iterations <==

                        Total Energy        Delta E     RMS |[F,P]|

   @RHF iter SAD:  -383.01153914663757   -3.83012e+02   0.00000e+00
   @RHF iter   1:  -384.20368539822533   -1.19215e+00   4.43211e-03 DIIS
   @RHF iter   2:  -384.45385691671538   -2.50172e-01   2.41202e-03 DIIS
   @RHF iter   3:  -384.52401491315948   -7.01580e-02   3.87476e-04 DIIS
   @RHF iter   4:  -384.52735303453755   -3.33812e-03   1.52179e-04 DIIS
   @RHF iter   5:  -384.52781506192707   -4.62027e-04   2.31787e-05 DIIS
   @RHF iter   6:  -384.52783017347809   -1.51116e-05   6.07569e-06 DIIS
   @RHF iter   7:  -384.52783110391925   -9.30441e-07   2.14087e-06 DIIS
   @RHF iter   8:  -384.52783119630851   -9.23893e-08   7.51539e-07 DIIS
   @RHF iter   9:  -384.52783120774393   -1.14354e-08   2.23546e-07 DIIS
   @RHF iter  10:  -384.52783120929797   -1.55404e-09   5.79603e-08 DIIS
   @RHF iter  11:  -384.52783120944281   -1.44837e-10   1.70345e-08 DIIS
   @RHF iter  12:  -384.52783120945412   -1.13118e-11   6.01294e-09 DIIS
   @RHF iter  13:  -384.52783120945583   -1.70530e-12   2.26394e-09 DIIS
   @RHF iter  14:  -384.52783120945486    9.66338e-13   7.94153e-10 DIIS
   @RHF iter  15:  -384.52783120945537   -5.11591e-13   2.57880e-10 DIIS
   @RHF iter  16:  -384.52783120945691   -1.53477e-12   9.94141e-11 DIIS
  Energy and wave function converged.

  ==> Post-Iterations <==

    Orbital Energies [Eh]
    ---------------------

    Doubly Occupied:

       1A    -20.256440     2A    -20.251215     3A    -11.130227
       4A    -11.123789     5A    -11.119508     6A    -11.108846
       7A    -11.068140     8A    -11.049323     9A     -1.145969
      10A     -1.030574    11A     -0.975199    12A     -0.866541
      13A     -0.828416    14A     -0.708636    15A     -0.700069
      16A     -0.545224    17A     -0.525889    18A     -0.504173
      19A     -0.456170    20A     -0.454020    21A     -0.428537
      22A     -0.427459    23A     -0.392024    24A     -0.384166
      25A     -0.375304    26A     -0.372610    27A     -0.360662
      28A     -0.350780    29A     -0.320538    30A     -0.294580
      31A     -0.179274    32A     -0.165187    33A     -0.155971

    Virtual:

      34A      0.271561    35A      0.304497    36A      0.311993
      37A      0.318304    38A      0.337869    39A      0.366547
      40A      0.367602    41A      0.373794    42A      0.399260
      43A      0.408659    44A      0.426227    45A      0.433670
      46A      0.447186    47A      0.468768    48A      0.504397
      49A      0.531789    50A      0.557689    51A      0.600098
      52A      0.657646    53A      0.686552    54A      0.698897
      55A      0.720904    56A      0.732334    57A      0.746840
      58A      0.760209    59A      0.768995    60A      0.835886
      61A      0.855889    62A      0.880488    63A      0.912545
      64A      0.938284    65A      0.947764    66A      0.967068
      67A      0.970099    68A      0.977187    69A      0.988829
      70A      0.991016    71A      0.998691    72A      1.002429
      73A      1.009827    74A      1.030738    75A      1.035583
      76A      1.040873    77A      1.045585    78A      1.055323
      79A      1.065325    80A      1.074649    81A      1.086384
      82A      1.130808    83A      1.133536    84A      1.154335
      85A      1.186304    86A      1.211788    87A      1.261019
      88A      1.279839    89A      1.308089    90A      1.314920
      91A      1.401567    92A      1.472947    93A      1.503959
      94A      1.507548    95A      1.552650    96A      1.567586
      97A      1.580945    98A      1.601078    99A      1.609513
     100A      1.643476   101A      1.686978   102A      1.695510
     103A      1.709486   104A      1.722461   105A      1.735346
     106A      1.807416   107A      1.811445   108A      1.826840
     109A      1.846415   110A      1.887764   111A      1.904498
     112A      1.919996   113A      1.957004   114A      1.971966
     115A      1.995706   116A      2.009792   117A      2.023614
     118A      2.028306   119A      2.047603   120A      2.048247
     121A      2.078638   122A      2.087060   123A      2.094111
     124A      2.096935   125A      2.119831   126A      2.120732
     127A      2.144394   128A      2.158626   129A      2.170911
     130A      2.198747   131A      2.224211   132A      2.231234
     133A      2.262939   134A      2.267743   135A      2.321894
     136A      2.331837   137A      2.378475   138A      2.395830
     139A      2.420947   140A      2.436777   141A      2.463060
     142A      2.487058   143A      2.509798   144A      2.518238
     145A      2.544158   146A      2.588925   147A      2.608350
     148A      2.641008   149A      2.657134   150A      2.725136
     151A      2.748090   152A      2.784180   153A      2.793084
     154A      2.829646   155A      2.842467   156A      2.865190
     157A      2.876309   158A      2.913121   159A      2.932928
     160A      2.936561   161A      2.991513   162A      3.000228
     163A      3.007771   164A      3.033455   165A      3.051912
     166A      3.144566   167A      3.178143   168A      3.252493
     169A      3.293868   170A      3.306025   171A      3.368451
     172A      3.647631   173A      3.782526   174A      3.834166
     175A      4.061508   176A      4.086778   177A      4.214693

    Final Occupation by Irrep:
              A
    DOCC [    33 ]

  @RHF Final Energy:  -384.52783120945691

   => Energetics <=

    Nuclear Repulsion Energy =            355.2309298426227429
    One-Electron Energy =               -1239.4065975103467281
    Two-Electron Energy =                 499.6478364582670224
    Total Energy =                       -384.5278312094569060

Computation Completed

Properties will be evaluated at   0.000000,   0.000000,   0.000000 [a0]

Properties computed using the SCF density matrix

  Nuclear Dipole Moment: [e a0]
     X:   -14.8511      Y:    14.1687      Z:    -0.2397

  Electronic Dipole Moment: [e a0]
     X:    11.2727      Y:   -10.9325      Z:     0.1658

  Dipole Moment: [e a0]
     X:    -3.5784      Y:     3.2363      Z:    -0.0739     Total:     4.8253

  Dipole Moment: [D]
     X:    -9.0954      Y:     8.2257      Z:    -0.1877     Total:    12.2648

*** tstop() called on ds3 at Mon Apr 27 14:21:31 2020
Module time:
	user time   =      34.99 seconds =       0.58 minutes
	system time =      16.41 seconds =       0.27 minutes
	total time  =        108 seconds =       1.80 minutes
Total time:
	user time   =      34.99 seconds =       0.58 minutes
	system time =      16.41 seconds =       0.27 minutes
	total time  =        108 seconds =       1.80 minutes
                                     G D M A

                                 by Anthony Stone

                           version 2.2.06, 22 June 2011

               Distributed Multipoles from Gaussian wavefunctions

Starting at 14:21:31 on 27 Apr 2020

Using SCF density matrix from file ./SSI/SSI-076ASP-091PRO-1-dimer.test.9203.fchk

                         Distributed Multipole Analysis

Standard DMA

Positions and radii in angstrom
Multipole moments in atomic units, ea_0^k for rank k

C          x =  0.223482  y = -0.940670  z = -0.733162 angstrom
           Maximum rank =  0   Radius =  0.650 angstrom
                   Q00  =  -0.153794

C          x =  0.138482  y = -1.050670  z = -2.260162 angstrom
           Maximum rank =  0   Radius =  0.650 angstrom
                   Q00  =  -0.213975

C          x =  1.482482  y = -1.576670  z = -0.165162 angstrom
           Maximum rank =  0   Radius =  0.650 angstrom
                   Q00  =   1.009652

O          x =  2.063482  y = -2.475670  z = -0.812162 angstrom
           Maximum rank =  0   Radius =  0.650 angstrom
                   Q00  =  -0.954070

O          x =  1.884482  y = -1.190670  z =  0.952838 angstrom
           Maximum rank =  0   Radius =  0.650 angstrom
                   Q00  =  -0.941756

H          x =  0.189482  y =  0.105330  z = -0.451162 angstrom
           Maximum rank =  0   Radius =  0.325 angstrom
                   Q00  =   0.022735

H          x = -0.631518  y = -1.393670  z = -0.243162 angstrom
           Maximum rank =  0   Radius =  0.325 angstrom
                   Q00  =   0.053911

H          x =  0.517482  y = -2.026670  z = -2.565162 angstrom
           Maximum rank =  0   Radius =  0.325 angstrom
                   Q00  =   0.099901

H          x =  0.764102  y = -0.272788  z = -2.722262 angstrom
           Maximum rank =  0   Radius =  0.325 angstrom
                   Q00  =   0.057065

H          x = -0.903628  y = -1.014067  z = -2.610362 angstrom
           Maximum rank =  0   Radius =  0.325 angstrom
                   Q00  =   0.016019

C          x = -1.626518  y =  1.969330  z =  0.660838 angstrom
           Maximum rank =  0   Radius =  0.650 angstrom
                   Q00  =  -0.077854

C          x = -1.015518  y =  3.067330  z =  1.505838 angstrom
           Maximum rank =  0   Radius =  0.650 angstrom
                   Q00  =  -0.205257

C          x = -3.132518  y =  2.147330  z =  0.825838 angstrom
           Maximum rank =  0   Radius =  0.650 angstrom
                   Q00  =  -0.240736

H          x = -1.296518  y =  0.984330  z =  0.992838 angstrom
           Maximum rank =  0   Radius =  0.325 angstrom
                   Q00  =   0.084692

H          x = -1.373518  y =  2.124330  z = -0.388162 angstrom
           Maximum rank =  0   Radius =  0.325 angstrom
                   Q00  =   0.049851

H          x = -0.983518  y =  2.738330  z =  2.542838 angstrom
           Maximum rank =  0   Radius =  0.325 angstrom
                   Q00  =   0.076236

H          x = -0.015518  y =  3.341330  z =  1.178838 angstrom
           Maximum rank =  0   Radius =  0.325 angstrom
                   Q00  =   0.090040

H          x = -3.634518  y =  1.975330  z = -0.127162 angstrom
           Maximum rank =  0   Radius =  0.325 angstrom
                   Q00  =   0.079963

H          x = -1.722708  y =  3.904962  z =  1.414938 angstrom
           Maximum rank =  0   Radius =  0.325 angstrom
                   Q00  =   0.025097

H          x = -3.243448  y =  3.199272  z =  1.127638 angstrom
           Maximum rank =  0   Radius =  0.325 angstrom
                   Q00  =   0.046342

H          x = -3.528138  y =  1.466551  z =  1.593938 angstrom
           Maximum rank =  0   Radius =  0.325 angstrom
                   Q00  =   0.075939

Total multipoles referred to origin at
           x =   0.000000,  y =    0.000000,  z =    0.000000 angstrom
                   Q00  =  -1.000000

Finished at 14:21:31 on 27 Apr 2020

  DMA results are available in the Python driver through the
	  variable('DMA DISTRIBUTED MULTIPOLES')
  and
	  variable('DMA TOTAL MULTIPOLES')
  commands.

    Psi4 stopped on: Monday, 27 April 2020 02:21PM
    Psi4 wall time for execution: 0:01:48.08

*** Psi4 exiting successfully. Buy a developer a beer!
