                               Psi4 1.3.2 release

  ==> Input File <==

--------------------------------------------------------------------------
import numpy as np
set {scf_type pk
basis cc-pvdz
d_convergence 10
gdma_switch   0
gdma_limit    0
gdma_origin   [ 0.0,  0.0,  0.0 ]
}
molecule test {
    units Angstrom
    0 1
    --
    0 1
    C                2.476074730649456     1.619004634069291     1.277908180368828
    C               -0.044925269350544    -1.043995365930710     0.370908180368828
    C               -1.136925269350544    -0.596995365930709     1.092908180368828
    C                1.143074730649456    -0.320995365930710     0.450908180368828
    C                1.210074730649456     0.817004634069290     1.238908180368828
    C               -1.083925269350544     0.537004634069291     1.888908180368828
    C                0.098074730649456     1.254004634069291     1.968908180368828
    H               -0.113925269350544    -1.926995365930709    -0.248091819631172
    H               -2.063925269350544    -1.150995365930709     1.038908180368828
    H                2.005074730649456    -0.645995365930710    -0.114091819631172
    H               -1.954925269350544     0.858004634069291     2.440908180368828
    H                2.212074730649457     2.676004634069291     1.238908180368828
    H                3.038074730649456     1.401004634069291     0.367908180368828
    H                0.151074730649456     2.146004634069290     2.576908180368828
    H                3.150384730649457     1.457487634069290     2.131848180368828
    C               -0.673925269350544    -0.750995365930709    -3.295091819631171
    C               -1.884925269350544    -1.376995365930710    -3.956091819631172
    H               -0.949925269350544    -0.346995365930710    -2.320091819631172
    H                0.105074730649456    -1.501995365930709    -3.162091819631172
    H               -0.278925269350544     0.049004634069290    -3.917091819631172
    H               -1.584925269350544    -1.719995365930709    -4.940091819631171
    H               -2.717787269350544    -0.666487365930709    -4.063421819631172
    H               -2.219924269350543    -2.259783365930710    -3.391771819631172

}
e, wfn = energy('scf', return_wfn=True)
gdma(wfn)
dmavals = variable('DMA DISTRIBUTED MULTIPOLES')
charges = np.array(dmavals)
print(charges)
np.save('SSI-103PHE-127LEU-1-dimer.npy', np.array(charges))--------------------------------------------------------------------------

*** tstart() called on ds3
*** at Mon Apr 27 01:19:32 2020

   => Loading Basis Set <=

    Name: CC-PVDZ
    Role: ORBITAL
    Keyword: BASIS
    atoms 1-7, 16-17  entry C          line   138 file /theoryfs2/ds/metcalf/miniconda2/envs/tf2gpu/share/psi4/basis/cc-pvdz.gbs
    atoms 8-15, 18-23 entry H          line    22 file /theoryfs2/ds/metcalf/miniconda2/envs/tf2gpu/share/psi4/basis/cc-pvdz.gbs

         ---------------------------------------------------------
                                   SCF
               by Justin Turney, Rob Parrish, Andy Simmonett
                          and Daniel G. A. Smith
                              RHF Reference
                        1 Threads,    500 MiB Core
         ---------------------------------------------------------

  ==> Geometry <==

    Molecular point group: c1
    Full point group: C1

    Geometry (in Angstrom), charge = 0, multiplicity = 1:

       Center              X                  Y                   Z               Mass
    ------------   -----------------  -----------------  -----------------  -----------------
         C            2.476074730649     1.619004634069     1.277908180369    12.000000000000
         C           -0.044925269351    -1.043995365931     0.370908180369    12.000000000000
         C           -1.136925269351    -0.596995365931     1.092908180369    12.000000000000
         C            1.143074730649    -0.320995365931     0.450908180369    12.000000000000
         C            1.210074730649     0.817004634069     1.238908180369    12.000000000000
         C           -1.083925269351     0.537004634069     1.888908180369    12.000000000000
         C            0.098074730649     1.254004634069     1.968908180369    12.000000000000
         H           -0.113925269351    -1.926995365931    -0.248091819631     1.007825032230
         H           -2.063925269351    -1.150995365931     1.038908180369     1.007825032230
         H            2.005074730649    -0.645995365931    -0.114091819631     1.007825032230
         H           -1.954925269351     0.858004634069     2.440908180369     1.007825032230
         H            2.212074730649     2.676004634069     1.238908180369     1.007825032230
         H            3.038074730649     1.401004634069     0.367908180369     1.007825032230
         H            0.151074730649     2.146004634069     2.576908180369     1.007825032230
         H            3.150384730649     1.457487634069     2.131848180369     1.007825032230
         C           -0.673925269351    -0.750995365931    -3.295091819631    12.000000000000
         C           -1.884925269351    -1.376995365931    -3.956091819631    12.000000000000
         H           -0.949925269351    -0.346995365931    -2.320091819631     1.007825032230
         H            0.105074730649    -1.501995365931    -3.162091819631     1.007825032230
         H           -0.278925269351     0.049004634069    -3.917091819631     1.007825032230
         H           -1.584925269351    -1.719995365931    -4.940091819631     1.007825032230
         H           -2.717787269351    -0.666487365931    -4.063421819631     1.007825032230
         H           -2.219924269351    -2.259783365931    -3.391771819631     1.007825032230

  Running in c1 symmetry.

  Rotational constants: A =      0.07823  B =      0.02166  C =      0.01868 [cm^-1]
  Rotational constants: A =   2345.40185  B =    649.44279  C =    560.11921 [MHz]
  Nuclear repulsion =  402.230036600391429

  Charge       = 0
  Multiplicity = 1
  Electrons    = 68
  Nalpha       = 34
  Nbeta        = 34

  ==> Algorithm <==

  SCF Algorithm Type is PK.
  DIIS enabled.
  MOM disabled.
  Fractional occupation disabled.
  Guess Type is SAD.
  Energy threshold   = 1.00e-06
  Density threshold  = 1.00e-10
  Integral threshold = 0.00e+00

  ==> Primary Basis <==

  Basis Set: CC-PVDZ
    Blend: CC-PVDZ
    Number of shells: 96
    Number of basis function: 196
    Number of Cartesian functions: 205
    Spherical Harmonics?: true
    Max angular momentum: 2

  ==> Pre-Iterations <==

   -------------------------------------------------------
    Irrep   Nso     Nmo     Nalpha   Nbeta   Ndocc  Nsocc
   -------------------------------------------------------
     A        196     196       0       0       0       0
   -------------------------------------------------------
    Total     196     196      34      34      34       0
   -------------------------------------------------------

  ==> Integral Setup <==

  Using integral reordering PK algorithm.
  Sizing the integral batches needed.
  Building batch lookup table.
   Calculation information:
      Number of atoms:                  23
      Number of AO shells:              96
      Number of primitives:            268
      Number of atomic orbitals:       205
      Number of basis functions:       196

      Integral cutoff                 1.00e-12
      Number of threads:                 1

	Batch   1 pq = [       0,    9405] index = [             0,44231715] size =     44231715
	Batch   2 pq = [    9405,   13301] index = [      44231715,88464951] size =     44233236
	Batch   3 pq = [   13301,   16290] index = [      88464951,132690195] size =     44225244
	Batch   4 pq = [   16290,   18810] index = [     132690195,176917455] size =     44227260
	Batch   5 pq = [   18810,   19306] index = [     176917455,186370471] size =      9453016
  Task number: 17
  Buffer size: 11059200
  Buffer per thread: 2
  We computed 8820391 shell quartets total.
  Whereas there are 10841496 unique shell quartets.

  ==> DiskJK: Disk-Based J/K Matrices <==

    J tasked:                  Yes
    K tasked:                  Yes
    wK tasked:                  No
    Memory [MiB]:              375
    Schwarz Cutoff:          1E-12

    OpenMP threads:              1

  Minimum eigenvalue in the overlap matrix is 3.1099103660E-04.
  Using Symmetric Orthogonalization.

  SCF Guess: Superposition of Atomic Densities via on-the-fly atomic UHF.

  ==> Iterations <==

                        Total Energy        Delta E     RMS |[F,P]|

   @RHF iter SAD:  -347.93977905555732   -3.47940e+02   0.00000e+00
   @RHF iter   1:  -348.76252098963556   -8.22742e-01   2.92334e-03 DIIS
   @RHF iter   2:  -348.95754998950207   -1.95029e-01   1.21994e-03 DIIS
   @RHF iter   3:  -348.98856834320372   -3.10184e-02   2.60031e-04 DIIS
   @RHF iter   4:  -348.99105818703509   -2.48984e-03   5.53313e-05 DIIS
   @RHF iter   5:  -348.99113725242501   -7.90654e-05   1.77094e-05 DIIS
   @RHF iter   6:  -348.99114509740986   -7.84498e-06   4.77636e-06 DIIS
   @RHF iter   7:  -348.99114578058538   -6.83176e-07   1.36951e-06 DIIS
   @RHF iter   8:  -348.99114585731934   -7.67340e-08   4.20055e-07 DIIS
   @RHF iter   9:  -348.99114587405103   -1.67317e-08   2.03726e-07 DIIS
   @RHF iter  10:  -348.99114587898612   -4.93509e-09   9.04267e-08 DIIS
   @RHF iter  11:  -348.99114588023406   -1.24794e-09   2.53775e-08 DIIS
   @RHF iter  12:  -348.99114588030062   -6.65636e-11   9.29476e-09 DIIS
   @RHF iter  13:  -348.99114588030608   -5.45697e-12   3.39057e-09 DIIS
   @RHF iter  14:  -348.99114588030602    5.68434e-14   8.22875e-10 DIIS
   @RHF iter  15:  -348.99114588030716   -1.13687e-12   3.85681e-10 DIIS
   @RHF iter  16:  -348.99114588030511    2.04636e-12   1.40195e-10 DIIS
   @RHF iter  17:  -348.99114588030574   -6.25278e-13   5.96509e-11 DIIS
  Energy and wave function converged.

  ==> Post-Iterations <==

    Orbital Energies [Eh]
    ---------------------

    Doubly Occupied:

       1A    -11.239031     2A    -11.234597     3A    -11.234087
       4A    -11.230626     5A    -11.229579     6A    -11.228587
       7A    -11.226459     8A    -11.215212     9A    -11.211463
      10A     -1.155153    11A     -1.044711    12A     -1.018885
      13A     -1.015053    14A     -0.928875    15A     -0.833488
      16A     -0.826756    17A     -0.795002    18A     -0.691560
      19A     -0.632425    20A     -0.631678    21A     -0.596948
      22A     -0.596225    23A     -0.587704    24A     -0.575166
      25A     -0.557337    26A     -0.531488    27A     -0.502069
      28A     -0.490166    29A     -0.488426    30A     -0.482536
      31A     -0.478303    32A     -0.477149    33A     -0.333937
      34A     -0.321281

    Virtual:

      35A      0.134742    36A      0.142505    37A      0.172059
      38A      0.192753    39A      0.207192    40A      0.215541
      41A      0.236820    42A      0.244004    43A      0.251572
      44A      0.260326    45A      0.266987    46A      0.279493
      47A      0.281280    48A      0.285667    49A      0.302464
      50A      0.307205    51A      0.367937    52A      0.378673
      53A      0.402158    54A      0.456007    55A      0.462703
      56A      0.478168    57A      0.494928    58A      0.567344
      59A      0.588080    60A      0.601389    61A      0.601941
      62A      0.614436    63A      0.640752    64A      0.662511
      65A      0.682943    66A      0.687507    67A      0.690858
      68A      0.705736    69A      0.720557    70A      0.738105
      71A      0.742252    72A      0.750106    73A      0.762300
      74A      0.769564    75A      0.783103    76A      0.803364
      77A      0.833051    78A      0.862755    79A      0.864555
      80A      0.865006    81A      0.878966    82A      0.889946
      83A      0.894638    84A      0.896031    85A      0.898787
      86A      0.902479    87A      0.907683    88A      0.921777
      89A      0.932830    90A      0.936485    91A      0.943616
      92A      0.955501    93A      0.984273    94A      1.003800
      95A      1.024680    96A      1.051702    97A      1.118681
      98A      1.130739    99A      1.134412   100A      1.142507
     101A      1.155631   102A      1.166031   103A      1.188518
     104A      1.237850   105A      1.243360   106A      1.247178
     107A      1.253000   108A      1.266833   109A      1.305968
     110A      1.311972   111A      1.318586   112A      1.336161
     113A      1.407566   114A      1.477663   115A      1.487001
     116A      1.501047   117A      1.512922   118A      1.550668
     119A      1.576158   120A      1.606905   121A      1.686474
     122A      1.694187   123A      1.699233   124A      1.704759
     125A      1.732873   126A      1.757520   127A      1.763576
     128A      1.789233   129A      1.818617   130A      1.861794
     131A      1.864444   132A      1.877196   133A      1.888630
     134A      1.902482   135A      1.906052   136A      1.913663
     137A      1.918493   138A      1.924729   139A      1.941887
     140A      1.950800   141A      1.953505   142A      1.956237
     143A      1.965563   144A      1.968726   145A      1.978853
     146A      1.988448   147A      1.994857   148A      2.001381
     149A      2.043691   150A      2.054335   151A      2.069686
     152A      2.095430   153A      2.113852   154A      2.128945
     155A      2.147649   156A      2.162382   157A      2.165955
     158A      2.184103   159A      2.188652   160A      2.242549
     161A      2.276526   162A      2.297753   163A      2.305153
     164A      2.310656   165A      2.320919   166A      2.325767
     167A      2.335465   168A      2.457213   169A      2.464878
     170A      2.474199   171A      2.476918   172A      2.511639
     173A      2.550611   174A      2.560545   175A      2.586458
     176A      2.616941   177A      2.742382   178A      2.760540
     179A      2.764942   180A      2.767014   181A      2.789930
     182A      2.796518   183A      2.806638   184A      2.861409
     185A      2.867387   186A      2.871984   187A      2.877625
     188A      2.955140   189A      2.968722   190A      2.978900
     191A      3.025889   192A      3.038018   193A      3.158291
     194A      3.209827   195A      3.312168   196A      3.985786

    Final Occupation by Irrep:
              A
    DOCC [    34 ]

  @RHF Final Energy:  -348.99114588030574

   => Energetics <=

    Nuclear Repulsion Energy =            402.2300366003914291
    One-Electron Energy =               -1267.1584433949130926
    Two-Electron Energy =                 515.9372609142158126
    Total Energy =                       -348.9911458803057940

Computation Completed

Properties will be evaluated at   0.000000,   0.000000,   0.000000 [a0]

Properties computed using the SCF density matrix

  Nuclear Dipole Moment: [e a0]
     X:    -1.1461      Y:    -1.5297      Z:   -11.5884

  Electronic Dipole Moment: [e a0]
     X:     1.2471      Y:     1.6228      Z:    11.6143

  Dipole Moment: [e a0]
     X:     0.1011      Y:     0.0931      Z:     0.0259     Total:     0.1398

  Dipole Moment: [D]
     X:     0.2568      Y:     0.2366      Z:     0.0658     Total:     0.3554

*** tstop() called on ds3 at Mon Apr 27 01:20:53 2020
Module time:
	user time   =      57.12 seconds =       0.95 minutes
	system time =      26.74 seconds =       0.45 minutes
	total time  =         81 seconds =       1.35 minutes
Total time:
	user time   =      57.12 seconds =       0.95 minutes
	system time =      26.74 seconds =       0.45 minutes
	total time  =         81 seconds =       1.35 minutes
                                     G D M A

                                 by Anthony Stone

                           version 2.2.06, 22 June 2011

               Distributed Multipoles from Gaussian wavefunctions

Starting at 1:20:53 on 27 Apr 2020

Using SCF density matrix from file ./SSI/SSI-103PHE-127LEU-1-dimer.test.12379.fchk

                         Distributed Multipole Analysis

Standard DMA

Positions and radii in angstrom
Multipole moments in atomic units, ea_0^k for rank k

C          x =  2.476075  y =  1.619005  z =  1.277908 angstrom
           Maximum rank =  0   Radius =  0.650 angstrom
                   Q00  =  -0.199127

C          x = -0.044925  y = -1.043995  z =  0.370908 angstrom
           Maximum rank =  0   Radius =  0.650 angstrom
                   Q00  =  -0.072838

C          x = -1.136925  y = -0.596995  z =  1.092908 angstrom
           Maximum rank =  0   Radius =  0.650 angstrom
                   Q00  =   0.005822

C          x =  1.143075  y = -0.320995  z =  0.450908 angstrom
           Maximum rank =  0   Radius =  0.650 angstrom
                   Q00  =  -0.087869

C          x =  1.210075  y =  0.817005  z =  1.238908 angstrom
           Maximum rank =  0   Radius =  0.650 angstrom
                   Q00  =  -0.070709

C          x = -1.083925  y =  0.537005  z =  1.888908 angstrom
           Maximum rank =  0   Radius =  0.650 angstrom
                   Q00  =  -0.071752

C          x =  0.098075  y =  1.254005  z =  1.968908 angstrom
           Maximum rank =  0   Radius =  0.650 angstrom
                   Q00  =  -0.099648

H          x = -0.113925  y = -1.926995  z = -0.248092 angstrom
           Maximum rank =  0   Radius =  0.325 angstrom
                   Q00  =   0.067718

H          x = -2.063925  y = -1.150995  z =  1.038908 angstrom
           Maximum rank =  0   Radius =  0.325 angstrom
                   Q00  =   0.055351

H          x =  2.005075  y = -0.645995  z = -0.114092 angstrom
           Maximum rank =  0   Radius =  0.325 angstrom
                   Q00  =   0.058566

H          x = -1.954925  y =  0.858005  z =  2.440908 angstrom
           Maximum rank =  0   Radius =  0.325 angstrom
                   Q00  =   0.064551

H          x =  2.212075  y =  2.676005  z =  1.238908 angstrom
           Maximum rank =  0   Radius =  0.325 angstrom
                   Q00  =   0.095400

H          x =  3.038075  y =  1.401005  z =  0.367908 angstrom
           Maximum rank =  0   Radius =  0.325 angstrom
                   Q00  =   0.092707

H          x =  0.151075  y =  2.146005  z =  2.576908 angstrom
           Maximum rank =  0   Radius =  0.325 angstrom
                   Q00  =   0.058953

H          x =  3.150385  y =  1.457488  z =  2.131848 angstrom
           Maximum rank =  0   Radius =  0.325 angstrom
                   Q00  =   0.103436

C          x = -0.673925  y = -0.750995  z = -3.295092 angstrom
           Maximum rank =  0   Radius =  0.650 angstrom
                   Q00  =  -0.231449

C          x = -1.884925  y = -1.376995  z = -3.956092 angstrom
           Maximum rank =  0   Radius =  0.650 angstrom
                   Q00  =  -0.235036

H          x = -0.949925  y = -0.346995  z = -2.320092 angstrom
           Maximum rank =  0   Radius =  0.325 angstrom
                   Q00  =   0.089139

H          x =  0.105075  y = -1.501995  z = -3.162092 angstrom
           Maximum rank =  0   Radius =  0.325 angstrom
                   Q00  =   0.071718

H          x = -0.278925  y =  0.049005  z = -3.917092 angstrom
           Maximum rank =  0   Radius =  0.325 angstrom
                   Q00  =   0.077601

H          x = -1.584925  y = -1.719995  z = -4.940092 angstrom
           Maximum rank =  0   Radius =  0.325 angstrom
                   Q00  =   0.073966

H          x = -2.717787  y = -0.666487  z = -4.063422 angstrom
           Maximum rank =  0   Radius =  0.325 angstrom
                   Q00  =   0.080129

H          x = -2.219924  y = -2.259783  z = -3.391772 angstrom
           Maximum rank =  0   Radius =  0.325 angstrom
                   Q00  =   0.073370

Total multipoles referred to origin at
           x =   0.000000,  y =    0.000000,  z =    0.000000 angstrom
                   Q00  =  -0.000000

Finished at 1:20:53 on 27 Apr 2020

  DMA results are available in the Python driver through the
	  variable('DMA DISTRIBUTED MULTIPOLES')
  and
	  variable('DMA TOTAL MULTIPOLES')
  commands.

    Psi4 stopped on: Monday, 27 April 2020 01:20AM
    Psi4 wall time for execution: 0:01:21.20

*** Psi4 exiting successfully. Buy a developer a beer!
