                               Psi4 1.3.2 release

  ==> Input File <==

--------------------------------------------------------------------------
import numpy as np
set {scf_type pk
basis cc-pvdz
d_convergence 10
gdma_switch   0
gdma_limit    0
gdma_origin   [ 0.0,  0.0,  0.0 ]
}
molecule test {
    units Angstrom
    0 1
    --
    0 1
    C                0.180701216620244     1.219026291951837     1.409304801652789
    C                1.390701216620244     2.098026291951837     1.724304801652789
    C                0.074701216620244     0.805026291951837    -0.021695198347211
    C               -0.618298783379756     1.435026291951837    -1.010695198347211
    C                0.688701216620244    -0.341973708048163    -0.628695198347211
    C                0.317701216620244    -0.345973708048163    -2.000695198347211
    C                1.516701216620244    -1.367973708048163    -0.153695198347211
    C                0.745701216620244    -1.326973708048163    -2.887695198347211
    C                1.942701216620244    -2.356973708048163    -1.040695198347211
    C                1.563701216620244    -2.329973708048163    -2.391695198347211
    N               -0.478298783379756     0.750026291951837    -2.195695198347211
    H                0.202701216620244     0.331026291951837     2.032304801652789
    H               -0.716298783379756     1.787026291951837     1.650304801652790
    H                1.386701216620244     2.961026291951837     1.057304801652789
    H               -1.181298783379756     2.352026291951837    -0.880695198347211
    H               -0.792298783379756     1.091026291951837    -3.108695198347211
    H                1.845701216620244    -1.366973708048163     0.871304801652789
    H                0.472701216620244    -1.283973708048163    -3.931695198347211
    H                2.586701216620244    -3.138973708048162    -0.677695198347211
    H                1.979701216620244    -3.063973708048163    -3.057695198347211
    H                2.315351216620244     1.509200291951837     1.633194801652789
    H                1.358701216620244     2.439833291951838     2.769361801652789
    C               -2.462298783379756     0.562026291951837     3.737304801652789
    C               -3.960298783379756     0.500026291951837     4.010304801652789
    H               -2.240298783379756     1.486026291951837     3.210304801652789
    H               -1.909298783379756     0.562026291951837     4.676304801652790
    H               -2.159298783379756    -0.289973708048163     3.132304801652789
    H               -4.243298783379757     1.423026291951837     4.515304801652789
    H               -4.509628783379756     0.399887891951837     3.062566801652789
    H               -4.187248783379756    -0.346339508048163     4.675254801652789

}
e, wfn = energy('scf', return_wfn=True)
gdma(wfn)
dmavals = variable('DMA DISTRIBUTED MULTIPOLES')
charges = np.array(dmavals)
print(charges)
np.save('SSI-104TRP-147LEU-1-dimer.npy', np.array(charges))--------------------------------------------------------------------------

*** tstart() called on ds3
*** at Sun Apr 26 21:10:43 2020

   => Loading Basis Set <=

    Name: CC-PVDZ
    Role: ORBITAL
    Keyword: BASIS
    atoms 1-10, 23-24  entry C          line   138 file /theoryfs2/ds/metcalf/miniconda2/envs/tf2gpu/share/psi4/basis/cc-pvdz.gbs
    atoms 11           entry N          line   168 file /theoryfs2/ds/metcalf/miniconda2/envs/tf2gpu/share/psi4/basis/cc-pvdz.gbs
    atoms 12-22, 25-30 entry H          line    22 file /theoryfs2/ds/metcalf/miniconda2/envs/tf2gpu/share/psi4/basis/cc-pvdz.gbs

         ---------------------------------------------------------
                                   SCF
               by Justin Turney, Rob Parrish, Andy Simmonett
                          and Daniel G. A. Smith
                              RHF Reference
                        1 Threads,    500 MiB Core
         ---------------------------------------------------------

  ==> Geometry <==

    Molecular point group: c1
    Full point group: C1

    Geometry (in Angstrom), charge = 0, multiplicity = 1:

       Center              X                  Y                   Z               Mass
    ------------   -----------------  -----------------  -----------------  -----------------
         C            0.180701216620     1.219026291952     1.409304801653    12.000000000000
         C            1.390701216620     2.098026291952     1.724304801653    12.000000000000
         C            0.074701216620     0.805026291952    -0.021695198347    12.000000000000
         C           -0.618298783380     1.435026291952    -1.010695198347    12.000000000000
         C            0.688701216620    -0.341973708048    -0.628695198347    12.000000000000
         C            0.317701216620    -0.345973708048    -2.000695198347    12.000000000000
         C            1.516701216620    -1.367973708048    -0.153695198347    12.000000000000
         C            0.745701216620    -1.326973708048    -2.887695198347    12.000000000000
         C            1.942701216620    -2.356973708048    -1.040695198347    12.000000000000
         C            1.563701216620    -2.329973708048    -2.391695198347    12.000000000000
         N           -0.478298783380     0.750026291952    -2.195695198347    14.003074004430
         H            0.202701216620     0.331026291952     2.032304801653     1.007825032230
         H           -0.716298783380     1.787026291952     1.650304801653     1.007825032230
         H            1.386701216620     2.961026291952     1.057304801653     1.007825032230
         H           -1.181298783380     2.352026291952    -0.880695198347     1.007825032230
         H           -0.792298783380     1.091026291952    -3.108695198347     1.007825032230
         H            1.845701216620    -1.366973708048     0.871304801653     1.007825032230
         H            0.472701216620    -1.283973708048    -3.931695198347     1.007825032230
         H            2.586701216620    -3.138973708048    -0.677695198347     1.007825032230
         H            1.979701216620    -3.063973708048    -3.057695198347     1.007825032230
         H            2.315351216620     1.509200291952     1.633194801653     1.007825032230
         H            1.358701216620     2.439833291952     2.769361801653     1.007825032230
         C           -2.462298783380     0.562026291952     3.737304801653    12.000000000000
         C           -3.960298783380     0.500026291952     4.010304801653    12.000000000000
         H           -2.240298783380     1.486026291952     3.210304801653     1.007825032230
         H           -1.909298783380     0.562026291952     4.676304801653     1.007825032230
         H           -2.159298783380    -0.289973708048     3.132304801653     1.007825032230
         H           -4.243298783380     1.423026291952     4.515304801653     1.007825032230
         H           -4.509628783380     0.399887891952     3.062566801653     1.007825032230
         H           -4.187248783380    -0.346339508048     4.675254801653     1.007825032230

  Running in c1 symmetry.

  Rotational constants: A =      0.03636  B =      0.01125  C =      0.01112 [cm^-1]
  Rotational constants: A =   1090.04841  B =    337.13208  C =    333.29799 [MHz]
  Nuclear repulsion =  736.327632658878542

  Charge       = 0
  Multiplicity = 1
  Electrons    = 96
  Nalpha       = 48
  Nbeta        = 48

  ==> Algorithm <==

  SCF Algorithm Type is PK.
  DIIS enabled.
  MOM disabled.
  Fractional occupation disabled.
  Guess Type is SAD.
  Energy threshold   = 1.00e-06
  Density threshold  = 1.00e-10
  Integral threshold = 0.00e+00

  ==> Primary Basis <==

  Basis Set: CC-PVDZ
    Blend: CC-PVDZ
    Number of shells: 129
    Number of basis function: 267
    Number of Cartesian functions: 280
    Spherical Harmonics?: true
    Max angular momentum: 2

  ==> Pre-Iterations <==

   -------------------------------------------------------
    Irrep   Nso     Nmo     Nalpha   Nbeta   Ndocc  Nsocc
   -------------------------------------------------------
     A        267     267       0       0       0       0
   -------------------------------------------------------
    Total     267     267      48      48      48       0
   -------------------------------------------------------

  ==> Integral Setup <==

  Using integral reordering PK algorithm.
  Sizing the integral batches needed.
  Building batch lookup table.
   Calculation information:
      Number of atoms:                  30
      Number of AO shells:             129
      Number of primitives:            371
      Number of atomic orbitals:       280
      Number of basis functions:       267

      Integral cutoff                 1.00e-12
      Number of threads:                 1

	Batch   1 pq = [       0,    9405] index = [             0,44231715] size =     44231715
	Batch   2 pq = [    9405,   13301] index = [      44231715,88464951] size =     44233236
	Batch   3 pq = [   13301,   16290] index = [      88464951,132690195] size =     44225244
	Batch   4 pq = [   16290,   18810] index = [     132690195,176917455] size =     44227260
	Batch   5 pq = [   18810,   21030] index = [     176917455,221140965] size =     44223510
	Batch   6 pq = [   21030,   23037] index = [     221140965,265363203] size =     44222238
	Batch   7 pq = [   23037,   24883] index = [     265363203,309594286] size =     44231083
	Batch   8 pq = [   24883,   26601] index = [     309594286,353819901] size =     44225615
	Batch   9 pq = [   26601,   28214] index = [     353819901,398029005] size =     44209104
	Batch  10 pq = [   28214,   29740] index = [     398029005,442248670] size =     44219665
	Batch  11 pq = [   29740,   31191] index = [     442248670,486454836] size =     44206166
	Batch  12 pq = [   31191,   32578] index = [     486454836,530679331] size =     44224495
	Batch  13 pq = [   32578,   33908] index = [     530679331,574893186] size =     44213855
	Batch  14 pq = [   33908,   35188] index = [     574893186,619115266] size =     44222080
	Batch  15 pq = [   35188,   35778] index = [     619115266,640050531] size =     20935265
  Task number: 58
  Buffer size: 11059200
  Buffer per thread: 2
  We computed 30571815 shell quartets total.
  Whereas there are 35158305 unique shell quartets.

  ==> DiskJK: Disk-Based J/K Matrices <==

    J tasked:                  Yes
    K tasked:                  Yes
    wK tasked:                  No
    Memory [MiB]:              375
    Schwarz Cutoff:          1E-12

    OpenMP threads:              1

  Minimum eigenvalue in the overlap matrix is 2.3883555005E-04.
  Using Symmetric Orthogonalization.

  SCF Guess: Superposition of Atomic Densities via on-the-fly atomic UHF.

  ==> Iterations <==

                        Total Energy        Delta E     RMS |[F,P]|

   @RHF iter SAD:  -518.05683535232731   -5.18057e+02   0.00000e+00
   @RHF iter   1:  -518.49150549988497   -4.34670e-01   2.50203e-03 DIIS
   @RHF iter   2:  -518.74895972287140   -2.57454e-01   1.13020e-03 DIIS
   @RHF iter   3:  -518.79687028514570   -4.79106e-02   2.98156e-04 DIIS
   @RHF iter   4:  -518.80125138905032   -4.38110e-03   1.39643e-04 DIIS
   @RHF iter   5:  -518.80203297412697   -7.81585e-04   1.90404e-05 DIIS
   @RHF iter   6:  -518.80206533110220   -3.23570e-05   8.66329e-06 DIIS
   @RHF iter   7:  -518.80207168056768   -6.34947e-06   3.73436e-06 DIIS
   @RHF iter   8:  -518.80207356374922   -1.88318e-06   1.47849e-06 DIIS
   @RHF iter   9:  -518.80207397298511   -4.09236e-07   6.58722e-07 DIIS
   @RHF iter  10:  -518.80207405334943   -8.03643e-08   3.02325e-07 DIIS
   @RHF iter  11:  -518.80207407173111   -1.83817e-08   1.11386e-07 DIIS
   @RHF iter  12:  -518.80207407429793   -2.56682e-09   4.04975e-08 DIIS
   @RHF iter  13:  -518.80207407448586   -1.87924e-10   1.28018e-08 DIIS
   @RHF iter  14:  -518.80207407450519   -1.93268e-11   4.77573e-09 DIIS
   @RHF iter  15:  -518.80207407451053   -5.34328e-12   2.11564e-09 DIIS
   @RHF iter  16:  -518.80207407451928   -8.75389e-12   9.30494e-10 DIIS
   @RHF iter  17:  -518.80207407451860    6.82121e-13   4.02973e-10 DIIS
   @RHF iter  18:  -518.80207407451951   -9.09495e-13   1.66445e-10 DIIS
   @RHF iter  19:  -518.80207407451417    5.34328e-12   6.29057e-11 DIIS
  Energy and wave function converged.

  ==> Post-Iterations <==

    Orbital Energies [Eh]
    ---------------------

    Doubly Occupied:

       1A    -15.601631     2A    -11.263739     3A    -11.262824
       4A    -11.230130     5A    -11.229907     6A    -11.228237
       7A    -11.223175     8A    -11.220334     9A    -11.219532
      10A    -11.217175    11A    -11.217032    12A    -11.213837
      13A    -11.213366    14A     -1.294217    15A     -1.126620
      16A     -1.083077    17A     -1.018869    18A     -1.013811
      19A     -0.991323    20A     -0.966808    21A     -0.856467
      22A     -0.838308    23A     -0.833352    24A     -0.802800
      25A     -0.746653    26A     -0.716476    27A     -0.664889
      28A     -0.643260    29A     -0.616144    30A     -0.599915
      31A     -0.597752    32A     -0.592382    33A     -0.590777
      34A     -0.584774    35A     -0.573431    36A     -0.543564
      37A     -0.515520    38A     -0.507459    39A     -0.501612
      40A     -0.493272    41A     -0.487141    42A     -0.483605
      43A     -0.479993    44A     -0.461072    45A     -0.456641
      46A     -0.371771    47A     -0.294090    48A     -0.274207

    Virtual:

      49A      0.125328    50A      0.169089    51A      0.173046
      52A      0.181434    53A      0.192731    54A      0.202790
      55A      0.215830    56A      0.221826    57A      0.231922
      58A      0.238892    59A      0.247276    60A      0.251791
      61A      0.261858    62A      0.267001    63A      0.277882
      64A      0.287107    65A      0.287789    66A      0.302944
      67A      0.325471    68A      0.344267    69A      0.375917
      70A      0.387731    71A      0.399008    72A      0.414942
      73A      0.423763    74A      0.445006    75A      0.447735
      76A      0.472506    77A      0.486338    78A      0.505399
      79A      0.517357    80A      0.580514    81A      0.592213
      82A      0.601083    83A      0.608167    84A      0.611757
      85A      0.632168    86A      0.637784    87A      0.660292
      88A      0.665484    89A      0.670230    90A      0.683505
      91A      0.694577    92A      0.713834    93A      0.722146
      94A      0.727863    95A      0.737973    96A      0.742507
      97A      0.754823    98A      0.759320    99A      0.763020
     100A      0.773148   101A      0.788345   102A      0.792487
     103A      0.797792   104A      0.839293   105A      0.847374
     106A      0.851175   107A      0.878952   108A      0.884342
     109A      0.887468   110A      0.892375   111A      0.894739
     112A      0.899874   113A      0.902341   114A      0.905057
     115A      0.912307   116A      0.917129   117A      0.921972
     118A      0.936131   119A      0.940515   120A      0.954060
     121A      0.955096   122A      0.964893   123A      0.968026
     124A      0.979272   125A      0.986692   126A      1.001473
     127A      1.006862   128A      1.046444   129A      1.074883
     130A      1.077134   131A      1.101555   132A      1.125189
     133A      1.130253   134A      1.132837   135A      1.142808
     136A      1.151737   137A      1.164501   138A      1.171770
     139A      1.203647   140A      1.214883   141A      1.224083
     142A      1.236538   143A      1.250233   144A      1.256266
     145A      1.268548   146A      1.285805   147A      1.298432
     148A      1.320282   149A      1.341266   150A      1.356071
     151A      1.372890   152A      1.390038   153A      1.423649
     154A      1.439062   155A      1.465319   156A      1.480249
     157A      1.496812   158A      1.518613   159A      1.545853
     160A      1.583517   161A      1.591148   162A      1.606673
     163A      1.638988   164A      1.648790   165A      1.665006
     166A      1.678937   167A      1.693912   168A      1.699768
     169A      1.716811   170A      1.734782   171A      1.753967
     172A      1.760246   173A      1.785205   174A      1.806928
     175A      1.819458   176A      1.839464   177A      1.862545
     178A      1.866331   179A      1.873830   180A      1.880843
     181A      1.895230   182A      1.897955   183A      1.905131
     184A      1.914430   185A      1.921599   186A      1.930467
     187A      1.934314   188A      1.943171   189A      1.949547
     190A      1.951010   191A      1.961248   192A      1.964189
     193A      1.968098   194A      1.981675   195A      1.987736
     196A      1.995033   197A      2.000492   198A      2.005275
     199A      2.022272   200A      2.037909   201A      2.054729
     202A      2.063776   203A      2.089386   204A      2.091848
     205A      2.094477   206A      2.108089   207A      2.112143
     208A      2.119291   209A      2.128464   210A      2.151906
     211A      2.162441   212A      2.167733   213A      2.171008
     214A      2.180330   215A      2.232329   216A      2.259288
     217A      2.276911   218A      2.293222   219A      2.298232
     220A      2.318426   221A      2.322087   222A      2.333790
     223A      2.340402   224A      2.348475   225A      2.366101
     226A      2.410766   227A      2.455499   228A      2.457390
     229A      2.469894   230A      2.484156   231A      2.524487
     232A      2.551868   233A      2.570060   234A      2.573982
     235A      2.580989   236A      2.596179   237A      2.604767
     238A      2.651916   239A      2.669127   240A      2.701443
     241A      2.718845   242A      2.766281   243A      2.769513
     244A      2.775728   245A      2.788148   246A      2.797493
     247A      2.804024   248A      2.814085   249A      2.840843
     250A      2.846964   251A      2.849921   252A      2.901032
     253A      2.918552   254A      2.938820   255A      2.949601
     256A      2.967055   257A      2.984877   258A      2.995656
     259A      3.049122   260A      3.066083   261A      3.105233
     262A      3.130290   263A      3.218717   264A      3.316544
     265A      3.380631   266A      3.726344   267A      3.950645

    Final Occupation by Irrep:
              A
    DOCC [    48 ]

  @RHF Final Energy:  -518.80207407451417

   => Energetics <=

    Nuclear Repulsion Energy =            736.3276326588785423
    One-Electron Energy =               -2162.3334699850447578
    Two-Electron Energy =                 907.2037632516521626
    Total Energy =                       -518.8020740745141666

Computation Completed

Properties will be evaluated at   0.000000,   0.000000,   0.000000 [a0]

Properties computed using the SCF density matrix

  Nuclear Dipole Moment: [e a0]
     X:    -9.1771      Y:     6.4213      Z:    20.2832

  Electronic Dipole Moment: [e a0]
     X:     8.8183      Y:    -5.8424      Z:   -20.6963

  Dipole Moment: [e a0]
     X:    -0.3588      Y:     0.5789      Z:    -0.4131     Total:     0.7966

  Dipole Moment: [D]
     X:    -0.9119      Y:     1.4714      Z:    -1.0500     Total:     2.0247

*** tstop() called on ds3 at Sun Apr 26 21:25:31 2020
Module time:
	user time   =     248.49 seconds =       4.14 minutes
	system time =      98.71 seconds =       1.65 minutes
	total time  =        888 seconds =      14.80 minutes
Total time:
	user time   =     248.49 seconds =       4.14 minutes
	system time =      98.71 seconds =       1.65 minutes
	total time  =        888 seconds =      14.80 minutes
                                     G D M A

                                 by Anthony Stone

                           version 2.2.06, 22 June 2011

               Distributed Multipoles from Gaussian wavefunctions

Starting at 21:25:31 on 26 Apr 2020

Using SCF density matrix from file ./SSI/SSI-104TRP-147LEU-1-dimer.test.11225.fchk

                         Distributed Multipole Analysis

Standard DMA

Positions and radii in angstrom
Multipole moments in atomic units, ea_0^k for rank k

C          x =  0.180701  y =  1.219026  z =  1.409305 angstrom
           Maximum rank =  0   Radius =  0.650 angstrom
                   Q00  =  -0.037112

C          x =  1.390701  y =  2.098026  z =  1.724305 angstrom
           Maximum rank =  0   Radius =  0.650 angstrom
                   Q00  =  -0.234127

C          x =  0.074701  y =  0.805026  z = -0.021695 angstrom
           Maximum rank =  0   Radius =  0.650 angstrom
                   Q00  =  -0.128755

C          x = -0.618299  y =  1.435026  z = -1.010695 angstrom
           Maximum rank =  0   Radius =  0.650 angstrom
                   Q00  =   0.068835

C          x =  0.688701  y = -0.341974  z = -0.628695 angstrom
           Maximum rank =  0   Radius =  0.650 angstrom
                   Q00  =  -0.049568

C          x =  0.317701  y = -0.345974  z = -2.000695 angstrom
           Maximum rank =  0   Radius =  0.650 angstrom
                   Q00  =   0.290576

C          x =  1.516701  y = -1.367974  z = -0.153695 angstrom
           Maximum rank =  0   Radius =  0.650 angstrom
                   Q00  =  -0.103843

C          x =  0.745701  y = -1.326974  z = -2.887695 angstrom
           Maximum rank =  0   Radius =  0.650 angstrom
                   Q00  =  -0.119023

C          x =  1.942701  y = -2.356974  z = -1.040695 angstrom
           Maximum rank =  0   Radius =  0.650 angstrom
                   Q00  =  -0.079811

C          x =  1.563701  y = -2.329974  z = -2.391695 angstrom
           Maximum rank =  0   Radius =  0.650 angstrom
                   Q00  =  -0.076064

N          x = -0.478299  y =  0.750026  z = -2.195695 angstrom
           Maximum rank =  0   Radius =  0.650 angstrom
                   Q00  =  -0.495353

H          x =  0.202701  y =  0.331026  z =  2.032305 angstrom
           Maximum rank =  0   Radius =  0.325 angstrom
                   Q00  =   0.072587

H          x = -0.716299  y =  1.787026  z =  1.650305 angstrom
           Maximum rank =  0   Radius =  0.325 angstrom
                   Q00  =   0.065868

H          x =  1.386701  y =  2.961026  z =  1.057305 angstrom
           Maximum rank =  0   Radius =  0.325 angstrom
                   Q00  =   0.080702

H          x = -1.181299  y =  2.352026  z = -0.880695 angstrom
           Maximum rank =  0   Radius =  0.325 angstrom
                   Q00  =   0.099899

H          x = -0.792299  y =  1.091026  z = -3.108695 angstrom
           Maximum rank =  0   Radius =  0.325 angstrom
                   Q00  =   0.216910

H          x =  1.845701  y = -1.366974  z =  0.871305 angstrom
           Maximum rank =  0   Radius =  0.325 angstrom
                   Q00  =   0.069858

H          x =  0.472701  y = -1.283974  z = -3.931695 angstrom
           Maximum rank =  0   Radius =  0.325 angstrom
                   Q00  =   0.073405

H          x =  2.586701  y = -3.138974  z = -0.677695 angstrom
           Maximum rank =  0   Radius =  0.325 angstrom
                   Q00  =   0.060558

H          x =  1.979701  y = -3.063974  z = -3.057695 angstrom
           Maximum rank =  0   Radius =  0.325 angstrom
                   Q00  =   0.064939

H          x =  2.315351  y =  1.509200  z =  1.633195 angstrom
           Maximum rank =  0   Radius =  0.325 angstrom
                   Q00  =   0.082063

H          x =  1.358701  y =  2.439833  z =  2.769362 angstrom
           Maximum rank =  0   Radius =  0.325 angstrom
                   Q00  =   0.076501

C          x = -2.462299  y =  0.562026  z =  3.737305 angstrom
           Maximum rank =  0   Radius =  0.650 angstrom
                   Q00  =  -0.243237

C          x = -3.960299  y =  0.500026  z =  4.010305 angstrom
           Maximum rank =  0   Radius =  0.650 angstrom
                   Q00  =  -0.223153

H          x = -2.240299  y =  1.486026  z =  3.210305 angstrom
           Maximum rank =  0   Radius =  0.325 angstrom
                   Q00  =   0.074271

H          x = -1.909299  y =  0.562026  z =  4.676305 angstrom
           Maximum rank =  0   Radius =  0.325 angstrom
                   Q00  =   0.077436

H          x = -2.159299  y = -0.289974  z =  3.132305 angstrom
           Maximum rank =  0   Radius =  0.325 angstrom
                   Q00  =   0.082045

H          x = -4.243299  y =  1.423026  z =  4.515305 angstrom
           Maximum rank =  0   Radius =  0.325 angstrom
                   Q00  =   0.075669

H          x = -4.509629  y =  0.399888  z =  3.062567 angstrom
           Maximum rank =  0   Radius =  0.325 angstrom
                   Q00  =   0.079655

H          x = -4.187249  y = -0.346340  z =  4.675255 angstrom
           Maximum rank =  0   Radius =  0.325 angstrom
                   Q00  =   0.078272

Total multipoles referred to origin at
           x =   0.000000,  y =    0.000000,  z =    0.000000 angstrom
                   Q00  =  -0.000000

Finished at 21:25:31 on 26 Apr 2020

  DMA results are available in the Python driver through the
	  variable('DMA DISTRIBUTED MULTIPOLES')
  and
	  variable('DMA TOTAL MULTIPOLES')
  commands.

    Psi4 stopped on: Sunday, 26 April 2020 09:25PM
    Psi4 wall time for execution: 0:14:48.52

*** Psi4 exiting successfully. Buy a developer a beer!
