                               Psi4 1.3.2 release

  ==> Input File <==

--------------------------------------------------------------------------
import numpy as np
set {scf_type pk
basis cc-pvdz
d_convergence 10
gdma_switch   0
gdma_limit    0
gdma_origin   [ 0.0,  0.0,  0.0 ]
}
molecule test {
    units Angstrom
    0 1
    --
    0 1
    C               -0.716145901922102    -0.454959109761229     2.103157463665648
    C               -0.934145901922102     0.869040890238771     2.842157463665648
    H               -1.290145901922102    -0.450959109761229     1.178157463665649
    H                0.341854098077898    -0.579959109761229     1.876157463665649
    H               -1.049145901922102    -1.284959109761229     2.728157463665649
    H               -0.592145901922102     1.690040890238771     2.218157463665649
    H               -0.345145901922102     0.854040890238771     3.757157463665649
    H               -1.995045901922102     1.017960890238771     3.091777463665649
    C                0.051854098077898     0.010040890238771    -1.657842536334352
    C                0.417854098077898    -1.482959109761229    -1.888842536334351
    C                1.192854098077898     1.058040890238771    -1.514842536334352
    H               -0.572145901922102     0.282040890238771    -2.511842536334351
    H               -0.562145901922102     0.033040890238771    -0.757842536334351
    H                0.898854098077898    -1.876959109761229    -0.992842536334351
    H                1.703854098077898     1.175040890238771    -2.469842536334351
    H                1.100664098077898    -1.571959109761229    -2.746662536334351
    H               -0.502945901922102    -2.075569109761229    -1.993462536334351
    H                0.758154098077898     2.022940890238771    -1.214822536334351
    H                1.959384098077898     0.774730890238771    -0.778522536334351

}
e, wfn = energy('scf', return_wfn=True)
gdma(wfn)
dmavals = variable('DMA DISTRIBUTED MULTIPOLES')
charges = np.array(dmavals)
print(charges)
np.save('SSI-264ILE-271LEU-1-dimer.npy', np.array(charges))--------------------------------------------------------------------------

*** tstart() called on ds3
*** at Tue Apr 28 13:47:25 2020

   => Loading Basis Set <=

    Name: CC-PVDZ
    Role: ORBITAL
    Keyword: BASIS
    atoms 1-2, 9-11  entry C          line   138 file /theoryfs2/ds/metcalf/miniconda2/envs/tf2gpu/share/psi4/basis/cc-pvdz.gbs
    atoms 3-8, 12-19 entry H          line    22 file /theoryfs2/ds/metcalf/miniconda2/envs/tf2gpu/share/psi4/basis/cc-pvdz.gbs

         ---------------------------------------------------------
                                   SCF
               by Justin Turney, Rob Parrish, Andy Simmonett
                          and Daniel G. A. Smith
                              RHF Reference
                        1 Threads,    500 MiB Core
         ---------------------------------------------------------

  ==> Geometry <==

    Molecular point group: c1
    Full point group: C1

    Geometry (in Angstrom), charge = 0, multiplicity = 1:

       Center              X                  Y                   Z               Mass
    ------------   -----------------  -----------------  -----------------  -----------------
         C           -0.716145901922    -0.454959109761     2.103157463666    12.000000000000
         C           -0.934145901922     0.869040890239     2.842157463666    12.000000000000
         H           -1.290145901922    -0.450959109761     1.178157463666     1.007825032230
         H            0.341854098078    -0.579959109761     1.876157463666     1.007825032230
         H           -1.049145901922    -1.284959109761     2.728157463666     1.007825032230
         H           -0.592145901922     1.690040890239     2.218157463666     1.007825032230
         H           -0.345145901922     0.854040890239     3.757157463666     1.007825032230
         H           -1.995045901922     1.017960890239     3.091777463666     1.007825032230
         C            0.051854098078     0.010040890239    -1.657842536334    12.000000000000
         C            0.417854098078    -1.482959109761    -1.888842536334    12.000000000000
         C            1.192854098078     1.058040890239    -1.514842536334    12.000000000000
         H           -0.572145901922     0.282040890239    -2.511842536334     1.007825032230
         H           -0.562145901922     0.033040890239    -0.757842536334     1.007825032230
         H            0.898854098078    -1.876959109761    -0.992842536334     1.007825032230
         H            1.703854098078     1.175040890239    -2.469842536334     1.007825032230
         H            1.100664098078    -1.571959109761    -2.746662536334     1.007825032230
         H           -0.502945901922    -2.075569109761    -1.993462536334     1.007825032230
         H            0.758154098078     2.022940890239    -1.214822536334     1.007825032230
         H            1.959384098078     0.774730890239    -0.778522536334     1.007825032230

  Running in c1 symmetry.

  Rotational constants: A =      0.19004  B =      0.04477  C =      0.03864 [cm^-1]
  Rotational constants: A =   5697.38322  B =   1342.21958  C =   1158.41021 [MHz]
  Nuclear repulsion =  177.993018887892561

  Charge       = 0
  Multiplicity = 1
  Electrons    = 44
  Nalpha       = 22
  Nbeta        = 22

  ==> Algorithm <==

  SCF Algorithm Type is PK.
  DIIS enabled.
  MOM disabled.
  Fractional occupation disabled.
  Guess Type is SAD.
  Energy threshold   = 1.00e-06
  Density threshold  = 1.00e-10
  Integral threshold = 0.00e+00

  ==> Primary Basis <==

  Basis Set: CC-PVDZ
    Blend: CC-PVDZ
    Number of shells: 72
    Number of basis function: 140
    Number of Cartesian functions: 145
    Spherical Harmonics?: true
    Max angular momentum: 2

  ==> Pre-Iterations <==

   -------------------------------------------------------
    Irrep   Nso     Nmo     Nalpha   Nbeta   Ndocc  Nsocc
   -------------------------------------------------------
     A        140     140       0       0       0       0
   -------------------------------------------------------
    Total     140     140      22      22      22       0
   -------------------------------------------------------

  ==> Integral Setup <==

  Using integral reordering PK algorithm.
  Sizing the integral batches needed.
  Building batch lookup table.
   Calculation information:
      Number of atoms:                  19
      Number of AO shells:              72
      Number of primitives:            180
      Number of atomic orbitals:       145
      Number of basis functions:       140

      Integral cutoff                 1.00e-12
      Number of threads:                 1

	Batch   1 pq = [       0,    9405] index = [             0,44231715] size =     44231715
	Batch   2 pq = [    9405,    9870] index = [      44231715,48713385] size =      4481670
  Task number: 5
  Buffer size: 11059200
  Buffer per thread: 2
  We computed 2986475 shell quartets total.
  Whereas there are 3454506 unique shell quartets.

  ==> DiskJK: Disk-Based J/K Matrices <==

    J tasked:                  Yes
    K tasked:                  Yes
    wK tasked:                  No
    Memory [MiB]:              375
    Schwarz Cutoff:          1E-12

    OpenMP threads:              1

  Minimum eigenvalue in the overlap matrix is 5.9923455077E-03.
  Using Symmetric Orthogonalization.

  SCF Guess: Superposition of Atomic Densities via on-the-fly atomic UHF.

  ==> Iterations <==

                        Total Energy        Delta E     RMS |[F,P]|

   @RHF iter SAD:  -196.25892506975720   -1.96259e+02   0.00000e+00
   @RHF iter   1:  -197.31437381660410   -1.05545e+00   3.73230e-03 DIIS
   @RHF iter   2:  -197.47057283041772   -1.56199e-01   1.58314e-03 DIIS
   @RHF iter   3:  -197.49722947224939   -2.66566e-02   3.20165e-04 DIIS
   @RHF iter   4:  -197.49939138264224   -2.16191e-03   4.76763e-05 DIIS
   @RHF iter   5:  -197.49942866255310   -3.72799e-05   1.48524e-05 DIIS
   @RHF iter   6:  -197.49943198310189   -3.32055e-06   2.30378e-06 DIIS
   @RHF iter   7:  -197.49943208332505   -1.00223e-07   4.45968e-07 DIIS
   @RHF iter   8:  -197.49943208760163   -4.27659e-09   1.24578e-07 DIIS
   @RHF iter   9:  -197.49943208791407   -3.12440e-10   3.83738e-08 DIIS
   @RHF iter  10:  -197.49943208794883   -3.47598e-11   8.28292e-09 DIIS
   @RHF iter  11:  -197.49943208795133   -2.50111e-12   1.58684e-09 DIIS
   @RHF iter  12:  -197.49943208795233   -9.94760e-13   3.04197e-10 DIIS
   @RHF iter  13:  -197.49943208795131    1.02318e-12   5.67899e-11 DIIS
  Energy and wave function converged.

  ==> Post-Iterations <==

    Orbital Energies [Eh]
    ---------------------

    Doubly Occupied:

       1A    -11.222658     2A    -11.221261     3A    -11.219218
       4A    -11.218410     5A    -11.217578     6A     -1.041590
       7A     -1.019253     8A     -0.925763     9A     -0.838455
      10A     -0.795047    11A     -0.623047    12A     -0.600018
      13A     -0.598136    14A     -0.585820    15A     -0.551618
      16A     -0.532981    17A     -0.499317    18A     -0.490973
      19A     -0.488035    20A     -0.473699    21A     -0.464531
      22A     -0.458091

    Virtual:

      23A      0.162431    24A      0.198285    25A      0.214025
      26A      0.218239    27A      0.237953    28A      0.251680
      29A      0.260755    30A      0.268372    31A      0.269866
      32A      0.281825    33A      0.295690    34A      0.301019
      35A      0.313575    36A      0.357153    37A      0.384654
      38A      0.397770    39A      0.424861    40A      0.567222
      41A      0.586571    42A      0.589212    43A      0.601232
      44A      0.621088    45A      0.629781    46A      0.646592
      47A      0.652815    48A      0.680401    49A      0.739848
      50A      0.786517    51A      0.817035    52A      0.836160
      53A      0.843763    54A      0.868381    55A      0.882004
      56A      0.885926    57A      0.890692    58A      0.897618
      59A      0.899106    60A      0.906472    61A      0.912993
      62A      0.915529    63A      0.923239    64A      0.947390
      65A      0.958351    66A      0.974765    67A      0.983447
      68A      1.020314    69A      1.111801    70A      1.122748
      71A      1.125906    72A      1.158126    73A      1.230576
      74A      1.277835    75A      1.352341    76A      1.461140
      77A      1.471221    78A      1.475814    79A      1.485178
      80A      1.504034    81A      1.572823    82A      1.644113
      83A      1.669342    84A      1.678888    85A      1.686893
      86A      1.691998    87A      1.711357    88A      1.835207
      89A      1.839076    90A      1.862009    91A      1.872739
      92A      1.891868    93A      1.901286    94A      1.912326
      95A      1.919247    96A      1.931241    97A      1.934295
      98A      1.945392    99A      1.952239   100A      1.957061
     101A      1.968736   102A      1.974253   103A      1.981225
     104A      1.987317   105A      1.993910   106A      2.013351
     107A      2.044143   108A      2.099131   109A      2.114538
     110A      2.119687   111A      2.171840   112A      2.266703
     113A      2.290696   114A      2.297544   115A      2.310705
     116A      2.313017   117A      2.343263   118A      2.457085
     119A      2.472121   120A      2.482208   121A      2.524914
     122A      2.568135   123A      2.571810   124A      2.580373
     125A      2.603988   126A      2.619449   127A      2.744702
     128A      2.750832   129A      2.771766   130A      2.787106
     131A      2.797822   132A      2.804757   133A      2.849891
     134A      2.857479   135A      2.909071   136A      2.946666
     137A      2.964483   138A      2.967602   139A      2.982834
     140A      3.043430

    Final Occupation by Irrep:
              A
    DOCC [    22 ]

  @RHF Final Energy:  -197.49943208795131

   => Energetics <=

    Nuclear Repulsion Energy =            177.9930188878925605
    One-Electron Energy =                -616.8139056966983844
    Two-Electron Energy =                 241.3214547208545184
    Total Energy =                       -197.4994320879513054

Computation Completed

Properties will be evaluated at   0.000000,   0.000000,   0.000000 [a0]

Properties computed using the SCF density matrix

  Nuclear Dipole Moment: [e a0]
     X:    -0.1370      Y:     0.0089      Z:     1.2972

  Electronic Dipole Moment: [e a0]
     X:     0.1125      Y:    -0.0017      Z:    -1.2714

  Dipole Moment: [e a0]
     X:    -0.0245      Y:     0.0072      Z:     0.0258     Total:     0.0363

  Dipole Moment: [D]
     X:    -0.0623      Y:     0.0183      Z:     0.0657     Total:     0.0923

*** tstop() called on ds3 at Tue Apr 28 13:47:49 2020
Module time:
	user time   =      17.80 seconds =       0.30 minutes
	system time =       6.76 seconds =       0.11 minutes
	total time  =         24 seconds =       0.40 minutes
Total time:
	user time   =      17.80 seconds =       0.30 minutes
	system time =       6.76 seconds =       0.11 minutes
	total time  =         24 seconds =       0.40 minutes
                                     G D M A

                                 by Anthony Stone

                           version 2.2.06, 22 June 2011

               Distributed Multipoles from Gaussian wavefunctions

Starting at 13:47:49 on 28 Apr 2020

Using SCF density matrix from file ./SSI/SSI-264ILE-271LEU-1-dimer.test.12803.fchk

                         Distributed Multipole Analysis

Standard DMA

Positions and radii in angstrom
Multipole moments in atomic units, ea_0^k for rank k

C          x = -0.716146  y = -0.454959  z =  2.103157 angstrom
           Maximum rank =  0   Radius =  0.650 angstrom
                   Q00  =  -0.237022

C          x = -0.934146  y =  0.869041  z =  2.842157 angstrom
           Maximum rank =  0   Radius =  0.650 angstrom
                   Q00  =  -0.239064

H          x = -1.290146  y = -0.450959  z =  1.178157 angstrom
           Maximum rank =  0   Radius =  0.325 angstrom
                   Q00  =   0.079710

H          x =  0.341854  y = -0.579959  z =  1.876157 angstrom
           Maximum rank =  0   Radius =  0.325 angstrom
                   Q00  =   0.080340

H          x = -1.049146  y = -1.284959  z =  2.728157 angstrom
           Maximum rank =  0   Radius =  0.325 angstrom
                   Q00  =   0.079341

H          x = -0.592146  y =  1.690041  z =  2.218157 angstrom
           Maximum rank =  0   Radius =  0.325 angstrom
                   Q00  =   0.079626

H          x = -0.345146  y =  0.854041  z =  3.757157 angstrom
           Maximum rank =  0   Radius =  0.325 angstrom
                   Q00  =   0.078878

H          x = -1.995046  y =  1.017961  z =  3.091777 angstrom
           Maximum rank =  0   Radius =  0.325 angstrom
                   Q00  =   0.079523

C          x =  0.051854  y =  0.010041  z = -1.657843 angstrom
           Maximum rank =  0   Radius =  0.650 angstrom
                   Q00  =  -0.088470

C          x =  0.417854  y = -1.482959  z = -1.888843 angstrom
           Maximum rank =  0   Radius =  0.650 angstrom
                   Q00  =  -0.250602

C          x =  1.192854  y =  1.058041  z = -1.514843 angstrom
           Maximum rank =  0   Radius =  0.650 angstrom
                   Q00  =  -0.251185

H          x = -0.572146  y =  0.282041  z = -2.511843 angstrom
           Maximum rank =  0   Radius =  0.325 angstrom
                   Q00  =   0.044324

H          x = -0.562146  y =  0.033041  z = -0.757843 angstrom
           Maximum rank =  0   Radius =  0.325 angstrom
                   Q00  =   0.049071

H          x =  0.898854  y = -1.876959  z = -0.992843 angstrom
           Maximum rank =  0   Radius =  0.325 angstrom
                   Q00  =   0.077847

H          x =  1.703854  y =  1.175041  z = -2.469843 angstrom
           Maximum rank =  0   Radius =  0.325 angstrom
                   Q00  =   0.082297

H          x =  1.100664  y = -1.571959  z = -2.746663 angstrom
           Maximum rank =  0   Radius =  0.325 angstrom
                   Q00  =   0.080247

H          x = -0.502946  y = -2.075569  z = -1.993463 angstrom
           Maximum rank =  0   Radius =  0.325 angstrom
                   Q00  =   0.087100

H          x =  0.758154  y =  2.022941  z = -1.214823 angstrom
           Maximum rank =  0   Radius =  0.325 angstrom
                   Q00  =   0.087575

H          x =  1.959384  y =  0.774731  z = -0.778523 angstrom
           Maximum rank =  0   Radius =  0.325 angstrom
                   Q00  =   0.080465

Total multipoles referred to origin at
           x =   0.000000,  y =    0.000000,  z =    0.000000 angstrom
                   Q00  =  -0.000000

Finished at 13:47:49 on 28 Apr 2020

  DMA results are available in the Python driver through the
	  variable('DMA DISTRIBUTED MULTIPOLES')
  and
	  variable('DMA TOTAL MULTIPOLES')
  commands.

    Psi4 stopped on: Tuesday, 28 April 2020 01:47PM
    Psi4 wall time for execution: 0:00:24.07

*** Psi4 exiting successfully. Buy a developer a beer!
