                               Psi4 1.3.2 release

  ==> Input File <==

--------------------------------------------------------------------------
import numpy as np
set {scf_type pk
basis cc-pvdz
d_convergence 10
gdma_switch   0
gdma_limit    0
gdma_origin   [ 0.0,  0.0,  0.0 ]
}
molecule test {
    units Angstrom
    0 1
    --
    0 1
    C               -1.960983759380326     1.325057349705911     0.861500814503705
    C               -2.891983759380326     0.398057349705911     0.101500814503705
    O               -1.155983759380326     0.560057349705911     1.742500814503706
    H               -1.338983759380326     1.882057349705911     0.160500814503705
    H               -2.551983759380326     2.038057349705911     1.437500814503705
    H               -2.275983759380326    -0.323942650294089    -0.431499185496295
    H               -0.634983759380326     1.195057349705911     2.258500814503705
    H               -3.510130759380326     0.973077349705911    -0.603659185496295
    H               -3.503332759380326    -0.158836650294089     0.826840814503705
    C                1.402016240619674    -0.916942650294089    -2.126499185496294
    C                1.596016240619674    -0.600942650294089    -0.671499185496295
    O                2.516016240619674    -1.090942650294089    -0.024499185496295
    N                0.688016240619674     0.177057349705911    -0.128499185496295
    H                0.693016240619674     0.273057349705911     0.872500814503705
    H               -0.029983759380326     0.593057349705911    -0.694499185496295
    H                2.264016240619674    -1.480942650294089    -2.485499185496295
    H                1.353016240619674     0.021057349705911    -2.681499185496295
    H                0.477486240619674    -1.489892650294089    -2.290716185496295

}
e, wfn = energy('scf', return_wfn=True)
gdma(wfn)
dmavals = variable('DMA DISTRIBUTED MULTIPOLES')
charges = np.array(dmavals)
print(charges)
np.save('SSI-023SER-051ASN-1-dimer.npy', np.array(charges))--------------------------------------------------------------------------

*** tstart() called on ds3
*** at Tue Apr 28 13:58:03 2020

   => Loading Basis Set <=

    Name: CC-PVDZ
    Role: ORBITAL
    Keyword: BASIS
    atoms 1-2, 10-11 entry C          line   138 file /theoryfs2/ds/metcalf/miniconda2/envs/tf2gpu/share/psi4/basis/cc-pvdz.gbs
    atoms 3, 12      entry O          line   198 file /theoryfs2/ds/metcalf/miniconda2/envs/tf2gpu/share/psi4/basis/cc-pvdz.gbs
    atoms 4-9, 14-18 entry H          line    22 file /theoryfs2/ds/metcalf/miniconda2/envs/tf2gpu/share/psi4/basis/cc-pvdz.gbs
    atoms 13         entry N          line   168 file /theoryfs2/ds/metcalf/miniconda2/envs/tf2gpu/share/psi4/basis/cc-pvdz.gbs

         ---------------------------------------------------------
                                   SCF
               by Justin Turney, Rob Parrish, Andy Simmonett
                          and Daniel G. A. Smith
                              RHF Reference
                        1 Threads,    500 MiB Core
         ---------------------------------------------------------

  ==> Geometry <==

    Molecular point group: c1
    Full point group: C1

    Geometry (in Angstrom), charge = 0, multiplicity = 1:

       Center              X                  Y                   Z               Mass
    ------------   -----------------  -----------------  -----------------  -----------------
         C           -1.960983759380     1.325057349706     0.861500814504    12.000000000000
         C           -2.891983759380     0.398057349706     0.101500814504    12.000000000000
         O           -1.155983759380     0.560057349706     1.742500814504    15.994914619570
         H           -1.338983759380     1.882057349706     0.160500814504     1.007825032230
         H           -2.551983759380     2.038057349706     1.437500814504     1.007825032230
         H           -2.275983759380    -0.323942650294    -0.431499185496     1.007825032230
         H           -0.634983759380     1.195057349706     2.258500814504     1.007825032230
         H           -3.510130759380     0.973077349706    -0.603659185496     1.007825032230
         H           -3.503332759380    -0.158836650294     0.826840814504     1.007825032230
         C            1.402016240620    -0.916942650294    -2.126499185496    12.000000000000
         C            1.596016240620    -0.600942650294    -0.671499185496    12.000000000000
         O            2.516016240620    -1.090942650294    -0.024499185496    15.994914619570
         N            0.688016240620     0.177057349706    -0.128499185496    14.003074004430
         H            0.693016240620     0.273057349706     0.872500814504     1.007825032230
         H           -0.029983759380     0.593057349706    -0.694499185496     1.007825032230
         H            2.264016240620    -1.480942650294    -2.485499185496     1.007825032230
         H            1.353016240620     0.021057349706    -2.681499185496     1.007825032230
         H            0.477486240620    -1.489892650294    -2.290716185496     1.007825032230

  Running in c1 symmetry.

  Rotational constants: A =      0.15101  B =      0.03339  C =      0.02894 [cm^-1]
  Rotational constants: A =   4527.12316  B =   1000.95785  C =    867.66942 [MHz]
  Nuclear repulsion =  311.668476901207839

  Charge       = 0
  Multiplicity = 1
  Electrons    = 58
  Nalpha       = 29
  Nbeta        = 29

  ==> Algorithm <==

  SCF Algorithm Type is PK.
  DIIS enabled.
  MOM disabled.
  Fractional occupation disabled.
  Guess Type is SAD.
  Energy threshold   = 1.00e-06
  Density threshold  = 1.00e-10
  Integral threshold = 0.00e+00

  ==> Primary Basis <==

  Basis Set: CC-PVDZ
    Blend: CC-PVDZ
    Number of shells: 75
    Number of basis function: 153
    Number of Cartesian functions: 160
    Spherical Harmonics?: true
    Max angular momentum: 2

  ==> Pre-Iterations <==

   -------------------------------------------------------
    Irrep   Nso     Nmo     Nalpha   Nbeta   Ndocc  Nsocc
   -------------------------------------------------------
     A        153     153       0       0       0       0
   -------------------------------------------------------
    Total     153     153      29      29      29       0
   -------------------------------------------------------

  ==> Integral Setup <==

  Using integral reordering PK algorithm.
  Sizing the integral batches needed.
  Building batch lookup table.
   Calculation information:
      Number of atoms:                  18
      Number of AO shells:              75
      Number of primitives:            209
      Number of atomic orbitals:       160
      Number of basis functions:       153

      Integral cutoff                 1.00e-12
      Number of threads:                 1

	Batch   1 pq = [       0,    9405] index = [             0,44231715] size =     44231715
	Batch   2 pq = [    9405,   11781] index = [      44231715,69401871] size =     25170156
  Task number: 7
  Buffer size: 11059200
  Buffer per thread: 2
  We computed 3670329 shell quartets total.
  Whereas there are 4062675 unique shell quartets.

  ==> DiskJK: Disk-Based J/K Matrices <==

    J tasked:                  Yes
    K tasked:                  Yes
    wK tasked:                  No
    Memory [MiB]:              375
    Schwarz Cutoff:          1E-12

    OpenMP threads:              1

  Minimum eigenvalue in the overlap matrix is 4.2890195656E-03.
  Using Symmetric Orthogonalization.

  SCF Guess: Superposition of Atomic Densities via on-the-fly atomic UHF.

  ==> Iterations <==

                        Total Energy        Delta E     RMS |[F,P]|

   @RHF iter SAD:  -360.85496892947123   -3.60855e+02   0.00000e+00
   @RHF iter   1:  -361.82700482624756   -9.72036e-01   4.48381e-03 DIIS
   @RHF iter   2:  -362.01882731672953   -1.91822e-01   2.49128e-03 DIIS
   @RHF iter   3:  -362.07234308445294   -5.35158e-02   4.97302e-04 DIIS
   @RHF iter   4:  -362.07582069677056   -3.47761e-03   2.04013e-04 DIIS
   @RHF iter   5:  -362.07640632246466   -5.85626e-04   3.77175e-05 DIIS
   @RHF iter   6:  -362.07644059818915   -3.42757e-05   1.80524e-05 DIIS
   @RHF iter   7:  -362.07644756287141   -6.96468e-06   6.32709e-06 DIIS
   @RHF iter   8:  -362.07644891745844   -1.35459e-06   2.28543e-06 DIIS
   @RHF iter   9:  -362.07644908770612   -1.70248e-07   7.30770e-07 DIIS
   @RHF iter  10:  -362.07644910243152   -1.47254e-08   2.24773e-07 DIIS
   @RHF iter  11:  -362.07644910373762   -1.30609e-09   4.87390e-08 DIIS
   @RHF iter  12:  -362.07644910379935   -6.17320e-11   1.73560e-08 DIIS
   @RHF iter  13:  -362.07644910380515   -5.79803e-12   4.23454e-09 DIIS
   @RHF iter  14:  -362.07644910380634   -1.19371e-12   1.22015e-09 DIIS
   @RHF iter  15:  -362.07644910380668   -3.41061e-13   4.17721e-10 DIIS
   @RHF iter  16:  -362.07644910380600    6.82121e-13   1.89287e-10 DIIS
   @RHF iter  17:  -362.07644910380441    1.59162e-12   7.65419e-11 DIIS
  Energy and wave function converged.

  ==> Post-Iterations <==

    Orbital Energies [Eh]
    ---------------------

    Doubly Occupied:

       1A    -20.575819     2A    -20.491261     3A    -15.569062
       4A    -11.331407     5A    -11.296560     6A    -11.238526
       7A    -11.232246     8A     -1.381427     9A     -1.357946
      10A     -1.208415    11A     -1.031714    12A     -0.993721
      13A     -0.851945    14A     -0.792980    15A     -0.721836
      16A     -0.715430    17A     -0.667901    18A     -0.641818
      19A     -0.607198    20A     -0.590983    21A     -0.561700
      22A     -0.554522    23A     -0.549621    24A     -0.537495
      25A     -0.511616    26A     -0.501119    27A     -0.460578
      28A     -0.398767    29A     -0.389107

    Virtual:

      30A      0.155029    31A      0.176778    32A      0.197084
      33A      0.201030    34A      0.231398    35A      0.235378
      36A      0.248518    37A      0.262778    38A      0.268230
      39A      0.293088    40A      0.310608    41A      0.327820
      42A      0.365928    43A      0.373250    44A      0.413566
      45A      0.471679    46A      0.553717    47A      0.591692
      48A      0.611029    49A      0.642907    50A      0.654235
      51A      0.659927    52A      0.708285    53A      0.724210
      54A      0.731253    55A      0.748819    56A      0.761339
      57A      0.802977    58A      0.834629    59A      0.842275
      60A      0.851287    61A      0.865623    62A      0.869248
      63A      0.885447    64A      0.891521    65A      0.908147
      66A      0.911218    67A      0.927283    68A      0.953427
      69A      0.985282    70A      1.033826    71A      1.043323
      72A      1.082468    73A      1.120714    74A      1.125900
      75A      1.148853    76A      1.164212    77A      1.210370
      78A      1.246042    79A      1.309504    80A      1.351513
      81A      1.368101    82A      1.403948    83A      1.418602
      84A      1.436804    85A      1.445490    86A      1.463739
      87A      1.480370    88A      1.507797    89A      1.547140
      90A      1.591216    91A      1.658781    92A      1.660854
      93A      1.664643    94A      1.682039    95A      1.737191
      96A      1.750739    97A      1.800381    98A      1.863252
      99A      1.868383   100A      1.880227   101A      1.883911
     102A      1.889365   103A      1.897072   104A      1.934953
     105A      1.946149   106A      1.950895   107A      1.960684
     108A      1.974693   109A      1.982148   110A      2.006151
     111A      2.023530   112A      2.092987   113A      2.112983
     114A      2.141090   115A      2.174528   116A      2.200774
     117A      2.231426   118A      2.253993   119A      2.271232
     120A      2.281470   121A      2.306150   122A      2.427265
     123A      2.467374   124A      2.477181   125A      2.502628
     126A      2.514613   127A      2.539777   128A      2.566309
     129A      2.586657   130A      2.630228   131A      2.674223
     132A      2.734253   133A      2.743784   134A      2.762997
     135A      2.765687   136A      2.788143   137A      2.800786
     138A      2.870430   139A      2.891662   140A      2.933506
     141A      3.044008   142A      3.110848   143A      3.157737
     144A      3.310200   145A      3.364047   146A      3.390456
     147A      3.461995   148A      3.534392   149A      3.556745
     150A      3.601199   151A      3.885740   152A      3.926742
     153A      4.100946

    Final Occupation by Irrep:
              A
    DOCC [    29 ]

  @RHF Final Energy:  -362.07644910380441

   => Energetics <=

    Nuclear Repulsion Energy =            311.6684769012078391
    One-Electron Energy =               -1111.9644095367264072
    Two-Electron Energy =                 438.2194835317141042
    Total Energy =                       -362.0764491038044071

Computation Completed

Properties will be evaluated at   0.000000,   0.000000,   0.000000 [a0]

Properties computed using the SCF density matrix

  Nuclear Dipole Moment: [e a0]
     X:    -8.4869      Y:     3.2985      Z:    -3.3958

  Electronic Dipole Moment: [e a0]
     X:     6.8758      Y:    -1.8375      Z:     2.9110

  Dipole Moment: [e a0]
     X:    -1.6111      Y:     1.4610      Z:    -0.4848     Total:     2.2283

  Dipole Moment: [D]
     X:    -4.0951      Y:     3.7134      Z:    -1.2323     Total:     5.6637

*** tstop() called on ds3 at Tue Apr 28 13:58:40 2020
Module time:
	user time   =      26.10 seconds =       0.43 minutes
	system time =      12.03 seconds =       0.20 minutes
	total time  =         37 seconds =       0.62 minutes
Total time:
	user time   =      26.10 seconds =       0.43 minutes
	system time =      12.03 seconds =       0.20 minutes
	total time  =         37 seconds =       0.62 minutes
                                     G D M A

                                 by Anthony Stone

                           version 2.2.06, 22 June 2011

               Distributed Multipoles from Gaussian wavefunctions

Starting at 13:58:40 on 28 Apr 2020

Using SCF density matrix from file ./SSI/SSI-023SER-051ASN-1-dimer.test.3081.fchk

                         Distributed Multipole Analysis

Standard DMA

Positions and radii in angstrom
Multipole moments in atomic units, ea_0^k for rank k

C          x = -1.960984  y =  1.325057  z =  0.861501 angstrom
           Maximum rank =  0   Radius =  0.650 angstrom
                   Q00  =   0.064679

C          x = -2.891984  y =  0.398057  z =  0.101501 angstrom
           Maximum rank =  0   Radius =  0.650 angstrom
                   Q00  =  -0.230687

O          x = -1.155984  y =  0.560057  z =  1.742501 angstrom
           Maximum rank =  0   Radius =  0.650 angstrom
                   Q00  =  -0.555502

H          x = -1.338984  y =  1.882057  z =  0.160501 angstrom
           Maximum rank =  0   Radius =  0.325 angstrom
                   Q00  =   0.013355

H          x = -2.551984  y =  2.038057  z =  1.437501 angstrom
           Maximum rank =  0   Radius =  0.325 angstrom
                   Q00  =   0.064302

H          x = -2.275984  y = -0.323943  z = -0.431499 angstrom
           Maximum rank =  0   Radius =  0.325 angstrom
                   Q00  =   0.084057

H          x = -0.634984  y =  1.195057  z =  2.258501 angstrom
           Maximum rank =  0   Radius =  0.325 angstrom
                   Q00  =   0.389394

H          x = -3.510131  y =  0.973077  z = -0.603659 angstrom
           Maximum rank =  0   Radius =  0.325 angstrom
                   Q00  =   0.089400

H          x = -3.503333  y = -0.158837  z =  0.826841 angstrom
           Maximum rank =  0   Radius =  0.325 angstrom
                   Q00  =   0.102369

C          x =  1.402016  y = -0.916943  z = -2.126499 angstrom
           Maximum rank =  0   Radius =  0.650 angstrom
                   Q00  =  -0.272546

C          x =  1.596016  y = -0.600943  z = -0.671499 angstrom
           Maximum rank =  0   Radius =  0.650 angstrom
                   Q00  =   0.841777

O          x =  2.516016  y = -1.090943  z = -0.024499 angstrom
           Maximum rank =  0   Radius =  0.650 angstrom
                   Q00  =  -0.809970

N          x =  0.688016  y =  0.177057  z = -0.128499 angstrom
           Maximum rank =  0   Radius =  0.650 angstrom
                   Q00  =  -0.537475

H          x =  0.693016  y =  0.273057  z =  0.872501 angstrom
           Maximum rank =  0   Radius =  0.325 angstrom
                   Q00  =   0.228287

H          x = -0.029984  y =  0.593057  z = -0.694499 angstrom
           Maximum rank =  0   Radius =  0.325 angstrom
                   Q00  =   0.195616

H          x =  2.264016  y = -1.480943  z = -2.485499 angstrom
           Maximum rank =  0   Radius =  0.325 angstrom
                   Q00  =   0.126236

H          x =  1.353016  y =  0.021057  z = -2.681499 angstrom
           Maximum rank =  0   Radius =  0.325 angstrom
                   Q00  =   0.094451

H          x =  0.477486  y = -1.489893  z = -2.290716 angstrom
           Maximum rank =  0   Radius =  0.325 angstrom
                   Q00  =   0.112256

Total multipoles referred to origin at
           x =   0.000000,  y =    0.000000,  z =    0.000000 angstrom
                   Q00  =  -0.000000

Finished at 13:58:40 on 28 Apr 2020

  DMA results are available in the Python driver through the
	  variable('DMA DISTRIBUTED MULTIPOLES')
  and
	  variable('DMA TOTAL MULTIPOLES')
  commands.

    Psi4 stopped on: Tuesday, 28 April 2020 01:58PM
    Psi4 wall time for execution: 0:00:37.16

*** Psi4 exiting successfully. Buy a developer a beer!
