                               Psi4 1.3.2 release

  ==> Input File <==

--------------------------------------------------------------------------
import numpy as np
set {scf_type pk
basis cc-pvdz
d_convergence 10
gdma_switch   0
gdma_limit    0
gdma_origin   [ 0.0,  0.0,  0.0 ]
}
molecule test {
    units Angstrom
    -1 1
    --
    -1 1
    C                1.100971076802638     1.222187134230559    -3.201268693850676
    C                1.458971076802637     0.516187134230560    -1.917268693850676
    O                1.070971076802637     1.098187134230560    -0.896268693850676
    O                2.106971076802638    -0.563812865769440    -1.942268693850676
    H                1.574971076802637     2.206187134230559    -3.209268693850675
    H                0.018971076802638     1.368187134230560    -3.239268693850676
    H                1.427801076802637     0.672196134230560    -4.096088693850676
    C               -1.862028923197363    -0.205812865769440    -0.296268693850676
    C               -2.171028923197362    -1.630812865769441    -0.780268693850676
    C               -1.078028923197363    -0.151812865769440     0.992731306149324
    C               -1.506028923197362    -0.168812865769440     2.281731306149325
    C                0.690971076802637    -0.001812865769440     2.304731306149324
    N                0.290971076802638    -0.071812865769440     1.053731306149324
    N               -0.383028923197362    -0.083812865769440     3.080731306148324
    H               -1.350028923197363     0.343187134230560    -1.085268693850676
    H               -2.811028923197362     0.302187134230560    -0.121268693850676
    H               -2.598028923197362    -2.176812865769441     0.059731306149324
    H               -2.535028923197363    -0.238812865769440     2.611731306149324
    H                1.719971076802637     0.063187134230560     2.645731306149325
    H               -0.368028923197363    -0.105812865769440     4.093731306149325
    H               -1.244968923197362    -2.111666865769441    -1.128398693850676
    H               -2.910968923197362    -1.631530865769441    -1.594198693850676

}
e, wfn = energy('scf', return_wfn=True)
gdma(wfn)
dmavals = variable('DMA DISTRIBUTED MULTIPOLES')
charges = np.array(dmavals)
print(charges)
np.save('SSI-031ASP-034HIE-1-dimer.npy', np.array(charges))--------------------------------------------------------------------------

*** tstart() called on ds3
*** at Mon Apr 27 12:45:40 2020

   => Loading Basis Set <=

    Name: CC-PVDZ
    Role: ORBITAL
    Keyword: BASIS
    atoms 1-2, 8-12  entry C          line   138 file /theoryfs2/ds/metcalf/miniconda2/envs/tf2gpu/share/psi4/basis/cc-pvdz.gbs
    atoms 3-4        entry O          line   198 file /theoryfs2/ds/metcalf/miniconda2/envs/tf2gpu/share/psi4/basis/cc-pvdz.gbs
    atoms 5-7, 15-22 entry H          line    22 file /theoryfs2/ds/metcalf/miniconda2/envs/tf2gpu/share/psi4/basis/cc-pvdz.gbs
    atoms 13-14      entry N          line   168 file /theoryfs2/ds/metcalf/miniconda2/envs/tf2gpu/share/psi4/basis/cc-pvdz.gbs

         ---------------------------------------------------------
                                   SCF
               by Justin Turney, Rob Parrish, Andy Simmonett
                          and Daniel G. A. Smith
                              RHF Reference
                        1 Threads,    500 MiB Core
         ---------------------------------------------------------

  ==> Geometry <==

    Molecular point group: c1
    Full point group: C1

    Geometry (in Angstrom), charge = -1, multiplicity = 1:

       Center              X                  Y                   Z               Mass
    ------------   -----------------  -----------------  -----------------  -----------------
         C            1.100971076803     1.222187134231    -3.201268693851    12.000000000000
         C            1.458971076803     0.516187134231    -1.917268693851    12.000000000000
         O            1.070971076803     1.098187134231    -0.896268693851    15.994914619570
         O            2.106971076803    -0.563812865769    -1.942268693851    15.994914619570
         H            1.574971076803     2.206187134231    -3.209268693851     1.007825032230
         H            0.018971076803     1.368187134231    -3.239268693851     1.007825032230
         H            1.427801076803     0.672196134231    -4.096088693851     1.007825032230
         C           -1.862028923197    -0.205812865769    -0.296268693851    12.000000000000
         C           -2.171028923197    -1.630812865769    -0.780268693851    12.000000000000
         C           -1.078028923197    -0.151812865769     0.992731306149    12.000000000000
         C           -1.506028923197    -0.168812865769     2.281731306149    12.000000000000
         C            0.690971076803    -0.001812865769     2.304731306149    12.000000000000
         N            0.290971076803    -0.071812865769     1.053731306149    14.003074004430
         N           -0.383028923197    -0.083812865769     3.080731306148    14.003074004430
         H           -1.350028923197     0.343187134231    -1.085268693851     1.007825032230
         H           -2.811028923197     0.302187134231    -0.121268693851     1.007825032230
         H           -2.598028923197    -2.176812865769     0.059731306149     1.007825032230
         H           -2.535028923197    -0.238812865769     2.611731306149     1.007825032230
         H            1.719971076803     0.063187134231     2.645731306149     1.007825032230
         H           -0.368028923197    -0.105812865769     4.093731306149     1.007825032230
         H           -1.244968923197    -2.111666865769    -1.128398693851     1.007825032230
         H           -2.910968923197    -1.631530865769    -1.594198693851     1.007825032230

  Running in c1 symmetry.

  Rotational constants: A =      0.05403  B =      0.02170  C =      0.01752 [cm^-1]
  Rotational constants: A =   1619.85045  B =    650.45953  C =    525.15083 [MHz]
  Nuclear repulsion =  599.744832952831530

  Charge       = -1
  Multiplicity = 1
  Electrons    = 84
  Nalpha       = 42
  Nbeta        = 42

  ==> Algorithm <==

  SCF Algorithm Type is PK.
  DIIS enabled.
  MOM disabled.
  Fractional occupation disabled.
  Guess Type is SAD.
  Energy threshold   = 1.00e-06
  Density threshold  = 1.00e-10
  Integral threshold = 0.00e+00

  ==> Primary Basis <==

  Basis Set: CC-PVDZ
    Blend: CC-PVDZ
    Number of shells: 99
    Number of basis function: 209
    Number of Cartesian functions: 220
    Spherical Harmonics?: true
    Max angular momentum: 2

  ==> Pre-Iterations <==

   -------------------------------------------------------
    Irrep   Nso     Nmo     Nalpha   Nbeta   Ndocc  Nsocc
   -------------------------------------------------------
     A        209     209       0       0       0       0
   -------------------------------------------------------
    Total     209     209      42      42      42       0
   -------------------------------------------------------

  ==> Integral Setup <==

  Using integral reordering PK algorithm.
  Sizing the integral batches needed.
  Building batch lookup table.
   Calculation information:
      Number of atoms:                  22
      Number of AO shells:              99
      Number of primitives:            297
      Number of atomic orbitals:       220
      Number of basis functions:       209

      Integral cutoff                 1.00e-12
      Number of threads:                 1

	Batch   1 pq = [       0,    9405] index = [             0,44231715] size =     44231715
	Batch   2 pq = [    9405,   13301] index = [      44231715,88464951] size =     44233236
	Batch   3 pq = [   13301,   16290] index = [      88464951,132690195] size =     44225244
	Batch   4 pq = [   16290,   18810] index = [     132690195,176917455] size =     44227260
	Batch   5 pq = [   18810,   21030] index = [     176917455,221140965] size =     44223510
	Batch   6 pq = [   21030,   21945] index = [     221140965,240802485] size =     19661520
  Task number: 22
  Buffer size: 11059200
  Buffer per thread: 2
  We computed 11041449 shell quartets total.
  Whereas there are 12253725 unique shell quartets.

  ==> DiskJK: Disk-Based J/K Matrices <==

    J tasked:                  Yes
    K tasked:                  Yes
    wK tasked:                  No
    Memory [MiB]:              375
    Schwarz Cutoff:          1E-12

    OpenMP threads:              1

  Minimum eigenvalue in the overlap matrix is 1.1274576353E-03.
  Using Symmetric Orthogonalization.

  SCF Guess: Superposition of Atomic Densities via on-the-fly atomic UHF.

  ==> Iterations <==

                        Total Energy        Delta E     RMS |[F,P]|

   @RHF iter SAD:  -528.77091678892464   -5.28771e+02   0.00000e+00
   @RHF iter   1:  -529.71537508179938   -9.44458e-01   4.07669e-03 DIIS
   @RHF iter   2:  -529.98685762886214   -2.71483e-01   2.53352e-03 DIIS
   @RHF iter   3:  -530.09885720267209   -1.12000e-01   4.52075e-04 DIIS
   @RHF iter   4:  -530.10413052788522   -5.27333e-03   1.92098e-04 DIIS
   @RHF iter   5:  -530.10512181571721   -9.91288e-04   4.06582e-05 DIIS
   @RHF iter   6:  -530.10517840983232   -5.65941e-05   1.77847e-05 DIIS
   @RHF iter   7:  -530.10519076934781   -1.23595e-05   5.68007e-06 DIIS
   @RHF iter   8:  -530.10519279831897   -2.02897e-06   2.50757e-06 DIIS
   @RHF iter   9:  -530.10519322933169   -4.31013e-07   1.16367e-06 DIIS
   @RHF iter  10:  -530.10519333177012   -1.02438e-07   3.69101e-07 DIIS
   @RHF iter  11:  -530.10519334136757   -9.59744e-09   1.52357e-07 DIIS
   @RHF iter  12:  -530.10519334283424   -1.46667e-09   5.53082e-08 DIIS
   @RHF iter  13:  -530.10519334303149   -1.97247e-10   1.69361e-08 DIIS
   @RHF iter  14:  -530.10519334304388   -1.23919e-11   5.70399e-09 DIIS
   @RHF iter  15:  -530.10519334305104   -7.16227e-12   2.14318e-09 DIIS
   @RHF iter  16:  -530.10519334304968    1.36424e-12   9.47069e-10 DIIS
   @RHF iter  17:  -530.10519334304968    0.00000e+00   3.54737e-10 DIIS
   @RHF iter  18:  -530.10519334305218   -2.50111e-12   1.32606e-10 DIIS
   @RHF iter  19:  -530.10519334304922    2.95586e-12   5.25327e-11 DIIS
  Energy and wave function converged.

  ==> Post-Iterations <==

    Orbital Energies [Eh]
    ---------------------

    Doubly Occupied:

       1A    -20.241910     2A    -20.235530     3A    -15.493538
       4A    -15.376665     5A    -11.152932     6A    -11.127074
       7A    -11.109312     8A    -11.100109     9A    -11.095983
      10A    -11.095644    11A    -11.036221    12A     -1.212873
      13A     -1.131940    14A     -1.023531    15A     -1.016877
      16A     -0.922115    17A     -0.860050    18A     -0.783702
      19A     -0.735261    20A     -0.685849    21A     -0.629684
      22A     -0.610463    23A     -0.495169    24A     -0.486517
      25A     -0.476889    26A     -0.472932    27A     -0.459803
      28A     -0.440357    29A     -0.401225    30A     -0.394708
      31A     -0.388832    32A     -0.385620    33A     -0.366655
      34A     -0.354029    35A     -0.330093    36A     -0.289153
      37A     -0.251764    38A     -0.235276    39A     -0.183812
      40A     -0.159699    41A     -0.148663    42A     -0.136397

    Virtual:

      43A      0.278014    44A      0.295575    45A      0.312395
      46A      0.332768    47A      0.344558    48A      0.356857
      49A      0.366272    50A      0.384628    51A      0.395794
      52A      0.398381    53A      0.408954    54A      0.422538
      55A      0.469972    56A      0.491398    57A      0.512779
      58A      0.520252    59A      0.543839    60A      0.567666
      61A      0.593008    62A      0.611859    63A      0.620099
      64A      0.700884    65A      0.723695    66A      0.741662
      67A      0.748619    68A      0.760788    69A      0.770734
      70A      0.791228    71A      0.814807    72A      0.825158
      73A      0.840239    74A      0.853469    75A      0.874567
      76A      0.885847    77A      0.892359    78A      0.938149
      79A      0.950617    80A      0.971771    81A      0.985270
      82A      1.001885    83A      1.010025    84A      1.017329
      85A      1.027723    86A      1.038666    87A      1.043753
      88A      1.051024    89A      1.054351    90A      1.059291
      91A      1.069197    92A      1.083051    93A      1.088877
      94A      1.102742    95A      1.117745    96A      1.149720
      97A      1.164361    98A      1.174837    99A      1.198623
     100A      1.220960   101A      1.247361   102A      1.258431
     103A      1.270175   104A      1.314362   105A      1.350802
     106A      1.359341   107A      1.364731   108A      1.380348
     109A      1.396201   110A      1.427053   111A      1.445581
     112A      1.453765   113A      1.482010   114A      1.505806
     115A      1.524793   116A      1.561093   117A      1.566516
     118A      1.584334   119A      1.600801   120A      1.635741
     121A      1.641779   122A      1.664304   123A      1.683102
     124A      1.702197   125A      1.718494   126A      1.739913
     127A      1.756656   128A      1.792594   129A      1.817914
     130A      1.852582   131A      1.858031   132A      1.865856
     133A      1.893185   134A      1.903117   135A      1.923948
     136A      1.958178   137A      1.981416   138A      1.992633
     139A      2.019862   140A      2.039902   141A      2.051680
     142A      2.065160   143A      2.077538   144A      2.093516
     145A      2.098834   146A      2.102403   147A      2.112160
     148A      2.112926   149A      2.129694   150A      2.134962
     151A      2.170644   152A      2.186698   153A      2.190947
     154A      2.217081   155A      2.236714   156A      2.243582
     157A      2.273127   158A      2.322381   159A      2.323948
     160A      2.339938   161A      2.367633   162A      2.394953
     163A      2.415530   164A      2.432798   165A      2.450277
     166A      2.458951   167A      2.482087   168A      2.519844
     169A      2.566916   170A      2.584704   171A      2.616212
     172A      2.633429   173A      2.653840   174A      2.663496
     175A      2.696769   176A      2.730797   177A      2.742791
     178A      2.752521   179A      2.796263   180A      2.807092
     181A      2.875985   182A      2.888699   183A      2.895241
     184A      2.931244   185A      2.935663   186A      2.972620
     187A      2.974931   188A      2.989055   189A      3.020223
     190A      3.030775   191A      3.043326   192A      3.068851
     193A      3.075240   194A      3.168446   195A      3.230016
     196A      3.268176   197A      3.296790   198A      3.308704
     199A      3.336072   200A      3.389029   201A      3.422877
     202A      3.621516   203A      3.643585   204A      3.838985
     205A      3.872434   206A      3.928024   207A      4.073611
     208A      4.133288   209A      4.232490

    Final Occupation by Irrep:
              A
    DOCC [    42 ]

  @RHF Final Energy:  -530.10519334304922

   => Energetics <=

    Nuclear Repulsion Energy =            599.7448329528315298
    One-Electron Energy =               -1928.6303344154396200
    Two-Electron Energy =                 798.7803081195588675
    Total Energy =                       -530.1051933430492227

Computation Completed

Properties will be evaluated at   0.000000,   0.000000,   0.000000 [a0]

Properties computed using the SCF density matrix

  Nuclear Dipole Moment: [e a0]
     X:    -8.4933      Y:    -1.2246      Z:    -4.7719

  Electronic Dipole Moment: [e a0]
     X:     5.7234      Y:     1.0516      Z:     8.0317

  Dipole Moment: [e a0]
     X:    -2.7699      Y:    -0.1730      Z:     3.2598     Total:     4.2812

  Dipole Moment: [D]
     X:    -7.0404      Y:    -0.4397      Z:     8.2855     Total:    10.8816

*** tstop() called on ds3 at Mon Apr 27 12:48:27 2020
Module time:
	user time   =     100.37 seconds =       1.67 minutes
	system time =      46.50 seconds =       0.78 minutes
	total time  =        167 seconds =       2.78 minutes
Total time:
	user time   =     100.37 seconds =       1.67 minutes
	system time =      46.50 seconds =       0.78 minutes
	total time  =        167 seconds =       2.78 minutes
                                     G D M A

                                 by Anthony Stone

                           version 2.2.06, 22 June 2011

               Distributed Multipoles from Gaussian wavefunctions

Starting at 12:48:27 on 27 Apr 2020

Using SCF density matrix from file ./SSI/SSI-031ASP-034HIE-1-dimer.test.3995.fchk

                         Distributed Multipole Analysis

Standard DMA

Positions and radii in angstrom
Multipole moments in atomic units, ea_0^k for rank k

C          x =  1.100971  y =  1.222187  z = -3.201269 angstrom
           Maximum rank =  0   Radius =  0.650 angstrom
                   Q00  =  -0.265994

C          x =  1.458971  y =  0.516187  z = -1.917269 angstrom
           Maximum rank =  0   Radius =  0.650 angstrom
                   Q00  =   0.948161

O          x =  1.070971  y =  1.098187  z = -0.896269 angstrom
           Maximum rank =  0   Radius =  0.650 angstrom
                   Q00  =  -0.837097

O          x =  2.106971  y = -0.563813  z = -1.942269 angstrom
           Maximum rank =  0   Radius =  0.650 angstrom
                   Q00  =  -0.943465

H          x =  1.574971  y =  2.206187  z = -3.209269 angstrom
           Maximum rank =  0   Radius =  0.325 angstrom
                   Q00  =   0.065796

H          x =  0.018971  y =  1.368187  z = -3.239269 angstrom
           Maximum rank =  0   Radius =  0.325 angstrom
                   Q00  =   0.059232

H          x =  1.427801  y =  0.672196  z = -4.096089 angstrom
           Maximum rank =  0   Radius =  0.325 angstrom
                   Q00  =   0.027937

C          x = -1.862029  y = -0.205813  z = -0.296269 angstrom
           Maximum rank =  0   Radius =  0.650 angstrom
                   Q00  =  -0.027103

C          x = -2.171029  y = -1.630813  z = -0.780269 angstrom
           Maximum rank =  0   Radius =  0.650 angstrom
                   Q00  =  -0.230063

C          x = -1.078029  y = -0.151813  z =  0.992731 angstrom
           Maximum rank =  0   Radius =  0.650 angstrom
                   Q00  =   0.276639

C          x = -1.506029  y = -0.168813  z =  2.281731 angstrom
           Maximum rank =  0   Radius =  0.650 angstrom
                   Q00  =  -0.041436

C          x =  0.690971  y = -0.001813  z =  2.304731 angstrom
           Maximum rank =  0   Radius =  0.650 angstrom
                   Q00  =   0.431682

N          x =  0.290971  y = -0.071813  z =  1.053731 angstrom
           Maximum rank =  0   Radius =  0.650 angstrom
                   Q00  =  -0.724260

N          x = -0.383029  y = -0.083813  z =  3.080731 angstrom
           Maximum rank =  0   Radius =  0.650 angstrom
                   Q00  =  -0.450596

H          x = -1.350029  y =  0.343187  z = -1.085269 angstrom
           Maximum rank =  0   Radius =  0.325 angstrom
                   Q00  =   0.126758

H          x = -2.811029  y =  0.302187  z = -0.121269 angstrom
           Maximum rank =  0   Radius =  0.325 angstrom
                   Q00  =   0.014516

H          x = -2.598029  y = -2.176813  z =  0.059731 angstrom
           Maximum rank =  0   Radius =  0.325 angstrom
                   Q00  =   0.049618

H          x = -2.535029  y = -0.238813  z =  2.611731 angstrom
           Maximum rank =  0   Radius =  0.325 angstrom
                   Q00  =   0.075264

H          x =  1.719971  y =  0.063187  z =  2.645731 angstrom
           Maximum rank =  0   Radius =  0.325 angstrom
                   Q00  =   0.104576

H          x = -0.368029  y = -0.105813  z =  4.093731 angstrom
           Maximum rank =  0   Radius =  0.325 angstrom
                   Q00  =   0.177461

H          x = -1.244969  y = -2.111667  z = -1.128399 angstrom
           Maximum rank =  0   Radius =  0.325 angstrom
                   Q00  =   0.109290

H          x = -2.910969  y = -1.631531  z = -1.594199 angstrom
           Maximum rank =  0   Radius =  0.325 angstrom
                   Q00  =   0.053084

Total multipoles referred to origin at
           x =   0.000000,  y =    0.000000,  z =    0.000000 angstrom
                   Q00  =  -1.000000

Finished at 12:48:27 on 27 Apr 2020

  DMA results are available in the Python driver through the
	  variable('DMA DISTRIBUTED MULTIPOLES')
  and
	  variable('DMA TOTAL MULTIPOLES')
  commands.

    Psi4 stopped on: Monday, 27 April 2020 12:48PM
    Psi4 wall time for execution: 0:02:47.21

*** Psi4 exiting successfully. Buy a developer a beer!
