                               Psi4 1.3.2 release

  ==> Input File <==

--------------------------------------------------------------------------
import numpy as np
set {scf_type pk
basis cc-pvdz
d_convergence 10
gdma_switch   0
gdma_limit    0
gdma_origin   [ 0.0,  0.0,  0.0 ]
}
molecule test {
    units Angstrom
    0 1
    --
    0 1
    C                2.177146036866482    -0.370468831572198     0.163527979331093
    C                2.945146036866481    -0.975468831572198    -0.984472020668907
    H                1.317146036866482    -0.994468831572198     0.340527979331093
    H                2.804146036866481    -0.409468831572198     1.047527979331093
    H                1.916146036866482     0.669531168427802    -0.018472020668907
    H                2.816146036866482    -2.058468831572198    -0.951472020668907
    H                4.009146036866482    -0.769468831572198    -0.856472020668907
    H                2.588976036866481    -0.569136031572198    -1.942615020668908
    C               -0.992853963133518     1.366531168427802    -1.774472020668908
    C               -1.074853963133519    -1.041468831572198     0.964527979331092
    C               -0.904853963133519     0.641531168427802    -0.451472020668908
    C               -0.698853963133518     1.105531168427802     0.815527979331093
    N               -1.186853963133518    -0.694468831572198    -0.327472020668908
    N               -0.774853963133519     0.028531168427802     1.674527979331092
    H               -1.241853963133518    -2.032468831572198     1.367527979331093
    H               -0.693853963133518     0.064531168427802     2.695527979331093
    H               -0.401853963133518     2.101531168427802     1.052527979331092
    H               -1.859853963133518     0.968531168427802    -2.301472020668907
    H               -0.139853963133518     1.184531168427802    -2.410472020668907
    H               -1.133113963133519     2.451011168427802    -1.655179020668907

}
e, wfn = energy('scf', return_wfn=True)
gdma(wfn)
dmavals = variable('DMA DISTRIBUTED MULTIPOLES')
charges = np.array(dmavals)
print(charges)
np.save('SSI-015ILE-136HIE-1-dimer.npy', np.array(charges))--------------------------------------------------------------------------

*** tstart() called on ds3
*** at Sun Apr 26 17:06:39 2020

   => Loading Basis Set <=

    Name: CC-PVDZ
    Role: ORBITAL
    Keyword: BASIS
    atoms 1-2, 9-12  entry C          line   138 file /theoryfs2/ds/metcalf/miniconda2/envs/tf2gpu/share/psi4/basis/cc-pvdz.gbs
    atoms 3-8, 15-20 entry H          line    22 file /theoryfs2/ds/metcalf/miniconda2/envs/tf2gpu/share/psi4/basis/cc-pvdz.gbs
    atoms 13-14      entry N          line   168 file /theoryfs2/ds/metcalf/miniconda2/envs/tf2gpu/share/psi4/basis/cc-pvdz.gbs

         ---------------------------------------------------------
                                   SCF
               by Justin Turney, Rob Parrish, Andy Simmonett
                          and Daniel G. A. Smith
                              RHF Reference
                        1 Threads,    500 MiB Core
         ---------------------------------------------------------

  ==> Geometry <==

    Molecular point group: c1
    Full point group: C1

    Geometry (in Angstrom), charge = 0, multiplicity = 1:

       Center              X                  Y                   Z               Mass
    ------------   -----------------  -----------------  -----------------  -----------------
         C            2.177146036866    -0.370468831572     0.163527979331    12.000000000000
         C            2.945146036866    -0.975468831572    -0.984472020669    12.000000000000
         H            1.317146036866    -0.994468831572     0.340527979331     1.007825032230
         H            2.804146036866    -0.409468831572     1.047527979331     1.007825032230
         H            1.916146036866     0.669531168428    -0.018472020669     1.007825032230
         H            2.816146036866    -2.058468831572    -0.951472020669     1.007825032230
         H            4.009146036866    -0.769468831572    -0.856472020669     1.007825032230
         H            2.588976036866    -0.569136031572    -1.942615020669     1.007825032230
         C           -0.992853963134     1.366531168428    -1.774472020669    12.000000000000
         C           -1.074853963134    -1.041468831572     0.964527979331    12.000000000000
         C           -0.904853963134     0.641531168428    -0.451472020669    12.000000000000
         C           -0.698853963134     1.105531168428     0.815527979331    12.000000000000
         N           -1.186853963134    -0.694468831572    -0.327472020669    14.003074004430
         N           -0.774853963134     0.028531168428     1.674527979331    14.003074004430
         H           -1.241853963134    -2.032468831572     1.367527979331     1.007825032230
         H           -0.693853963134     0.064531168428     2.695527979331     1.007825032230
         H           -0.401853963134     2.101531168428     1.052527979331     1.007825032230
         H           -1.859853963134     0.968531168428    -2.301472020669     1.007825032230
         H           -0.139853963134     1.184531168428    -2.410472020669     1.007825032230
         H           -1.133113963134     2.451011168428    -1.655179020669     1.007825032230

  Running in c1 symmetry.

  Rotational constants: A =      0.07888  B =      0.04567  C =      0.03631 [cm^-1]
  Rotational constants: A =   2364.66376  B =   1369.11096  C =   1088.57202 [MHz]
  Nuclear repulsion =  372.631049846780627

  Charge       = 0
  Multiplicity = 1
  Electrons    = 62
  Nalpha       = 31
  Nbeta        = 31

  ==> Algorithm <==

  SCF Algorithm Type is PK.
  DIIS enabled.
  MOM disabled.
  Fractional occupation disabled.
  Guess Type is SAD.
  Energy threshold   = 1.00e-06
  Density threshold  = 1.00e-10
  Integral threshold = 0.00e+00

  ==> Primary Basis <==

  Basis Set: CC-PVDZ
    Blend: CC-PVDZ
    Number of shells: 84
    Number of basis function: 172
    Number of Cartesian functions: 180
    Spherical Harmonics?: true
    Max angular momentum: 2

  ==> Pre-Iterations <==

   -------------------------------------------------------
    Irrep   Nso     Nmo     Nalpha   Nbeta   Ndocc  Nsocc
   -------------------------------------------------------
     A        172     172       0       0       0       0
   -------------------------------------------------------
    Total     172     172      31      31      31       0
   -------------------------------------------------------

  ==> Integral Setup <==

  Using integral reordering PK algorithm.
  Sizing the integral batches needed.
  Building batch lookup table.
   Calculation information:
      Number of atoms:                  20
      Number of AO shells:              84
      Number of primitives:            236
      Number of atomic orbitals:       180
      Number of basis functions:       172

      Integral cutoff                 1.00e-12
      Number of threads:                 1

	Batch   1 pq = [       0,    9405] index = [             0,44231715] size =     44231715
	Batch   2 pq = [    9405,   13301] index = [      44231715,88464951] size =     44233236
	Batch   3 pq = [   13301,   14878] index = [      88464951,110684881] size =     22219930
  Task number: 11
  Buffer size: 11059200
  Buffer per thread: 2
  We computed 6302987 shell quartets total.
  Whereas there are 6374235 unique shell quartets.

  ==> DiskJK: Disk-Based J/K Matrices <==

    J tasked:                  Yes
    K tasked:                  Yes
    wK tasked:                  No
    Memory [MiB]:              375
    Schwarz Cutoff:          1E-12

    OpenMP threads:              1

  Minimum eigenvalue in the overlap matrix is 1.1474054027E-03.
  Using Symmetric Orthogonalization.

  SCF Guess: Superposition of Atomic Densities via on-the-fly atomic UHF.

  ==> Iterations <==

                        Total Energy        Delta E     RMS |[F,P]|

   @RHF iter SAD:  -342.30529542131313   -3.42305e+02   0.00000e+00
   @RHF iter   1:  -342.87026435526570   -5.64969e-01   3.40358e-03 DIIS
   @RHF iter   2:  -343.04399588218411   -1.73732e-01   1.75071e-03 DIIS
   @RHF iter   3:  -343.08678533085799   -4.27894e-02   4.47529e-04 DIIS
   @RHF iter   4:  -343.09040281080513   -3.61748e-03   1.84734e-04 DIIS
   @RHF iter   5:  -343.09098671887807   -5.83908e-04   2.67697e-05 DIIS
   @RHF iter   6:  -343.09100755147506   -2.08326e-05   1.13642e-05 DIIS
   @RHF iter   7:  -343.09101082982568   -3.27835e-06   3.90735e-06 DIIS
   @RHF iter   8:  -343.09101151976586   -6.89940e-07   1.60202e-06 DIIS
   @RHF iter   9:  -343.09101167582412   -1.56058e-07   6.09146e-07 DIIS
   @RHF iter  10:  -343.09101169364521   -1.78211e-08   1.89429e-07 DIIS
   @RHF iter  11:  -343.09101169568260   -2.03738e-09   8.39361e-08 DIIS
   @RHF iter  12:  -343.09101169595829   -2.75691e-10   3.24983e-08 DIIS
   @RHF iter  13:  -343.09101169600319   -4.49063e-11   9.21786e-09 DIIS
   @RHF iter  14:  -343.09101169601092   -7.73070e-12   3.55949e-09 DIIS
   @RHF iter  15:  -343.09101169601138   -4.54747e-13   1.39970e-09 DIIS
   @RHF iter  16:  -343.09101169600939    1.98952e-12   4.28523e-10 DIIS
   @RHF iter  17:  -343.09101169601087   -1.47793e-12   1.34805e-10 DIIS
   @RHF iter  18:  -343.09101169601183   -9.66338e-13   5.05402e-11 DIIS
  Energy and wave function converged.

  ==> Post-Iterations <==

    Orbital Energies [Eh]
    ---------------------

    Doubly Occupied:

       1A    -15.625751     2A    -15.528460     3A    -11.293810
       4A    -11.248219     5A    -11.243238     6A    -11.224944
       7A    -11.204229     8A    -11.195332     9A     -1.343200
      10A     -1.154641    11A     -1.026682    12A     -1.012504
      13A     -0.942964    14A     -0.823664    15A     -0.818978
      16A     -0.762080    17A     -0.744399    18A     -0.613917
      19A     -0.608650    20A     -0.597422    21A     -0.593961
      22A     -0.582009    23A     -0.553515    24A     -0.541526
      25A     -0.523396    26A     -0.487619    27A     -0.474753
      28A     -0.465681    29A     -0.409188    30A     -0.378590
      31A     -0.306844

    Virtual:

      32A      0.169233    33A      0.180934    34A      0.183334
      35A      0.209501    36A      0.223995    37A      0.226073
      38A      0.234777    39A      0.255050    40A      0.264211
      41A      0.271772    42A      0.282513    43A      0.308942
      44A      0.337650    45A      0.354300    46A      0.382005
      47A      0.386451    48A      0.412188    49A      0.421839
      50A      0.483481    51A      0.502889    52A      0.582905
      53A      0.593725    54A      0.613157    55A      0.619989
      56A      0.643629    57A      0.659631    58A      0.665147
      59A      0.682084    60A      0.708210    61A      0.739361
      62A      0.751988    63A      0.766352    64A      0.802211
      65A      0.808144    66A      0.842425    67A      0.850067
      68A      0.871069    69A      0.881605    70A      0.894447
      71A      0.902022    72A      0.907944    73A      0.913214
      74A      0.926830    75A      0.938436    76A      0.948399
      77A      0.958461    78A      0.975353    79A      0.981669
      80A      0.992934    81A      1.008036    82A      1.039590
      83A      1.053790    84A      1.065632    85A      1.113842
      86A      1.128934    87A      1.147507    88A      1.174580
      89A      1.181580    90A      1.238336    91A      1.260641
      92A      1.272045    93A      1.288207    94A      1.316017
      95A      1.329738    96A      1.355763    97A      1.426594
      98A      1.452737    99A      1.489097   100A      1.494469
     101A      1.525575   102A      1.537858   103A      1.572817
     104A      1.595679   105A      1.632683   106A      1.677394
     107A      1.697634   108A      1.701166   109A      1.729233
     110A      1.769494   111A      1.775681   112A      1.813339
     113A      1.818334   114A      1.860885   115A      1.875850
     116A      1.887758   117A      1.909551   118A      1.928411
     119A      1.935015   120A      1.939891   121A      1.950575
     122A      1.958954   123A      1.966766   124A      1.975782
     125A      1.984997   126A      2.005766   127A      2.025720
     128A      2.061134   129A      2.088095   130A      2.100710
     131A      2.123607   132A      2.141766   133A      2.179601
     134A      2.194594   135A      2.212594   136A      2.230786
     137A      2.296279   138A      2.315749   139A      2.326400
     140A      2.345142   141A      2.373272   142A      2.400986
     143A      2.443564   144A      2.447246   145A      2.459583
     146A      2.467846   147A      2.512342   148A      2.552738
     149A      2.606889   150A      2.636851   151A      2.651650
     152A      2.701621   153A      2.718627   154A      2.761620
     155A      2.770314   156A      2.784283   157A      2.795886
     158A      2.824541   159A      2.848999   160A      2.854538
     161A      2.867458   162A      2.883577   163A      2.924604
     164A      2.936091   165A      2.973529   166A      2.998617
     167A      3.027703   168A      3.079288   169A      3.161986
     170A      3.238635   171A      3.464859   172A      3.795277

    Final Occupation by Irrep:
              A
    DOCC [    31 ]

  @RHF Final Energy:  -343.09101169601183

   => Energetics <=

    Nuclear Repulsion Energy =            372.6310498467806269
    One-Electron Energy =               -1202.7837934893509555
    Two-Electron Energy =                 487.0617319465585524
    Total Energy =                       -343.0910116960118330

Computation Completed

Properties will be evaluated at   0.000000,   0.000000,   0.000000 [a0]

Properties computed using the SCF density matrix

  Nuclear Dipole Moment: [e a0]
     X:     9.3629      Y:     0.5702      Z:    -3.4093

  Electronic Dipole Moment: [e a0]
     X:    -9.2626      Y:    -0.1392      Z:     4.7004

  Dipole Moment: [e a0]
     X:     0.1003      Y:     0.4310      Z:     1.2911     Total:     1.3649

  Dipole Moment: [D]
     X:     0.2549      Y:     1.0956      Z:     3.2817     Total:     3.4692

*** tstop() called on ds3 at Sun Apr 26 17:07:51 2020
Module time:
	user time   =      55.60 seconds =       0.93 minutes
	system time =      17.66 seconds =       0.29 minutes
	total time  =         72 seconds =       1.20 minutes
Total time:
	user time   =      55.60 seconds =       0.93 minutes
	system time =      17.66 seconds =       0.29 minutes
	total time  =         72 seconds =       1.20 minutes
                                     G D M A

                                 by Anthony Stone

                           version 2.2.06, 22 June 2011

               Distributed Multipoles from Gaussian wavefunctions

Starting at 17:7:51 on 26 Apr 2020

Using SCF density matrix from file ./SSI/SSI-015ILE-136HIE-1-dimer.test.17550.fchk

                         Distributed Multipole Analysis

Standard DMA

Positions and radii in angstrom
Multipole moments in atomic units, ea_0^k for rank k

C          x =  2.177146  y = -0.370469  z =  0.163528 angstrom
           Maximum rank =  0   Radius =  0.650 angstrom
                   Q00  =  -0.239836

C          x =  2.945146  y = -0.975469  z = -0.984472 angstrom
           Maximum rank =  0   Radius =  0.650 angstrom
                   Q00  =  -0.232912

H          x =  1.317146  y = -0.994469  z =  0.340528 angstrom
           Maximum rank =  0   Radius =  0.325 angstrom
                   Q00  =   0.093230

H          x =  2.804146  y = -0.409469  z =  1.047528 angstrom
           Maximum rank =  0   Radius =  0.325 angstrom
                   Q00  =   0.062099

H          x =  1.916146  y =  0.669531  z = -0.018472 angstrom
           Maximum rank =  0   Radius =  0.325 angstrom
                   Q00  =   0.078512

H          x =  2.816146  y = -2.058469  z = -0.951472 angstrom
           Maximum rank =  0   Radius =  0.325 angstrom
                   Q00  =   0.079775

H          x =  4.009146  y = -0.769469  z = -0.856472 angstrom
           Maximum rank =  0   Radius =  0.325 angstrom
                   Q00  =   0.071718

H          x =  2.588976  y = -0.569136  z = -1.942615 angstrom
           Maximum rank =  0   Radius =  0.325 angstrom
                   Q00  =   0.076519

C          x = -0.992854  y =  1.366531  z = -1.774472 angstrom
           Maximum rank =  0   Radius =  0.650 angstrom
                   Q00  =  -0.199897

C          x = -1.074854  y = -1.041469  z =  0.964528 angstrom
           Maximum rank =  0   Radius =  0.650 angstrom
                   Q00  =   0.442717

C          x = -0.904854  y =  0.641531  z = -0.451472 angstrom
           Maximum rank =  0   Radius =  0.650 angstrom
                   Q00  =   0.232071

C          x = -0.698854  y =  1.105531  z =  0.815528 angstrom
           Maximum rank =  0   Radius =  0.650 angstrom
                   Q00  =  -0.004307

N          x = -1.186854  y = -0.694469  z = -0.327472 angstrom
           Maximum rank =  0   Radius =  0.650 angstrom
                   Q00  =  -0.773676

N          x = -0.774854  y =  0.028531  z =  1.674528 angstrom
           Maximum rank =  0   Radius =  0.650 angstrom
                   Q00  =  -0.453367

H          x = -1.241854  y = -2.032469  z =  1.367528 angstrom
           Maximum rank =  0   Radius =  0.325 angstrom
                   Q00  =   0.120938

H          x = -0.693854  y =  0.064531  z =  2.695528 angstrom
           Maximum rank =  0   Radius =  0.325 angstrom
                   Q00  =   0.229143

H          x = -0.401854  y =  2.101531  z =  1.052528 angstrom
           Maximum rank =  0   Radius =  0.325 angstrom
                   Q00  =   0.098017

H          x = -1.859854  y =  0.968531  z = -2.301472 angstrom
           Maximum rank =  0   Radius =  0.325 angstrom
                   Q00  =   0.117582

H          x = -0.139854  y =  1.184531  z = -2.410472 angstrom
           Maximum rank =  0   Radius =  0.325 angstrom
                   Q00  =   0.108367

H          x = -1.133114  y =  2.451011  z = -1.655179 angstrom
           Maximum rank =  0   Radius =  0.325 angstrom
                   Q00  =   0.093307

Total multipoles referred to origin at
           x =   0.000000,  y =    0.000000,  z =    0.000000 angstrom
                   Q00  =  -0.000000

Finished at 17:7:51 on 26 Apr 2020

  DMA results are available in the Python driver through the
	  variable('DMA DISTRIBUTED MULTIPOLES')
  and
	  variable('DMA TOTAL MULTIPOLES')
  commands.

    Psi4 stopped on: Sunday, 26 April 2020 05:07PM
    Psi4 wall time for execution: 0:01:12.32

*** Psi4 exiting successfully. Buy a developer a beer!
