                               Psi4 1.3.2 release

  ==> Input File <==

--------------------------------------------------------------------------
import numpy as np
set {scf_type pk
basis cc-pvdz
d_convergence 10
gdma_switch   0
gdma_limit    0
gdma_origin   [ 0.0,  0.0,  0.0 ]
}
molecule test {
    units Angstrom
    0 1
    --
    0 1
    C               -0.892924424860368    -1.365138420745616    -0.983847864050599
    C               -1.244924424860368    -0.317138420745616    -1.982847864050599
    H               -0.096924424860368    -2.026138420745616    -1.296847864050599
    H               -0.580924424860368    -0.879138420745616    -0.061847864050599
    H               -1.771924424860368    -1.920138420745616    -0.744847864050599
    H               -0.390924424860368     0.341861579254384    -2.037847864050599
    H               -2.102924424860368     0.252861579254384    -1.620847864050599
    H               -1.484844424860368    -0.775948420745616    -2.953377864050599
    C                1.076075575139632     1.216861579254384     0.807152135949401
    C                1.064075575139632     0.466861579254384     2.151152135949401
    H                1.815075575139632     2.016861579254384     0.801152135949401
    H                1.320075575139632     0.521861579254384     0.005152135949401
    H                0.085075575139632     1.632861579254384     0.626152135949401
    H                2.018075575139632    -0.040138420745616     2.292152135949401
    H                0.278075575139632    -0.284138420745616     2.090152135949401
    H                0.884675575139632     1.142111579254384     3.000772135949402

}
e, wfn = energy('scf', return_wfn=True)
gdma(wfn)
dmavals = variable('DMA DISTRIBUTED MULTIPOLES')
charges = np.array(dmavals)
print(charges)
np.save('SSI-012ILE-044ILE-1-dimer.npy', np.array(charges))--------------------------------------------------------------------------

*** tstart() called on ds3
*** at Mon Apr 27 12:58:49 2020

   => Loading Basis Set <=

    Name: CC-PVDZ
    Role: ORBITAL
    Keyword: BASIS
    atoms 1-2, 9-10  entry C          line   138 file /theoryfs2/ds/metcalf/miniconda2/envs/tf2gpu/share/psi4/basis/cc-pvdz.gbs
    atoms 3-8, 11-16 entry H          line    22 file /theoryfs2/ds/metcalf/miniconda2/envs/tf2gpu/share/psi4/basis/cc-pvdz.gbs

         ---------------------------------------------------------
                                   SCF
               by Justin Turney, Rob Parrish, Andy Simmonett
                          and Daniel G. A. Smith
                              RHF Reference
                        1 Threads,    500 MiB Core
         ---------------------------------------------------------

  ==> Geometry <==

    Molecular point group: c1
    Full point group: C1

    Geometry (in Angstrom), charge = 0, multiplicity = 1:

       Center              X                  Y                   Z               Mass
    ------------   -----------------  -----------------  -----------------  -----------------
         C           -0.892924424860    -1.365138420746    -0.983847864051    12.000000000000
         C           -1.244924424860    -0.317138420746    -1.982847864051    12.000000000000
         H           -0.096924424860    -2.026138420746    -1.296847864051     1.007825032230
         H           -0.580924424860    -0.879138420746    -0.061847864051     1.007825032230
         H           -1.771924424860    -1.920138420746    -0.744847864051     1.007825032230
         H           -0.390924424860     0.341861579254    -2.037847864051     1.007825032230
         H           -2.102924424860     0.252861579254    -1.620847864051     1.007825032230
         H           -1.484844424860    -0.775948420746    -2.953377864051     1.007825032230
         C            1.076075575140     1.216861579254     0.807152135949    12.000000000000
         C            1.064075575140     0.466861579254     2.151152135949    12.000000000000
         H            1.815075575140     2.016861579254     0.801152135949     1.007825032230
         H            1.320075575140     0.521861579254     0.005152135949     1.007825032230
         H            0.085075575140     1.632861579254     0.626152135949     1.007825032230
         H            2.018075575140    -0.040138420746     2.292152135949     1.007825032230
         H            0.278075575140    -0.284138420746     2.090152135949     1.007825032230
         H            0.884675575140     1.142111579254     3.000772135949     1.007825032230

  Running in c1 symmetry.

  Rotational constants: A =      0.39273  B =      0.06425  C =      0.05810 [cm^-1]
  Rotational constants: A =  11773.87992  B =   1926.24139  C =   1741.72672 [MHz]
  Nuclear repulsion =  126.958509863927191

  Charge       = 0
  Multiplicity = 1
  Electrons    = 36
  Nalpha       = 18
  Nbeta        = 18

  ==> Algorithm <==

  SCF Algorithm Type is PK.
  DIIS enabled.
  MOM disabled.
  Fractional occupation disabled.
  Guess Type is SAD.
  Energy threshold   = 1.00e-06
  Density threshold  = 1.00e-10
  Integral threshold = 0.00e+00

  ==> Primary Basis <==

  Basis Set: CC-PVDZ
    Blend: CC-PVDZ
    Number of shells: 60
    Number of basis function: 116
    Number of Cartesian functions: 120
    Spherical Harmonics?: true
    Max angular momentum: 2

  ==> Pre-Iterations <==

   -------------------------------------------------------
    Irrep   Nso     Nmo     Nalpha   Nbeta   Ndocc  Nsocc
   -------------------------------------------------------
     A        116     116       0       0       0       0
   -------------------------------------------------------
    Total     116     116      18      18      18       0
   -------------------------------------------------------

  ==> Integral Setup <==

  Using integral reordering PK algorithm.
  Sizing the integral batches needed.
  Building batch lookup table.
   Calculation information:
      Number of atoms:                  16
      Number of AO shells:              60
      Number of primitives:            148
      Number of atomic orbitals:       120
      Number of basis functions:       116

      Integral cutoff                 1.00e-12
      Number of threads:                 1

	Batch   1 pq = [       0,    6786] index = [             0,23028291] size =     23028291
  Task number: 3
  Buffer size: 11059200
  Buffer per thread: 2
  We computed 1579913 shell quartets total.
  Whereas there are 1675365 unique shell quartets.

  ==> DiskJK: Disk-Based J/K Matrices <==

    J tasked:                  Yes
    K tasked:                  Yes
    wK tasked:                  No
    Memory [MiB]:              375
    Schwarz Cutoff:          1E-12

    OpenMP threads:              1

  Minimum eigenvalue in the overlap matrix is 6.8446740897E-03.
  Using Symmetric Orthogonalization.

  SCF Guess: Superposition of Atomic Densities via on-the-fly atomic UHF.

  ==> Iterations <==

                        Total Energy        Delta E     RMS |[F,P]|

   @RHF iter SAD:  -157.45860305171146   -1.57459e+02   0.00000e+00
   @RHF iter   1:  -158.29978624813222   -8.41183e-01   4.27569e-03 DIIS
   @RHF iter   2:  -158.43621347975468   -1.36427e-01   1.81404e-03 DIIS
   @RHF iter   3:  -158.46003059986037   -2.38171e-02   3.53045e-04 DIIS
   @RHF iter   4:  -158.46188496373091   -1.85436e-03   3.92110e-05 DIIS
   @RHF iter   5:  -158.46190927648524   -2.43128e-05   6.79889e-06 DIIS
   @RHF iter   6:  -158.46190995109725   -6.74612e-07   1.28005e-06 DIIS
   @RHF iter   7:  -158.46190996674190   -1.56446e-08   3.36486e-07 DIIS
   @RHF iter   8:  -158.46190996782320   -1.08130e-09   4.55238e-08 DIIS
   @RHF iter   9:  -158.46190996785435   -3.11502e-11   1.14960e-08 DIIS
   @RHF iter  10:  -158.46190996785668   -2.33058e-12   2.93279e-09 DIIS
   @RHF iter  11:  -158.46190996785657    1.13687e-13   7.92123e-10 DIIS
   @RHF iter  12:  -158.46190996785722   -6.53699e-13   1.84146e-10 DIIS
   @RHF iter  13:  -158.46190996785685    3.69482e-13   2.26765e-11 DIIS
  Energy and wave function converged.

  ==> Post-Iterations <==

    Orbital Energies [Eh]
    ---------------------

    Doubly Occupied:

       1A    -11.219672     2A    -11.218156     3A    -11.213775
       4A    -11.208138     5A     -1.031279     6A     -1.017340
       7A     -0.839252     8A     -0.835473     9A     -0.614928
      10A     -0.606308    11A     -0.597986    12A     -0.591294
      13A     -0.508498    14A     -0.498298    15A     -0.489210
      16A     -0.488235    17A     -0.482986    18A     -0.480086

    Virtual:

      19A      0.172216    20A      0.203633    21A      0.226606
      22A      0.230847    23A      0.251892    24A      0.259707
      25A      0.260303    26A      0.273597    27A      0.281909
      28A      0.292392    29A      0.330637    30A      0.365484
      31A      0.392459    32A      0.408546    33A      0.583666
      34A      0.596128    35A      0.597717    36A      0.609305
      37A      0.620925    38A      0.629007    39A      0.679170
      40A      0.682281    41A      0.720665    42A      0.801992
      43A      0.835972    44A      0.863437    45A      0.889433
      46A      0.892877    47A      0.895276    48A      0.898614
      49A      0.904650    50A      0.917294    51A      0.923908
      52A      0.946567    53A      0.959587    54A      0.968062
      55A      0.993982    56A      1.039907    57A      1.121018
      58A      1.125284    59A      1.139583    60A      1.145036
      61A      1.234510    62A      1.292449    63A      1.466400
      64A      1.470103    65A      1.484816    66A      1.506930
      67A      1.583280    68A      1.591131    69A      1.674420
      70A      1.684511    71A      1.696665    72A      1.724228
      73A      1.840452    74A      1.855412    75A      1.875052
      76A      1.889705    77A      1.900571    78A      1.914391
      79A      1.935991    80A      1.942095    81A      1.944119
      82A      1.960104    83A      1.963555    84A      1.979184
      85A      1.981297    86A      1.990599    87A      2.006942
      88A      2.062217    89A      2.097536    90A      2.112751
      91A      2.130501    92A      2.166538    93A      2.294324
      94A      2.296530    95A      2.315669    96A      2.350028
      97A      2.453554    98A      2.464181    99A      2.469867
     100A      2.489386   101A      2.560597   102A      2.580456
     103A      2.594441   104A      2.613744   105A      2.772460
     106A      2.787218   107A      2.797578   108A      2.819170
     109A      2.851182   110A      2.856282   111A      2.868771
     112A      2.899505   113A      2.954422   114A      2.957919
     115A      2.987949   116A      3.015335

    Final Occupation by Irrep:
              A
    DOCC [    18 ]

  @RHF Final Energy:  -158.46190996785685

   => Energetics <=

    Nuclear Repulsion Energy =            126.9585098639271905
    One-Electron Energy =                -462.9590131984661525
    Two-Electron Energy =                 177.5385933666821074
    Total Energy =                       -158.4619099678568546

Computation Completed

Properties will be evaluated at   0.000000,   0.000000,   0.000000 [a0]

Properties computed using the SCF density matrix

  Nuclear Dipole Moment: [e a0]
     X:    -0.0257      Y:    -0.0161      Z:     0.0937

  Electronic Dipole Moment: [e a0]
     X:     0.0346      Y:     0.0171      Z:    -0.0735

  Dipole Moment: [e a0]
     X:     0.0089      Y:     0.0010      Z:     0.0202     Total:     0.0221

  Dipole Moment: [D]
     X:     0.0227      Y:     0.0024      Z:     0.0513     Total:     0.0562

*** tstop() called on ds3 at Mon Apr 27 12:59:07 2020
Module time:
	user time   =      13.91 seconds =       0.23 minutes
	system time =       4.30 seconds =       0.07 minutes
	total time  =         18 seconds =       0.30 minutes
Total time:
	user time   =      13.91 seconds =       0.23 minutes
	system time =       4.30 seconds =       0.07 minutes
	total time  =         18 seconds =       0.30 minutes
                                     G D M A

                                 by Anthony Stone

                           version 2.2.06, 22 June 2011

               Distributed Multipoles from Gaussian wavefunctions

Starting at 12:59:7 on 27 Apr 2020

Using SCF density matrix from file ./SSI/SSI-012ILE-044ILE-1-dimer.test.4867.fchk

                         Distributed Multipole Analysis

Standard DMA

Positions and radii in angstrom
Multipole moments in atomic units, ea_0^k for rank k

C          x = -0.892924  y = -1.365138  z = -0.983848 angstrom
           Maximum rank =  0   Radius =  0.650 angstrom
                   Q00  =  -0.236581

C          x = -1.244924  y = -0.317138  z = -1.982848 angstrom
           Maximum rank =  0   Radius =  0.650 angstrom
                   Q00  =  -0.214188

H          x = -0.096924  y = -2.026138  z = -1.296848 angstrom
           Maximum rank =  0   Radius =  0.325 angstrom
                   Q00  =   0.078867

H          x = -0.580924  y = -0.879138  z = -0.061848 angstrom
           Maximum rank =  0   Radius =  0.325 angstrom
                   Q00  =   0.070899

H          x = -1.771924  y = -1.920138  z = -0.744848 angstrom
           Maximum rank =  0   Radius =  0.325 angstrom
                   Q00  =   0.074679

H          x = -0.390924  y =  0.341862  z = -2.037848 angstrom
           Maximum rank =  0   Radius =  0.325 angstrom
                   Q00  =   0.074083

H          x = -2.102924  y =  0.252862  z = -1.620848 angstrom
           Maximum rank =  0   Radius =  0.325 angstrom
                   Q00  =   0.075919

H          x = -1.484844  y = -0.775948  z = -2.953378 angstrom
           Maximum rank =  0   Radius =  0.325 angstrom
                   Q00  =   0.076328

C          x =  1.076076  y =  1.216862  z =  0.807152 angstrom
           Maximum rank =  0   Radius =  0.650 angstrom
                   Q00  =  -0.233871

C          x =  1.064076  y =  0.466862  z =  2.151152 angstrom
           Maximum rank =  0   Radius =  0.650 angstrom
                   Q00  =  -0.247645

H          x =  1.815076  y =  2.016862  z =  0.801152 angstrom
           Maximum rank =  0   Radius =  0.325 angstrom
                   Q00  =   0.082676

H          x =  1.320076  y =  0.521862  z =  0.005152 angstrom
           Maximum rank =  0   Radius =  0.325 angstrom
                   Q00  =   0.080251

H          x =  0.085076  y =  1.632862  z =  0.626152 angstrom
           Maximum rank =  0   Radius =  0.325 angstrom
                   Q00  =   0.077336

H          x =  2.018076  y = -0.040138  z =  2.292152 angstrom
           Maximum rank =  0   Radius =  0.325 angstrom
                   Q00  =   0.080524

H          x =  0.278076  y = -0.284138  z =  2.090152 angstrom
           Maximum rank =  0   Radius =  0.325 angstrom
                   Q00  =   0.078208

H          x =  0.884676  y =  1.142112  z =  3.000772 angstrom
           Maximum rank =  0   Radius =  0.325 angstrom
                   Q00  =   0.082514

Total multipoles referred to origin at
           x =   0.000000,  y =    0.000000,  z =    0.000000 angstrom
                   Q00  =  -0.000000

Finished at 12:59:7 on 27 Apr 2020

  DMA results are available in the Python driver through the
	  variable('DMA DISTRIBUTED MULTIPOLES')
  and
	  variable('DMA TOTAL MULTIPOLES')
  commands.

    Psi4 stopped on: Monday, 27 April 2020 12:59PM
    Psi4 wall time for execution: 0:00:17.94

*** Psi4 exiting successfully. Buy a developer a beer!
