                               Psi4 1.3.2 release

  ==> Input File <==

--------------------------------------------------------------------------
import numpy as np
set {scf_type pk
basis cc-pvdz
d_convergence 10
gdma_switch   0
gdma_limit    0
gdma_origin   [ 0.0,  0.0,  0.0 ]
}
molecule test {
    units Angstrom
    0 1
    --
    0 1
    C               -2.173076133474640     1.269718981834076     0.240924458230331
    C               -1.355076133474640     1.940718981834076     1.321924458230331
    O               -1.439076133474640     1.603718981834076     2.499924458230331
    N               -0.555076133474640     2.911718981834077     0.922924458230331
    H               -1.519076133474640     0.557718981834076    -0.260075541769669
    H               -2.480076133474641     2.015718981834076    -0.488075541769669
    H                0.006923866525360     3.392718981834077     1.606924458230331
    H               -0.538076133474640     3.174718981834077    -0.058075541769669
    H               -3.054790033474641     0.744411981834076     0.636693458230331
    C                1.842923866525360     0.477718981834077    -2.918075541769669
    C                1.133923866525360    -0.769281018165923     0.603924458230331
    C                1.648923866525360    -0.037281018165923    -0.463075541769669
    C                0.223923866525360    -1.794281018165923     0.364924458230331
    C                1.267923866525360    -0.317281018165923    -1.775075541769669
    C               -0.181076133474640    -2.081281018165924    -0.944075541769669
    C                0.342923866525360    -1.337281018165924    -2.005075541769669
    O               -0.236076133474640    -2.509281018165924     1.423924458230331
    H                1.450923866525360    -0.544281018165923     1.612924458230331
    H                2.365923866525359     0.750718981834077    -0.269075541769669
    H                0.138923866525360    -2.192281018165923     2.246924458230331
    H               -0.884076133474640    -2.877281018165923    -1.126075541769669
    H                1.662923866525360    -0.045281018165923    -3.859075541769669
    H                2.923923866525359     0.545718981834077    -2.780075541769669
    H                0.039923866525360    -1.565281018165924    -3.019075541769670
    H                1.425497866525360     1.493745481834077    -2.976776541769669

}
e, wfn = energy('scf', return_wfn=True)
gdma(wfn)
dmavals = variable('DMA DISTRIBUTED MULTIPOLES')
charges = np.array(dmavals)
print(charges)
np.save('SSI-097ASN-102TYR-1-dimer.npy', np.array(charges))--------------------------------------------------------------------------

*** tstart() called on ds3
*** at Sun Apr 26 21:13:50 2020

   => Loading Basis Set <=

    Name: CC-PVDZ
    Role: ORBITAL
    Keyword: BASIS
    atoms 1-2, 10-16 entry C          line   138 file /theoryfs2/ds/metcalf/miniconda2/envs/tf2gpu/share/psi4/basis/cc-pvdz.gbs
    atoms 3, 17      entry O          line   198 file /theoryfs2/ds/metcalf/miniconda2/envs/tf2gpu/share/psi4/basis/cc-pvdz.gbs
    atoms 4          entry N          line   168 file /theoryfs2/ds/metcalf/miniconda2/envs/tf2gpu/share/psi4/basis/cc-pvdz.gbs
    atoms 5-9, 18-25 entry H          line    22 file /theoryfs2/ds/metcalf/miniconda2/envs/tf2gpu/share/psi4/basis/cc-pvdz.gbs

         ---------------------------------------------------------
                                   SCF
               by Justin Turney, Rob Parrish, Andy Simmonett
                          and Daniel G. A. Smith
                              RHF Reference
                        1 Threads,    500 MiB Core
         ---------------------------------------------------------

  ==> Geometry <==

    Molecular point group: c1
    Full point group: C1

    Geometry (in Angstrom), charge = 0, multiplicity = 1:

       Center              X                  Y                   Z               Mass
    ------------   -----------------  -----------------  -----------------  -----------------
         C           -2.173076133475     1.269718981834     0.240924458230    12.000000000000
         C           -1.355076133475     1.940718981834     1.321924458230    12.000000000000
         O           -1.439076133475     1.603718981834     2.499924458230    15.994914619570
         N           -0.555076133475     2.911718981834     0.922924458230    14.003074004430
         H           -1.519076133475     0.557718981834    -0.260075541770     1.007825032230
         H           -2.480076133475     2.015718981834    -0.488075541770     1.007825032230
         H            0.006923866525     3.392718981834     1.606924458230     1.007825032230
         H           -0.538076133475     3.174718981834    -0.058075541770     1.007825032230
         H           -3.054790033475     0.744411981834     0.636693458230     1.007825032230
         C            1.842923866525     0.477718981834    -2.918075541770    12.000000000000
         C            1.133923866525    -0.769281018166     0.603924458230    12.000000000000
         C            1.648923866525    -0.037281018166    -0.463075541770    12.000000000000
         C            0.223923866525    -1.794281018166     0.364924458230    12.000000000000
         C            1.267923866525    -0.317281018166    -1.775075541770    12.000000000000
         C           -0.181076133475    -2.081281018166    -0.944075541770    12.000000000000
         C            0.342923866525    -1.337281018166    -2.005075541770    12.000000000000
         O           -0.236076133475    -2.509281018166     1.423924458230    15.994914619570
         H            1.450923866525    -0.544281018166     1.612924458230     1.007825032230
         H            2.365923866525     0.750718981834    -0.269075541770     1.007825032230
         H            0.138923866525    -2.192281018166     2.246924458230     1.007825032230
         H           -0.884076133475    -2.877281018166    -1.126075541770     1.007825032230
         H            1.662923866525    -0.045281018166    -3.859075541770     1.007825032230
         H            2.923923866525     0.545718981834    -2.780075541770     1.007825032230
         H            0.039923866525    -1.565281018166    -3.019075541770     1.007825032230
         H            1.425497866525     1.493745481834    -2.976776541770     1.007825032230

  Running in c1 symmetry.

  Rotational constants: A =      0.03490  B =      0.02053  C =      0.01571 [cm^-1]
  Rotational constants: A =   1046.26954  B =    615.57521  C =    470.91313 [MHz]
  Nuclear repulsion =  676.946653166562214

  Charge       = 0
  Multiplicity = 1
  Electrons    = 90
  Nalpha       = 45
  Nbeta        = 45

  ==> Algorithm <==

  SCF Algorithm Type is PK.
  DIIS enabled.
  MOM disabled.
  Fractional occupation disabled.
  Guess Type is SAD.
  Energy threshold   = 1.00e-06
  Density threshold  = 1.00e-10
  Integral threshold = 0.00e+00

  ==> Primary Basis <==

  Basis Set: CC-PVDZ
    Blend: CC-PVDZ
    Number of shells: 111
    Number of basis function: 233
    Number of Cartesian functions: 245
    Spherical Harmonics?: true
    Max angular momentum: 2

  ==> Pre-Iterations <==

   -------------------------------------------------------
    Irrep   Nso     Nmo     Nalpha   Nbeta   Ndocc  Nsocc
   -------------------------------------------------------
     A        233     233       0       0       0       0
   -------------------------------------------------------
    Total     233     233      45      45      45       0
   -------------------------------------------------------

  ==> Integral Setup <==

  Using integral reordering PK algorithm.
  Sizing the integral batches needed.
  Building batch lookup table.
   Calculation information:
      Number of atoms:                  25
      Number of AO shells:             111
      Number of primitives:            329
      Number of atomic orbitals:       245
      Number of basis functions:       233

      Integral cutoff                 1.00e-12
      Number of threads:                 1

	Batch   1 pq = [       0,    9405] index = [             0,44231715] size =     44231715
	Batch   2 pq = [    9405,   13301] index = [      44231715,88464951] size =     44233236
	Batch   3 pq = [   13301,   16290] index = [      88464951,132690195] size =     44225244
	Batch   4 pq = [   16290,   18810] index = [     132690195,176917455] size =     44227260
	Batch   5 pq = [   18810,   21030] index = [     176917455,221140965] size =     44223510
	Batch   6 pq = [   21030,   23037] index = [     221140965,265363203] size =     44222238
	Batch   7 pq = [   23037,   24883] index = [     265363203,309594286] size =     44231083
	Batch   8 pq = [   24883,   26601] index = [     309594286,353819901] size =     44225615
	Batch   9 pq = [   26601,   27261] index = [     353819901,371594691] size =     17774790
  Task number: 34
  Buffer size: 11059200
  Buffer per thread: 2
  We computed 19921346 shell quartets total.
  Whereas there are 19322436 unique shell quartets.
     3.10 percent of shell quartets recomputed by reordering.

  ==> DiskJK: Disk-Based J/K Matrices <==

    J tasked:                  Yes
    K tasked:                  Yes
    wK tasked:                  No
    Memory [MiB]:              375
    Schwarz Cutoff:          1E-12

    OpenMP threads:              1

  Minimum eigenvalue in the overlap matrix is 3.2883604609E-04.
  Using Symmetric Orthogonalization.

  SCF Guess: Superposition of Atomic Densities via on-the-fly atomic UHF.

  ==> Iterations <==

                        Total Energy        Delta E     RMS |[F,P]|

   @RHF iter SAD:  -551.28756622882679   -5.51288e+02   0.00000e+00
   @RHF iter   1:  -552.29761875026213   -1.01005e+00   3.21175e-03 DIIS
   @RHF iter   2:  -552.55533233316601   -2.57714e-01   1.65221e-03 DIIS
   @RHF iter   3:  -552.61303481787172   -5.77025e-02   3.81131e-04 DIIS
   @RHF iter   4:  -552.61762520161994   -4.59038e-03   1.53629e-04 DIIS
   @RHF iter   5:  -552.61838170663657   -7.56505e-04   2.41123e-05 DIIS
   @RHF iter   6:  -552.61842059371349   -3.88871e-05   1.13230e-05 DIIS
   @RHF iter   7:  -552.61842727563646   -6.68192e-06   4.30011e-06 DIIS
   @RHF iter   8:  -552.61842864577920   -1.37014e-06   1.75076e-06 DIIS
   @RHF iter   9:  -552.61842884343957   -1.97660e-07   6.67633e-07 DIIS
   @RHF iter  10:  -552.61842887457055   -3.11310e-08   2.23535e-07 DIIS
   @RHF iter  11:  -552.61842887858609   -4.01553e-09   7.28916e-08 DIIS
   @RHF iter  12:  -552.61842887909734   -5.11250e-10   3.62621e-08 DIIS
   @RHF iter  13:  -552.61842887922683   -1.29489e-10   1.57479e-08 DIIS
   @RHF iter  14:  -552.61842887926537   -3.85398e-11   6.53014e-09 DIIS
   @RHF iter  15:  -552.61842887927094   -5.57066e-12   2.34702e-09 DIIS
   @RHF iter  16:  -552.61842887927082    1.13687e-13   6.75593e-10 DIIS
   @RHF iter  17:  -552.61842887926935    1.47793e-12   2.33641e-10 DIIS
   @RHF iter  18:  -552.61842887927116   -1.81899e-12   8.85193e-11 DIIS
  Energy and wave function converged.

  ==> Post-Iterations <==

    Orbital Energies [Eh]
    ---------------------

    Doubly Occupied:

       1A    -20.580814     2A    -20.496554     3A    -15.584734
       4A    -11.339847     5A    -11.302657     6A    -11.243981
       7A    -11.242863     8A    -11.237885     9A    -11.235494
      10A    -11.234840    11A    -11.234811    12A    -11.230232
      13A     -1.401490    14A     -1.362197    15A     -1.213776
      16A     -1.153781    17A     -1.040912    18A     -1.020738
      19A     -0.991813    20A     -0.929981    21A     -0.847000
      22A     -0.805579    23A     -0.793486    24A     -0.733774
      25A     -0.723800    26A     -0.671600    27A     -0.647166
      28A     -0.644443    29A     -0.610297    30A     -0.608730
      31A     -0.590221    32A     -0.586727    33A     -0.574974
      34A     -0.569796    35A     -0.562706    36A     -0.550753
      37A     -0.530420    38A     -0.514483    39A     -0.502081
      40A     -0.487556    41A     -0.468612    42A     -0.402704
      43A     -0.399537    44A     -0.342645    45A     -0.304012

    Virtual:

      46A      0.124416    47A      0.149838    48A      0.158263
      49A      0.186103    50A      0.190703    51A      0.208795
      52A      0.211281    53A      0.219091    54A      0.232691
      55A      0.240618    56A      0.253731    57A      0.266599
      58A      0.272944    59A      0.285971    60A      0.287585
      61A      0.309946    62A      0.365100    63A      0.368992
      64A      0.389439    65A      0.427675    66A      0.450140
      67A      0.465811    68A      0.480016    69A      0.492073
      70A      0.505332    71A      0.548179    72A      0.607318
      73A      0.620118    74A      0.623396    75A      0.629882
      76A      0.649031    77A      0.653519    78A      0.675227
      79A      0.686989    80A      0.696500    81A      0.704099
      82A      0.728231    83A      0.732904    84A      0.737371
      85A      0.741503    86A      0.762432    87A      0.768643
      88A      0.782663    89A      0.788854    90A      0.799009
      91A      0.834406    92A      0.836275    93A      0.843986
      94A      0.867794    95A      0.872219    96A      0.880705
      97A      0.883136    98A      0.892991    99A      0.895068
     100A      0.906762   101A      0.916933   102A      0.925108
     103A      0.931044   104A      0.938396   105A      0.941236
     106A      0.944976   107A      0.977121   108A      1.005850
     109A      1.018497   110A      1.032794   111A      1.047552
     112A      1.068901   113A      1.110666   114A      1.120228
     115A      1.135170   116A      1.139204   117A      1.147672
     118A      1.158326   119A      1.195869   120A      1.203939
     121A      1.242042   122A      1.251925   123A      1.267275
     124A      1.283452   125A      1.291067   126A      1.305518
     127A      1.306332   128A      1.333672   129A      1.347927
     130A      1.355678   131A      1.362018   132A      1.385476
     133A      1.390752   134A      1.415597   135A      1.424931
     136A      1.476598   137A      1.487774   138A      1.505614
     139A      1.516475   140A      1.524603   141A      1.556056
     142A      1.614490   143A      1.622921   144A      1.660200
     145A      1.676730   146A      1.680792   147A      1.690327
     148A      1.714522   149A      1.733563   150A      1.755178
     151A      1.782299   152A      1.797194   153A      1.816073
     154A      1.824097   155A      1.854626   156A      1.872797
     157A      1.881020   158A      1.887369   159A      1.900603
     160A      1.903577   161A      1.910359   162A      1.923544
     163A      1.927074   164A      1.932642   165A      1.946047
     166A      1.960602   167A      1.961234   168A      1.977660
     169A      1.983657   170A      2.000823   171A      2.025674
     172A      2.040844   173A      2.048467   174A      2.061519
     175A      2.064104   176A      2.067118   177A      2.091928
     178A      2.122978   179A      2.139099   180A      2.173228
     181A      2.192142   182A      2.202641   183A      2.216994
     184A      2.235139   185A      2.253084   186A      2.265520
     187A      2.276659   188A      2.300191   189A      2.337619
     190A      2.371277   191A      2.400196   192A      2.431613
     193A      2.460790   194A      2.470036   195A      2.478337
     196A      2.494944   197A      2.508913   198A      2.525754
     199A      2.550117   200A      2.558367   201A      2.584524
     202A      2.603172   203A      2.622138   204A      2.652511
     205A      2.719271   206A      2.745246   207A      2.762928
     208A      2.783307   209A      2.788225   210A      2.799077
     211A      2.834418   212A      2.841143   213A      2.884727
     214A      2.889612   215A      2.960062   216A      2.990172
     217A      3.001307   218A      3.083063   219A      3.098457
     220A      3.111698   221A      3.144609   222A      3.261250
     223A      3.272126   224A      3.298044   225A      3.349998
     226A      3.517810   227A      3.542231   228A      3.585876
     229A      3.670790   230A      3.871609   231A      3.913508
     232A      3.978160   233A      4.192675

    Final Occupation by Irrep:
              A
    DOCC [    45 ]

  @RHF Final Energy:  -552.61842887927116

   => Energetics <=

    Nuclear Repulsion Energy =            676.9466531665622142
    One-Electron Energy =               -2096.0251606017081940
    Two-Electron Energy =                 866.4600785558749294
    Total Energy =                       -552.6184288792711641

Computation Completed

Properties will be evaluated at   0.000000,   0.000000,   0.000000 [a0]

Properties computed using the SCF density matrix

  Nuclear Dipole Moment: [e a0]
     X:     1.4362      Y:     5.0974      Z:    -8.1707

  Electronic Dipole Moment: [e a0]
     X:    -0.6802      Y:    -4.1460      Z:     6.8943

  Dipole Moment: [e a0]
     X:     0.7560      Y:     0.9514      Z:    -1.2764     Total:     1.7624

  Dipole Moment: [D]
     X:     1.9217      Y:     2.4182      Z:    -3.2442     Total:     4.4795

*** tstop() called on ds3 at Sun Apr 26 21:22:46 2020
Module time:
	user time   =     154.09 seconds =       2.57 minutes
	system time =      56.94 seconds =       0.95 minutes
	total time  =        536 seconds =       8.93 minutes
Total time:
	user time   =     154.09 seconds =       2.57 minutes
	system time =      56.94 seconds =       0.95 minutes
	total time  =        536 seconds =       8.93 minutes
                                     G D M A

                                 by Anthony Stone

                           version 2.2.06, 22 June 2011

               Distributed Multipoles from Gaussian wavefunctions

Starting at 21:22:46 on 26 Apr 2020

Using SCF density matrix from file ./SSI/SSI-097ASN-102TYR-1-dimer.test.11259.fchk

                         Distributed Multipole Analysis

Standard DMA

Positions and radii in angstrom
Multipole moments in atomic units, ea_0^k for rank k

C          x = -2.173076  y =  1.269719  z =  0.240924 angstrom
           Maximum rank =  0   Radius =  0.650 angstrom
                   Q00  =  -0.264426

C          x = -1.355076  y =  1.940719  z =  1.321924 angstrom
           Maximum rank =  0   Radius =  0.650 angstrom
                   Q00  =   0.818231

O          x = -1.439076  y =  1.603719  z =  2.499924 angstrom
           Maximum rank =  0   Radius =  0.650 angstrom
                   Q00  =  -0.803873

N          x = -0.555076  y =  2.911719  z =  0.922924 angstrom
           Maximum rank =  0   Radius =  0.650 angstrom
                   Q00  =  -0.525500

H          x = -1.519076  y =  0.557719  z = -0.260076 angstrom
           Maximum rank =  0   Radius =  0.325 angstrom
                   Q00  =   0.139720

H          x = -2.480076  y =  2.015719  z = -0.488076 angstrom
           Maximum rank =  0   Radius =  0.325 angstrom
                   Q00  =   0.078440

H          x =  0.006924  y =  3.392719  z =  1.606924 angstrom
           Maximum rank =  0   Radius =  0.325 angstrom
                   Q00  =   0.218690

H          x = -0.538076  y =  3.174719  z = -0.058076 angstrom
           Maximum rank =  0   Radius =  0.325 angstrom
                   Q00  =   0.205103

H          x = -3.054790  y =  0.744412  z =  0.636693 angstrom
           Maximum rank =  0   Radius =  0.325 angstrom
                   Q00  =   0.128127

C          x =  1.842924  y =  0.477719  z = -2.918076 angstrom
           Maximum rank =  0   Radius =  0.650 angstrom
                   Q00  =  -0.191983

C          x =  1.133924  y = -0.769281  z =  0.603924 angstrom
           Maximum rank =  0   Radius =  0.650 angstrom
                   Q00  =  -0.174755

C          x =  1.648924  y = -0.037281  z = -0.463076 angstrom
           Maximum rank =  0   Radius =  0.650 angstrom
                   Q00  =   0.025151

C          x =  0.223924  y = -1.794281  z =  0.364924 angstrom
           Maximum rank =  0   Radius =  0.650 angstrom
                   Q00  =   0.288015

C          x =  1.267924  y = -0.317281  z = -1.775076 angstrom
           Maximum rank =  0   Radius =  0.650 angstrom
                   Q00  =  -0.149202

C          x = -0.181076  y = -2.081281  z = -0.944076 angstrom
           Maximum rank =  0   Radius =  0.650 angstrom
                   Q00  =  -0.127450

C          x =  0.342924  y = -1.337281  z = -2.005076 angstrom
           Maximum rank =  0   Radius =  0.650 angstrom
                   Q00  =  -0.017582

O          x = -0.236076  y = -2.509281  z =  1.423924 angstrom
           Maximum rank =  0   Radius =  0.650 angstrom
                   Q00  =  -0.640114

H          x =  1.450924  y = -0.544281  z =  1.612924 angstrom
           Maximum rank =  0   Radius =  0.325 angstrom
                   Q00  =   0.080121

H          x =  2.365924  y =  0.750719  z = -0.269076 angstrom
           Maximum rank =  0   Radius =  0.325 angstrom
                   Q00  =   0.064125

H          x =  0.138924  y = -2.192281  z =  2.246924 angstrom
           Maximum rank =  0   Radius =  0.325 angstrom
                   Q00  =   0.413440

H          x = -0.884076  y = -2.877281  z = -1.126076 angstrom
           Maximum rank =  0   Radius =  0.325 angstrom
                   Q00  =   0.083702

H          x =  1.662924  y = -0.045281  z = -3.859076 angstrom
           Maximum rank =  0   Radius =  0.325 angstrom
                   Q00  =   0.098920

H          x =  2.923924  y =  0.545719  z = -2.780076 angstrom
           Maximum rank =  0   Radius =  0.325 angstrom
                   Q00  =   0.097028

H          x =  0.039924  y = -1.565281  z = -3.019076 angstrom
           Maximum rank =  0   Radius =  0.325 angstrom
                   Q00  =   0.065677

H          x =  1.425498  y =  1.493745  z = -2.976777 angstrom
           Maximum rank =  0   Radius =  0.325 angstrom
                   Q00  =   0.090394

Total multipoles referred to origin at
           x =   0.000000,  y =    0.000000,  z =    0.000000 angstrom
                   Q00  =  -0.000000

Finished at 21:22:46 on 26 Apr 2020

  DMA results are available in the Python driver through the
	  variable('DMA DISTRIBUTED MULTIPOLES')
  and
	  variable('DMA TOTAL MULTIPOLES')
  commands.

    Psi4 stopped on: Sunday, 26 April 2020 09:22PM
    Psi4 wall time for execution: 0:08:56.07

*** Psi4 exiting successfully. Buy a developer a beer!
