                               Psi4 1.3.2 release

  ==> Input File <==

--------------------------------------------------------------------------
import numpy as np
set {scf_type pk
basis cc-pvdz
d_convergence 10
gdma_switch   0
gdma_limit    0
gdma_origin   [ 0.0,  0.0,  0.0 ]
}
molecule test {
    units Angstrom
    -1 1
    --
    -1 1
    C                1.679772592329446    -3.485670472954471     1.487758712633016
    C               -0.611227407670554    -0.664670472954471     1.597758712633016
    C                1.045772592329446    -1.282670472954471     0.288758712633016
    C                0.916772592329446    -2.212670472954472     1.259758712633016
    N                0.097772592329446    -0.321670472954471     0.541758712633016
    N               -0.143227407670554    -1.819670472954471     2.053758712633015
    H               -0.027227407670554     0.547329527045529     0.026758712633016
    H               -1.429227407670554    -0.092670472954471     2.022758712633016
    H                1.768772592329446    -1.291670472954471    -0.517241287366984
    H                1.894772592329446    -3.581670472954471     2.550758712633015
    H                2.624772592329446    -3.430670472954472     0.947758712633016
    H                1.117306592329446    -4.379550472954471     1.180171712633016
    C               -0.743227407670554     1.197329527045529    -2.618241287366984
    C               -0.698227407670554     2.333329527045529    -1.617241287366984
    O               -0.332227407670554     2.101329527045528    -0.476241287366984
    O               -1.049227407670554     3.463329527045528    -1.950241287366984
    H               -1.359227407670554     0.410329527045529    -2.176241287366985
    H                0.244772592329446     0.768329527045529    -2.759241287366984
    H               -1.205977407670554     1.484479527045529    -3.573965287366984

}
e, wfn = energy('scf', return_wfn=True)
gdma(wfn)
dmavals = variable('DMA DISTRIBUTED MULTIPOLES')
charges = np.array(dmavals)
print(charges)
np.save('SSI-083HIE-089ASP-1-dimer.npy', np.array(charges))--------------------------------------------------------------------------

*** tstart() called on ds3
*** at Tue Apr 28 20:50:01 2020

   => Loading Basis Set <=

    Name: CC-PVDZ
    Role: ORBITAL
    Keyword: BASIS
    atoms 1-4, 13-14  entry C          line   138 file /theoryfs2/ds/metcalf/miniconda2/envs/tf2gpu/share/psi4/basis/cc-pvdz.gbs
    atoms 5-6         entry N          line   168 file /theoryfs2/ds/metcalf/miniconda2/envs/tf2gpu/share/psi4/basis/cc-pvdz.gbs
    atoms 7-12, 17-19 entry H          line    22 file /theoryfs2/ds/metcalf/miniconda2/envs/tf2gpu/share/psi4/basis/cc-pvdz.gbs
    atoms 15-16       entry O          line   198 file /theoryfs2/ds/metcalf/miniconda2/envs/tf2gpu/share/psi4/basis/cc-pvdz.gbs

         ---------------------------------------------------------
                                   SCF
               by Justin Turney, Rob Parrish, Andy Simmonett
                          and Daniel G. A. Smith
                              RHF Reference
                        1 Threads,    500 MiB Core
         ---------------------------------------------------------

  ==> Geometry <==

    Molecular point group: c1
    Full point group: C1

    Geometry (in Angstrom), charge = -1, multiplicity = 1:

       Center              X                  Y                   Z               Mass
    ------------   -----------------  -----------------  -----------------  -----------------
         C            1.679772592329    -3.485670472954     1.487758712633    12.000000000000
         C           -0.611227407671    -0.664670472954     1.597758712633    12.000000000000
         C            1.045772592329    -1.282670472954     0.288758712633    12.000000000000
         C            0.916772592329    -2.212670472954     1.259758712633    12.000000000000
         N            0.097772592329    -0.321670472954     0.541758712633    14.003074004430
         N           -0.143227407671    -1.819670472954     2.053758712633    14.003074004430
         H           -0.027227407671     0.547329527046     0.026758712633     1.007825032230
         H           -1.429227407671    -0.092670472954     2.022758712633     1.007825032230
         H            1.768772592329    -1.291670472954    -0.517241287367     1.007825032230
         H            1.894772592329    -3.581670472954     2.550758712633     1.007825032230
         H            2.624772592329    -3.430670472954     0.947758712633     1.007825032230
         H            1.117306592329    -4.379550472954     1.180171712633     1.007825032230
         C           -0.743227407671     1.197329527046    -2.618241287367    12.000000000000
         C           -0.698227407671     2.333329527046    -1.617241287367    12.000000000000
         O           -0.332227407671     2.101329527046    -0.476241287367    15.994914619570
         O           -1.049227407671     3.463329527046    -1.950241287367    15.994914619570
         H           -1.359227407671     0.410329527046    -2.176241287367     1.007825032230
         H            0.244772592329     0.768329527046    -2.759241287367     1.007825032230
         H           -1.205977407671     1.484479527046    -3.573965287367     1.007825032230

  Running in c1 symmetry.

  Rotational constants: A =      0.13233  B =      0.01618  C =      0.01510 [cm^-1]
  Rotational constants: A =   3967.09217  B =    485.00361  C =    452.70749 [MHz]
  Nuclear repulsion =  490.471518028366461

  Charge       = -1
  Multiplicity = 1
  Electrons    = 76
  Nalpha       = 38
  Nbeta        = 38

  ==> Algorithm <==

  SCF Algorithm Type is PK.
  DIIS enabled.
  MOM disabled.
  Fractional occupation disabled.
  Guess Type is SAD.
  Energy threshold   = 1.00e-06
  Density threshold  = 1.00e-10
  Integral threshold = 0.00e+00

  ==> Primary Basis <==

  Basis Set: CC-PVDZ
    Blend: CC-PVDZ
    Number of shells: 87
    Number of basis function: 185
    Number of Cartesian functions: 195
    Spherical Harmonics?: true
    Max angular momentum: 2

  ==> Pre-Iterations <==

   -------------------------------------------------------
    Irrep   Nso     Nmo     Nalpha   Nbeta   Ndocc  Nsocc
   -------------------------------------------------------
     A        185     185       0       0       0       0
   -------------------------------------------------------
    Total     185     185      38      38      38       0
   -------------------------------------------------------

  ==> Integral Setup <==

  Using integral reordering PK algorithm.
  Sizing the integral batches needed.
  Building batch lookup table.
   Calculation information:
      Number of atoms:                  19
      Number of AO shells:              87
      Number of primitives:            265
      Number of atomic orbitals:       195
      Number of basis functions:       185

      Integral cutoff                 1.00e-12
      Number of threads:                 1

	Batch   1 pq = [       0,    9405] index = [             0,44231715] size =     44231715
	Batch   2 pq = [    9405,   13301] index = [      44231715,88464951] size =     44233236
	Batch   3 pq = [   13301,   16290] index = [      88464951,132690195] size =     44225244
	Batch   4 pq = [   16290,   17205] index = [     132690195,148014615] size =     15324420
  Task number: 14
  Buffer size: 11059200
  Buffer per thread: 2
  We computed 5623717 shell quartets total.
  Whereas there are 7328706 unique shell quartets.

  ==> DiskJK: Disk-Based J/K Matrices <==

    J tasked:                  Yes
    K tasked:                  Yes
    wK tasked:                  No
    Memory [MiB]:              375
    Schwarz Cutoff:          1E-12

    OpenMP threads:              1

  Minimum eigenvalue in the overlap matrix is 1.1753929226E-03.
  Using Symmetric Orthogonalization.

  SCF Guess: Superposition of Atomic Densities via on-the-fly atomic UHF.

  ==> Iterations <==

                        Total Energy        Delta E     RMS |[F,P]|

   @RHF iter SAD:  -490.00042686284957   -4.90000e+02   0.00000e+00
   @RHF iter   1:  -490.85127617356613   -8.50849e-01   4.10726e-03 DIIS
   @RHF iter   2:  -491.07667333117956   -2.25397e-01   2.26919e-03 DIIS
   @RHF iter   3:  -491.14256577438221   -6.58924e-02   3.95810e-04 DIIS
   @RHF iter   4:  -491.14585143466905   -3.28566e-03   1.62165e-04 DIIS
   @RHF iter   5:  -491.14638815882438   -5.36724e-04   3.41912e-05 DIIS
   @RHF iter   6:  -491.14641527593903   -2.71171e-05   1.36421e-05 DIIS
   @RHF iter   7:  -491.14642021255634   -4.93662e-06   3.60870e-06 DIIS
   @RHF iter   8:  -491.14642097096441   -7.58408e-07   1.81439e-06 DIIS
   @RHF iter   9:  -491.14642116062117   -1.89657e-07   7.22969e-07 DIIS
   @RHF iter  10:  -491.14642119459529   -3.39741e-08   1.88279e-07 DIIS
   @RHF iter  11:  -491.14642119672772   -2.13242e-09   5.59553e-08 DIIS
   @RHF iter  12:  -491.14642119686181   -1.34094e-10   3.43695e-08 DIIS
   @RHF iter  13:  -491.14642119689802   -3.62093e-11   1.09788e-08 DIIS
   @RHF iter  14:  -491.14642119690399   -5.96856e-12   4.17013e-09 DIIS
   @RHF iter  15:  -491.14642119690461   -6.25278e-13   1.30679e-09 DIIS
   @RHF iter  16:  -491.14642119690768   -3.06954e-12   4.77188e-10 DIIS
   @RHF iter  17:  -491.14642119690689    7.95808e-13   1.81729e-10 DIIS
   @RHF iter  18:  -491.14642119690711   -2.27374e-13   4.91014e-11 DIIS
  Energy and wave function converged.

  ==> Post-Iterations <==

    Orbital Energies [Eh]
    ---------------------

    Doubly Occupied:

       1A    -20.299115     2A    -20.281963     3A    -15.457687
       4A    -15.399270     5A    -11.157807     6A    -11.142045
       7A    -11.128159     8A    -11.122346     9A    -11.118275
      10A    -11.073264    11A     -1.209647    12A     -1.203700
      13A     -1.081364    14A     -1.015175    15A     -0.914770
      16A     -0.827424    17A     -0.825007    18A     -0.679031
      19A     -0.633427    20A     -0.613848    21A     -0.532816
      22A     -0.491251    23A     -0.481942    24A     -0.470693
      25A     -0.453438    26A     -0.442520    27A     -0.439508
      28A     -0.434062    29A     -0.422300    30A     -0.411050
      31A     -0.376146    32A     -0.344427    33A     -0.286721
      34A     -0.243077    35A     -0.223630    36A     -0.201195
      37A     -0.199004    38A     -0.187705

    Virtual:

      39A      0.290385    40A      0.314777    41A      0.322520
      42A      0.331561    43A      0.339170    44A      0.348993
      45A      0.366996    46A      0.392637    47A      0.401085
      48A      0.403561    49A      0.466147    50A      0.477990
      51A      0.488145    52A      0.522175    53A      0.548362
      54A      0.595707    55A      0.605797    56A      0.614615
      57A      0.673988    58A      0.718376    59A      0.730825
      60A      0.743846    61A      0.749490    62A      0.786971
      63A      0.787762    64A      0.818844    65A      0.832991
      66A      0.847813    67A      0.877523    68A      0.892779
      69A      0.908838    70A      0.913593    71A      0.938716
      72A      0.952889    73A      0.962454    74A      0.968324
      75A      0.985767    76A      1.006820    77A      1.014136
      78A      1.024656    79A      1.026541    80A      1.039404
      81A      1.063266    82A      1.066737    83A      1.088750
      84A      1.100590    85A      1.124143    86A      1.177150
      87A      1.206048    88A      1.213790    89A      1.224450
      90A      1.258692    91A      1.267762    92A      1.277077
      93A      1.300801    94A      1.323622    95A      1.330010
      96A      1.376719    97A      1.403332    98A      1.429202
      99A      1.434643   100A      1.457709   101A      1.493968
     102A      1.517257   103A      1.538348   104A      1.555781
     105A      1.559784   106A      1.574806   107A      1.603636
     108A      1.626979   109A      1.649798   110A      1.671584
     111A      1.710140   112A      1.722795   113A      1.730369
     114A      1.760972   115A      1.783964   116A      1.817839
     117A      1.827360   118A      1.841322   119A      1.911696
     120A      1.927380   121A      1.947284   122A      1.968307
     123A      1.988745   124A      2.013200   125A      2.031676
     126A      2.040307   127A      2.054236   128A      2.070768
     129A      2.076209   130A      2.098446   131A      2.108498
     132A      2.123253   133A      2.133001   134A      2.169787
     135A      2.186271   136A      2.192654   137A      2.226084
     138A      2.240065   139A      2.264668   140A      2.307954
     141A      2.333637   142A      2.358439   143A      2.380275
     144A      2.397432   145A      2.413651   146A      2.452451
     147A      2.490946   148A      2.500856   149A      2.561454
     150A      2.589450   151A      2.603315   152A      2.612774
     153A      2.663930   154A      2.682876   155A      2.739186
     156A      2.749241   157A      2.810190   158A      2.826715
     159A      2.845068   160A      2.870738   161A      2.889242
     162A      2.904515   163A      2.938762   164A      2.942346
     165A      2.951839   166A      2.986891   167A      3.005092
     168A      3.025094   169A      3.036474   170A      3.085090
     171A      3.197089   172A      3.210261   173A      3.263928
     174A      3.306300   175A      3.331836   176A      3.369196
     177A      3.532343   178A      3.618827   179A      3.650806
     180A      3.780806   181A      3.812506   182A      3.996424
     183A      4.092694   184A      4.127267   185A      4.245128

    Final Occupation by Irrep:
              A
    DOCC [    38 ]

  @RHF Final Energy:  -491.14642119690711

   => Energetics <=

    Nuclear Repulsion Energy =            490.4715180283664608
    One-Electron Energy =               -1655.5862619835186251
    Two-Electron Energy =                 673.9683227582449945
    Total Energy =                       -491.1464211969071130

Computation Completed

Properties will be evaluated at   0.000000,   0.000000,   0.000000 [a0]

Properties computed using the SCF density matrix

  Nuclear Dipole Moment: [e a0]
     X:     3.3953      Y:    -8.9347      Z:    -2.1740

  Electronic Dipole Moment: [e a0]
     X:    -2.3161      Y:     5.6552      Z:     2.6668

  Dipole Moment: [e a0]
     X:     1.0792      Y:    -3.2794      Z:     0.4929     Total:     3.4875

  Dipole Moment: [D]
     X:     2.7431      Y:    -8.3355      Z:     1.2528     Total:     8.8642

*** tstop() called on ds3 at Tue Apr 28 20:51:45 2020
Module time:
	user time   =      47.99 seconds =       0.80 minutes
	system time =      20.81 seconds =       0.35 minutes
	total time  =        104 seconds =       1.73 minutes
Total time:
	user time   =      47.99 seconds =       0.80 minutes
	system time =      20.81 seconds =       0.35 minutes
	total time  =        104 seconds =       1.73 minutes
                                     G D M A

                                 by Anthony Stone

                           version 2.2.06, 22 June 2011

               Distributed Multipoles from Gaussian wavefunctions

Starting at 20:51:45 on 28 Apr 2020

Using SCF density matrix from file ./SSI/SSI-083HIE-089ASP-1-dimer.test.30882.fchk

                         Distributed Multipole Analysis

Standard DMA

Positions and radii in angstrom
Multipole moments in atomic units, ea_0^k for rank k

C          x =  1.679773  y = -3.485670  z =  1.487759 angstrom
           Maximum rank =  0   Radius =  0.650 angstrom
                   Q00  =  -0.190337

C          x = -0.611227  y = -0.664670  z =  1.597759 angstrom
           Maximum rank =  0   Radius =  0.650 angstrom
                   Q00  =   0.490479

C          x =  1.045773  y = -1.282670  z =  0.288759 angstrom
           Maximum rank =  0   Radius =  0.650 angstrom
                   Q00  =   0.045564

C          x =  0.916773  y = -2.212670  z =  1.259759 angstrom
           Maximum rank =  0   Radius =  0.650 angstrom
                   Q00  =   0.188254

N          x =  0.097773  y = -0.321670  z =  0.541759 angstrom
           Maximum rank =  0   Radius =  0.650 angstrom
                   Q00  =  -0.534970

N          x = -0.143227  y = -1.819670  z =  2.053759 angstrom
           Maximum rank =  0   Radius =  0.650 angstrom
                   Q00  =  -0.814818

H          x = -0.027227  y =  0.547330  z =  0.026759 angstrom
           Maximum rank =  0   Radius =  0.325 angstrom
                   Q00  =   0.357748

H          x = -1.429227  y = -0.092670  z =  2.022759 angstrom
           Maximum rank =  0   Radius =  0.325 angstrom
                   Q00  =   0.112174

H          x =  1.768773  y = -1.291670  z = -0.517241 angstrom
           Maximum rank =  0   Radius =  0.325 angstrom
                   Q00  =   0.072207

H          x =  1.894773  y = -3.581670  z =  2.550759 angstrom
           Maximum rank =  0   Radius =  0.325 angstrom
                   Q00  =   0.093461

H          x =  2.624773  y = -3.430670  z =  0.947759 angstrom
           Maximum rank =  0   Radius =  0.325 angstrom
                   Q00  =   0.079548

H          x =  1.117307  y = -4.379550  z =  1.180172 angstrom
           Maximum rank =  0   Radius =  0.325 angstrom
                   Q00  =   0.083828

C          x = -0.743227  y =  1.197330  z = -2.618241 angstrom
           Maximum rank =  0   Radius =  0.650 angstrom
                   Q00  =  -0.301630

C          x = -0.698227  y =  2.333330  z = -1.617241 angstrom
           Maximum rank =  0   Radius =  0.650 angstrom
                   Q00  =   0.961959

O          x = -0.332227  y =  2.101330  z = -0.476241 angstrom
           Maximum rank =  0   Radius =  0.650 angstrom
                   Q00  =  -0.954341

O          x = -1.049227  y =  3.463330  z = -1.950241 angstrom
           Maximum rank =  0   Radius =  0.650 angstrom
                   Q00  =  -0.909185

H          x = -1.359227  y =  0.410330  z = -2.176241 angstrom
           Maximum rank =  0   Radius =  0.325 angstrom
                   Q00  =   0.072287

H          x =  0.244773  y =  0.768330  z = -2.759241 angstrom
           Maximum rank =  0   Radius =  0.325 angstrom
                   Q00  =   0.077213

H          x = -1.205977  y =  1.484480  z = -3.573965 angstrom
           Maximum rank =  0   Radius =  0.325 angstrom
                   Q00  =   0.070558

Total multipoles referred to origin at
           x =   0.000000,  y =    0.000000,  z =    0.000000 angstrom
                   Q00  =  -1.000000

Finished at 20:51:45 on 28 Apr 2020

  DMA results are available in the Python driver through the
	  variable('DMA DISTRIBUTED MULTIPOLES')
  and
	  variable('DMA TOTAL MULTIPOLES')
  commands.

    Psi4 stopped on: Tuesday, 28 April 2020 08:51PM
    Psi4 wall time for execution: 0:01:44.28

*** Psi4 exiting successfully. Buy a developer a beer!
