                               Psi4 1.3.2 release

  ==> Input File <==

--------------------------------------------------------------------------
import numpy as np
set {scf_type pk
basis cc-pvdz
d_convergence 10
gdma_switch   0
gdma_limit    0
gdma_origin   [ 0.0,  0.0,  0.0 ]
}
molecule test {
    units Angstrom
    0 1
    --
    0 1
    C                1.349161451874920     1.836701933962733     2.678918053007358
    C                1.692161451874920     2.029701933962733     4.163918053007357
    H                0.612161451874920     1.041701933962733     2.560918053007358
    H                0.932161451874920     2.759701933962733     2.278918053007357
    H                2.238161451874920     1.593701933962733     2.097918053007357
    H                2.473161451874920     2.773701933962733     4.200918053007358
    H                2.025381451874920     1.072151933962733     4.590608053007357
    H                0.804691451874920     2.401101933962734     4.697268053007357
    C               -2.383838548125080    -2.462298066037267     0.095918053007357
    C                0.837161451874920    -0.467298066037267    -0.357081946992643
    C                0.503161451874920     0.363701933962733    -1.425081946992643
    C               -0.092838548125080    -1.392298066037267     0.117918053007357
    C               -1.360838548125080    -1.498298066037267    -0.464081946992643
    C               -0.754838548125080     0.267701933962733    -2.019081946992643
    C               -1.681838548125080    -0.658298066037267    -1.535081946992643
    O                1.391161451874920     1.283701933962733    -1.880081946992643
    H                1.813161451874920    -0.383298066037267     0.096918053007357
    H                0.169161451874920    -2.008298066037267     0.964918053007358
    H               -1.014838548125080     0.910701933962733    -2.842081946992642
    H                1.026161451874920     1.803701933962733    -2.600081946992642
    H               -3.303838548125080    -1.910298066037267     0.264918053007357
    H               -2.039838548125080    -2.807298066037266     1.071918053007357
    H               -2.667838548125080    -0.694298066037267    -1.980081946992643
    H               -2.612358548125080    -3.342608066037267    -0.522811946992643

}
e, wfn = energy('scf', return_wfn=True)
gdma(wfn)
dmavals = variable('DMA DISTRIBUTED MULTIPOLES')
charges = np.array(dmavals)
print(charges)
np.save('SSI-081VAL-105TYR-1-dimer.npy', np.array(charges))--------------------------------------------------------------------------

*** tstart() called on ds3
*** at Sun Apr 26 19:08:58 2020

   => Loading Basis Set <=

    Name: CC-PVDZ
    Role: ORBITAL
    Keyword: BASIS
    atoms 1-2, 9-15  entry C          line   138 file /theoryfs2/ds/metcalf/miniconda2/envs/tf2gpu/share/psi4/basis/cc-pvdz.gbs
    atoms 3-8, 17-24 entry H          line    22 file /theoryfs2/ds/metcalf/miniconda2/envs/tf2gpu/share/psi4/basis/cc-pvdz.gbs
    atoms 16         entry O          line   198 file /theoryfs2/ds/metcalf/miniconda2/envs/tf2gpu/share/psi4/basis/cc-pvdz.gbs

         ---------------------------------------------------------
                                   SCF
               by Justin Turney, Rob Parrish, Andy Simmonett
                          and Daniel G. A. Smith
                              RHF Reference
                        1 Threads,    500 MiB Core
         ---------------------------------------------------------

  ==> Geometry <==

    Molecular point group: c1
    Full point group: C1

    Geometry (in Angstrom), charge = 0, multiplicity = 1:

       Center              X                  Y                   Z               Mass
    ------------   -----------------  -----------------  -----------------  -----------------
         C            1.349161451875     1.836701933963     2.678918053007    12.000000000000
         C            1.692161451875     2.029701933963     4.163918053007    12.000000000000
         H            0.612161451875     1.041701933963     2.560918053007     1.007825032230
         H            0.932161451875     2.759701933963     2.278918053007     1.007825032230
         H            2.238161451875     1.593701933963     2.097918053007     1.007825032230
         H            2.473161451875     2.773701933963     4.200918053007     1.007825032230
         H            2.025381451875     1.072151933963     4.590608053007     1.007825032230
         H            0.804691451875     2.401101933963     4.697268053007     1.007825032230
         C           -2.383838548125    -2.462298066037     0.095918053007    12.000000000000
         C            0.837161451875    -0.467298066037    -0.357081946993    12.000000000000
         C            0.503161451875     0.363701933963    -1.425081946993    12.000000000000
         C           -0.092838548125    -1.392298066037     0.117918053007    12.000000000000
         C           -1.360838548125    -1.498298066037    -0.464081946993    12.000000000000
         C           -0.754838548125     0.267701933963    -2.019081946993    12.000000000000
         C           -1.681838548125    -0.658298066037    -1.535081946993    12.000000000000
         O            1.391161451875     1.283701933963    -1.880081946993    15.994914619570
         H            1.813161451875    -0.383298066037     0.096918053007     1.007825032230
         H            0.169161451875    -2.008298066037     0.964918053007     1.007825032230
         H           -1.014838548125     0.910701933963    -2.842081946993     1.007825032230
         H            1.026161451875     1.803701933963    -2.600081946993     1.007825032230
         H           -3.303838548125    -1.910298066037     0.264918053007     1.007825032230
         H           -2.039838548125    -2.807298066037     1.071918053007     1.007825032230
         H           -2.667838548125    -0.694298066037    -1.980081946993     1.007825032230
         H           -2.612358548125    -3.342608066037    -0.522811946993     1.007825032230

  Running in c1 symmetry.

  Rotational constants: A =      0.04563  B =      0.02045  C =      0.01539 [cm^-1]
  Rotational constants: A =   1367.80608  B =    613.16081  C =    461.26894 [MHz]
  Nuclear repulsion =  484.855181438805289

  Charge       = 0
  Multiplicity = 1
  Electrons    = 76
  Nalpha       = 38
  Nbeta        = 38

  ==> Algorithm <==

  SCF Algorithm Type is PK.
  DIIS enabled.
  MOM disabled.
  Fractional occupation disabled.
  Guess Type is SAD.
  Energy threshold   = 1.00e-06
  Density threshold  = 1.00e-10
  Integral threshold = 0.00e+00

  ==> Primary Basis <==

  Basis Set: CC-PVDZ
    Blend: CC-PVDZ
    Number of shells: 102
    Number of basis function: 210
    Number of Cartesian functions: 220
    Spherical Harmonics?: true
    Max angular momentum: 2

  ==> Pre-Iterations <==

   -------------------------------------------------------
    Irrep   Nso     Nmo     Nalpha   Nbeta   Ndocc  Nsocc
   -------------------------------------------------------
     A        210     210       0       0       0       0
   -------------------------------------------------------
    Total     210     210      38      38      38       0
   -------------------------------------------------------

  ==> Integral Setup <==

  Using integral reordering PK algorithm.
  Sizing the integral batches needed.
  Building batch lookup table.
   Calculation information:
      Number of atoms:                  24
      Number of AO shells:             102
      Number of primitives:            290
      Number of atomic orbitals:       220
      Number of basis functions:       210

      Integral cutoff                 1.00e-12
      Number of threads:                 1

	Batch   1 pq = [       0,    9405] index = [             0,44231715] size =     44231715
	Batch   2 pq = [    9405,   13301] index = [      44231715,88464951] size =     44233236
	Batch   3 pq = [   13301,   16290] index = [      88464951,132690195] size =     44225244
	Batch   4 pq = [   16290,   18810] index = [     132690195,176917455] size =     44227260
	Batch   5 pq = [   18810,   21030] index = [     176917455,221140965] size =     44223510
	Batch   6 pq = [   21030,   22155] index = [     221140965,245433090] size =     24292125
  Task number: 23
  Buffer size: 11059200
  Buffer per thread: 2
  We computed 10626945 shell quartets total.
  Whereas there are 13799631 unique shell quartets.

  ==> DiskJK: Disk-Based J/K Matrices <==

    J tasked:                  Yes
    K tasked:                  Yes
    wK tasked:                  No
    Memory [MiB]:              375
    Schwarz Cutoff:          1E-12

    OpenMP threads:              1

  Minimum eigenvalue in the overlap matrix is 3.3106850735E-04.
  Using Symmetric Orthogonalization.

  SCF Guess: Superposition of Atomic Densities via on-the-fly atomic UHF.

  ==> Iterations <==

                        Total Energy        Delta E     RMS |[F,P]|

   @RHF iter SAD:  -422.63668784706550   -4.22637e+02   0.00000e+00
   @RHF iter   1:  -423.60261824812244   -9.65930e-01   2.97175e-03 DIIS
   @RHF iter   2:  -423.81837916112329   -2.15761e-01   1.24622e-03 DIIS
   @RHF iter   3:  -423.85269697468982   -3.43178e-02   2.81976e-04 DIIS
   @RHF iter   4:  -423.85552887693166   -2.83190e-03   1.16493e-04 DIIS
   @RHF iter   5:  -423.85587845416563   -3.49577e-04   2.06717e-05 DIIS
   @RHF iter   6:  -423.85589585600951   -1.74018e-05   6.33252e-06 DIIS
   @RHF iter   7:  -423.85589746638516   -1.61038e-06   2.08689e-06 DIIS
   @RHF iter   8:  -423.85589769253437   -2.26149e-07   7.89437e-07 DIIS
   @RHF iter   9:  -423.85589773114469   -3.86103e-08   3.21562e-07 DIIS
   @RHF iter  10:  -423.85589773882344   -7.67875e-09   1.40241e-07 DIIS
   @RHF iter  11:  -423.85589774124912   -2.42568e-09   6.16902e-08 DIIS
   @RHF iter  12:  -423.85589774169779   -4.48665e-10   2.97738e-08 DIIS
   @RHF iter  13:  -423.85589774177527   -7.74776e-11   8.13930e-09 DIIS
   @RHF iter  14:  -423.85589774178533   -1.00613e-11   2.12356e-09 DIIS
   @RHF iter  15:  -423.85589774178453    7.95808e-13   6.63357e-10 DIIS
   @RHF iter  16:  -423.85589774178504   -5.11591e-13   1.95909e-10 DIIS
   @RHF iter  17:  -423.85589774178050    4.54747e-12   6.75744e-11 DIIS
  Energy and wave function converged.

  ==> Post-Iterations <==

    Orbital Energies [Eh]
    ---------------------

    Doubly Occupied:

       1A    -20.582842     2A    -11.299259     3A    -11.239775
       4A    -11.238667     5A    -11.234549     6A    -11.233076
       7A    -11.229568     8A    -11.227550     9A    -11.214434
      10A    -11.209405    11A     -1.402747    12A     -1.147874
      13A     -1.034984    14A     -1.016694    15A     -1.011889
      16A     -0.925476    17A     -0.844109    18A     -0.830689
      19A     -0.802206    20A     -0.732722    21A     -0.667108
      22A     -0.642078    23A     -0.607097    24A     -0.596082
      25A     -0.591539    26A     -0.586510    27A     -0.586094
      28A     -0.570360    29A     -0.564922    30A     -0.525360
      31A     -0.497679    32A     -0.491171    33A     -0.484583
      34A     -0.482448    35A     -0.479552    36A     -0.465113
      37A     -0.337437    38A     -0.300080

    Virtual:

      39A      0.129715    40A      0.154871    41A      0.178615
      42A      0.182453    43A      0.192969    44A      0.214643
      45A      0.222429    46A      0.238512    47A      0.254168
      48A      0.262614    49A      0.267942    50A      0.275713
      51A      0.280179    52A      0.287090    53A      0.296693
      54A      0.329072    55A      0.370604    56A      0.372155
      57A      0.396175    58A      0.429373    59A      0.454719
      60A      0.488965    61A      0.493616    62A      0.508077
      63A      0.593539    64A      0.602341    65A      0.610427
      66A      0.614780    67A      0.634254    68A      0.650141
      69A      0.655039    70A      0.678523    71A      0.686598
      72A      0.694334    73A      0.700242    74A      0.717194
      75A      0.728842    76A      0.735153    77A      0.764696
      78A      0.769826    79A      0.773682    80A      0.791318
      81A      0.794380    82A      0.814455    83A      0.843986
      84A      0.851375    85A      0.879174    86A      0.881752
      87A      0.893262    88A      0.896670    89A      0.897238
      90A      0.901266    91A      0.907664    92A      0.910100
      93A      0.919810    94A      0.927647    95A      0.931876
      96A      0.941272    97A      0.946923    98A      0.972667
      99A      0.990684   100A      1.016047   101A      1.025134
     102A      1.056708   103A      1.118699   104A      1.129447
     105A      1.137211   106A      1.140870   107A      1.147469
     108A      1.165978   109A      1.198444   110A      1.231020
     111A      1.245950   112A      1.249348   113A      1.272427
     114A      1.286642   115A      1.289990   116A      1.302475
     117A      1.312141   118A      1.362192   119A      1.367931
     120A      1.384486   121A      1.479648   122A      1.486397
     123A      1.489323   124A      1.505133   125A      1.514455
     126A      1.546474   127A      1.579680   128A      1.617625
     129A      1.619613   130A      1.678601   131A      1.692869
     132A      1.694797   133A      1.703420   134A      1.730883
     135A      1.748425   136A      1.780644   137A      1.802968
     138A      1.805889   139A      1.860662   140A      1.861729
     141A      1.874221   142A      1.883293   143A      1.893180
     144A      1.903927   145A      1.911990   146A      1.921067
     147A      1.925311   148A      1.943171   149A      1.945088
     150A      1.951181   151A      1.954088   152A      1.960602
     153A      1.970203   154A      1.983756   155A      1.992588
     156A      2.003092   157A      2.021078   158A      2.048285
     159A      2.060732   160A      2.064631   161A      2.072809
     162A      2.109494   163A      2.123153   164A      2.129767
     165A      2.142849   166A      2.176388   167A      2.196324
     168A      2.218455   169A      2.250942   170A      2.269765
     171A      2.284539   172A      2.308531   173A      2.326246
     174A      2.346657   175A      2.368035   176A      2.403951
     177A      2.457492   178A      2.460838   179A      2.471096
     180A      2.475339   181A      2.505063   182A      2.525993
     183A      2.543900   184A      2.566920   185A      2.590711
     186A      2.600845   187A      2.643368   188A      2.739480
     189A      2.770472   190A      2.775876   191A      2.791807
     192A      2.796917   193A      2.808343   194A      2.841776
     195A      2.855662   196A      2.858956   197A      2.893441
     198A      2.950712   199A      2.958796   200A      2.969829
     201A      2.996717   202A      3.087155   203A      3.115279
     204A      3.254638   205A      3.275952   206A      3.349625
     207A      3.578836   208A      3.675040   209A      3.968313
     210A      4.194013

    Final Occupation by Irrep:
              A
    DOCC [    38 ]

  @RHF Final Energy:  -423.85589774178050

   => Energetics <=

    Nuclear Repulsion Energy =            484.8551814388052890
    One-Electron Energy =               -1535.5547025814212247
    Two-Electron Energy =                 626.8436234008355541
    Total Energy =                       -423.8558977417804954

Computation Completed

Properties will be evaluated at   0.000000,   0.000000,   0.000000 [a0]

Properties computed using the SCF density matrix

  Nuclear Dipole Moment: [e a0]
     X:     0.4337      Y:     3.0158      Z:    13.9407

  Electronic Dipole Moment: [e a0]
     X:    -0.9322      Y:    -2.9257      Z:   -14.2715

  Dipole Moment: [e a0]
     X:    -0.4985      Y:     0.0900      Z:    -0.3308     Total:     0.6050

  Dipole Moment: [D]
     X:    -1.2670      Y:     0.2289      Z:    -0.8409     Total:     1.5378

*** tstop() called on ds3 at Sun Apr 26 19:10:44 2020
Module time:
	user time   =      75.50 seconds =       1.26 minutes
	system time =      34.17 seconds =       0.57 minutes
	total time  =        106 seconds =       1.77 minutes
Total time:
	user time   =      75.50 seconds =       1.26 minutes
	system time =      34.17 seconds =       0.57 minutes
	total time  =        106 seconds =       1.77 minutes
                                     G D M A

                                 by Anthony Stone

                           version 2.2.06, 22 June 2011

               Distributed Multipoles from Gaussian wavefunctions

Starting at 19:10:44 on 26 Apr 2020

Using SCF density matrix from file ./SSI/SSI-081VAL-105TYR-1-dimer.test.1904.fchk

                         Distributed Multipole Analysis

Standard DMA

Positions and radii in angstrom
Multipole moments in atomic units, ea_0^k for rank k

C          x =  1.349161  y =  1.836702  z =  2.678918 angstrom
           Maximum rank =  0   Radius =  0.650 angstrom
                   Q00  =  -0.235085

C          x =  1.692161  y =  2.029702  z =  4.163918 angstrom
           Maximum rank =  0   Radius =  0.650 angstrom
                   Q00  =  -0.238305

H          x =  0.612161  y =  1.041702  z =  2.560918 angstrom
           Maximum rank =  0   Radius =  0.325 angstrom
                   Q00  =   0.080728

H          x =  0.932161  y =  2.759702  z =  2.278918 angstrom
           Maximum rank =  0   Radius =  0.325 angstrom
                   Q00  =   0.078473

H          x =  2.238161  y =  1.593702  z =  2.097918 angstrom
           Maximum rank =  0   Radius =  0.325 angstrom
                   Q00  =   0.078120

H          x =  2.473161  y =  2.773702  z =  4.200918 angstrom
           Maximum rank =  0   Radius =  0.325 angstrom
                   Q00  =   0.079324

H          x =  2.025381  y =  1.072152  z =  4.590608 angstrom
           Maximum rank =  0   Radius =  0.325 angstrom
                   Q00  =   0.077608

H          x =  0.804691  y =  2.401102  z =  4.697268 angstrom
           Maximum rank =  0   Radius =  0.325 angstrom
                   Q00  =   0.078227

C          x = -2.383839  y = -2.462298  z =  0.095918 angstrom
           Maximum rank =  0   Radius =  0.650 angstrom
                   Q00  =  -0.199371

C          x =  0.837161  y = -0.467298  z = -0.357082 angstrom
           Maximum rank =  0   Radius =  0.650 angstrom
                   Q00  =  -0.121364

C          x =  0.503161  y =  0.363702  z = -1.425082 angstrom
           Maximum rank =  0   Radius =  0.650 angstrom
                   Q00  =   0.316158

C          x = -0.092839  y = -1.392298  z =  0.117918 angstrom
           Maximum rank =  0   Radius =  0.650 angstrom
                   Q00  =   0.031127

C          x = -1.360839  y = -1.498298  z = -0.464082 angstrom
           Maximum rank =  0   Radius =  0.650 angstrom
                   Q00  =  -0.132578

C          x = -0.754839  y =  0.267702  z = -2.019082 angstrom
           Maximum rank =  0   Radius =  0.650 angstrom
                   Q00  =  -0.181842

C          x = -1.681839  y = -0.658298  z = -1.535082 angstrom
           Maximum rank =  0   Radius =  0.650 angstrom
                   Q00  =  -0.025573

O          x =  1.391161  y =  1.283702  z = -1.880082 angstrom
           Maximum rank =  0   Radius =  0.650 angstrom
                   Q00  =  -0.669386

H          x =  1.813161  y = -0.383298  z =  0.096918 angstrom
           Maximum rank =  0   Radius =  0.325 angstrom
                   Q00  =   0.082640

H          x =  0.169161  y = -2.008298  z =  0.964918 angstrom
           Maximum rank =  0   Radius =  0.325 angstrom
                   Q00  =   0.065285

H          x = -1.014839  y =  0.910702  z = -2.842082 angstrom
           Maximum rank =  0   Radius =  0.325 angstrom
                   Q00  =   0.071262

H          x =  1.026161  y =  1.803702  z = -2.600082 angstrom
           Maximum rank =  0   Radius =  0.325 angstrom
                   Q00  =   0.405167

H          x = -3.303839  y = -1.910298  z =  0.264918 angstrom
           Maximum rank =  0   Radius =  0.325 angstrom
                   Q00  =   0.095856

H          x = -2.039839  y = -2.807298  z =  1.071918 angstrom
           Maximum rank =  0   Radius =  0.325 angstrom
                   Q00  =   0.094879

H          x = -2.667839  y = -0.694298  z = -1.980082 angstrom
           Maximum rank =  0   Radius =  0.325 angstrom
                   Q00  =   0.068490

H          x = -2.612359  y = -3.342608  z = -0.522812 angstrom
           Maximum rank =  0   Radius =  0.325 angstrom
                   Q00  =   0.100160

Total multipoles referred to origin at
           x =   0.000000,  y =    0.000000,  z =    0.000000 angstrom
                   Q00  =  -0.000000

Finished at 19:10:44 on 26 Apr 2020

  DMA results are available in the Python driver through the
	  variable('DMA DISTRIBUTED MULTIPOLES')
  and
	  variable('DMA TOTAL MULTIPOLES')
  commands.

    Psi4 stopped on: Sunday, 26 April 2020 07:10PM
    Psi4 wall time for execution: 0:01:46.06

*** Psi4 exiting successfully. Buy a developer a beer!
