                               Psi4 1.3.2 release

  ==> Input File <==

--------------------------------------------------------------------------
import numpy as np
set {scf_type pk
basis cc-pvdz
d_convergence 10
gdma_switch   0
gdma_limit    0
gdma_origin   [ 0.0,  0.0,  0.0 ]
}
molecule test {
    units Angstrom
    0 1
    --
    0 1
    C                3.365498402028311    -0.541223022605569     0.262553230441305
    C                3.942498402028311     0.578776977394431     1.123553230441305
    H                2.967498402028311    -0.132223022605569    -0.665446769558695
    H                4.149498402028311    -1.260223022605569     0.025553230441305
    H                2.569498402028311    -1.054223022605569     0.802553230441305
    H                4.384498402028311     0.123776977394431     1.977553230441305
    H                3.128598402028311     1.265034977394431     1.400353230441305
    H                4.759033402028311     1.086507977394431     0.589253230441305
    C               -0.532501597971689    -2.098223022605569    -1.318446769558695
    C               -0.209501597971689     0.359776977394431    -0.857446769558695
    C               -0.931501597971689    -0.810223022605569    -0.641446769558695
    C               -0.586501597971689     1.556776977394431    -0.235446769558695
    C               -2.040501597971689    -0.777223022605569     0.205553230441305
    C               -1.704501597971689     1.584776977394431     0.592553230441305
    C               -2.431501597971689     0.414776977394431     0.810553230441305
    H                0.648498402028311     0.349776977394431    -1.516446769558695
    H               -0.018501597971689     2.459776977394430    -0.408446769558695
    H               -0.744501597971689    -2.934223022605569    -0.649446769558695
    H                0.545498402028311    -2.083223022605569    -1.488446769558695
    H               -2.608501597971689    -1.678223022605569     0.383553230441305
    H               -2.011501597971689     2.508776977394431     1.061553230441305
    H               -3.294501597971689     0.423776977394431     1.459553230441305
    H               -1.038086817971689    -2.266034022605569    -2.280846769558695

}
e, wfn = energy('scf', return_wfn=True)
gdma(wfn)
dmavals = variable('DMA DISTRIBUTED MULTIPOLES')
charges = np.array(dmavals)
print(charges)
np.save('SSI-048LEU-070PHE-2-dimer.npy', np.array(charges))--------------------------------------------------------------------------

*** tstart() called on ds3
*** at Tue Apr 28 20:01:01 2020

   => Loading Basis Set <=

    Name: CC-PVDZ
    Role: ORBITAL
    Keyword: BASIS
    atoms 1-2, 9-15  entry C          line   138 file /theoryfs2/ds/metcalf/miniconda2/envs/tf2gpu/share/psi4/basis/cc-pvdz.gbs
    atoms 3-8, 16-23 entry H          line    22 file /theoryfs2/ds/metcalf/miniconda2/envs/tf2gpu/share/psi4/basis/cc-pvdz.gbs

         ---------------------------------------------------------
                                   SCF
               by Justin Turney, Rob Parrish, Andy Simmonett
                          and Daniel G. A. Smith
                              RHF Reference
                        1 Threads,    500 MiB Core
         ---------------------------------------------------------

  ==> Geometry <==

    Molecular point group: c1
    Full point group: C1

    Geometry (in Angstrom), charge = 0, multiplicity = 1:

       Center              X                  Y                   Z               Mass
    ------------   -----------------  -----------------  -----------------  -----------------
         C            3.365498402028    -0.541223022606     0.262553230441    12.000000000000
         C            3.942498402028     0.578776977394     1.123553230441    12.000000000000
         H            2.967498402028    -0.132223022606    -0.665446769559     1.007825032230
         H            4.149498402028    -1.260223022606     0.025553230441     1.007825032230
         H            2.569498402028    -1.054223022606     0.802553230441     1.007825032230
         H            4.384498402028     0.123776977394     1.977553230441     1.007825032230
         H            3.128598402028     1.265034977394     1.400353230441     1.007825032230
         H            4.759033402028     1.086507977394     0.589253230441     1.007825032230
         C           -0.532501597972    -2.098223022606    -1.318446769559    12.000000000000
         C           -0.209501597972     0.359776977394    -0.857446769559    12.000000000000
         C           -0.931501597972    -0.810223022606    -0.641446769559    12.000000000000
         C           -0.586501597972     1.556776977394    -0.235446769559    12.000000000000
         C           -2.040501597972    -0.777223022606     0.205553230441    12.000000000000
         C           -1.704501597972     1.584776977394     0.592553230441    12.000000000000
         C           -2.431501597972     0.414776977394     0.810553230441    12.000000000000
         H            0.648498402028     0.349776977394    -1.516446769559     1.007825032230
         H           -0.018501597972     2.459776977394    -0.408446769559     1.007825032230
         H           -0.744501597972    -2.934223022606    -0.649446769559     1.007825032230
         H            0.545498402028    -2.083223022606    -1.488446769559     1.007825032230
         H           -2.608501597972    -1.678223022606     0.383553230441     1.007825032230
         H           -2.011501597972     2.508776977394     1.061553230441     1.007825032230
         H           -3.294501597972     0.423776977394     1.459553230441     1.007825032230
         H           -1.038086817972    -2.266034022606    -2.280846769559     1.007825032230

  Running in c1 symmetry.

  Rotational constants: A =      0.06542  B =      0.02558  C =      0.02054 [cm^-1]
  Rotational constants: A =   1961.27412  B =    766.94975  C =    615.86336 [MHz]
  Nuclear repulsion =  404.834295287973475

  Charge       = 0
  Multiplicity = 1
  Electrons    = 68
  Nalpha       = 34
  Nbeta        = 34

  ==> Algorithm <==

  SCF Algorithm Type is PK.
  DIIS enabled.
  MOM disabled.
  Fractional occupation disabled.
  Guess Type is SAD.
  Energy threshold   = 1.00e-06
  Density threshold  = 1.00e-10
  Integral threshold = 0.00e+00

  ==> Primary Basis <==

  Basis Set: CC-PVDZ
    Blend: CC-PVDZ
    Number of shells: 96
    Number of basis function: 196
    Number of Cartesian functions: 205
    Spherical Harmonics?: true
    Max angular momentum: 2

  ==> Pre-Iterations <==

   -------------------------------------------------------
    Irrep   Nso     Nmo     Nalpha   Nbeta   Ndocc  Nsocc
   -------------------------------------------------------
     A        196     196       0       0       0       0
   -------------------------------------------------------
    Total     196     196      34      34      34       0
   -------------------------------------------------------

  ==> Integral Setup <==

  Using integral reordering PK algorithm.
  Sizing the integral batches needed.
  Building batch lookup table.
   Calculation information:
      Number of atoms:                  23
      Number of AO shells:              96
      Number of primitives:            268
      Number of atomic orbitals:       205
      Number of basis functions:       196

      Integral cutoff                 1.00e-12
      Number of threads:                 1

	Batch   1 pq = [       0,    9405] index = [             0,44231715] size =     44231715
	Batch   2 pq = [    9405,   13301] index = [      44231715,88464951] size =     44233236
	Batch   3 pq = [   13301,   16290] index = [      88464951,132690195] size =     44225244
	Batch   4 pq = [   16290,   18810] index = [     132690195,176917455] size =     44227260
	Batch   5 pq = [   18810,   19306] index = [     176917455,186370471] size =      9453016
  Task number: 17
  Buffer size: 11059200
  Buffer per thread: 2
  We computed 9309240 shell quartets total.
  Whereas there are 10841496 unique shell quartets.

  ==> DiskJK: Disk-Based J/K Matrices <==

    J tasked:                  Yes
    K tasked:                  Yes
    wK tasked:                  No
    Memory [MiB]:              375
    Schwarz Cutoff:          1E-12

    OpenMP threads:              1

  Minimum eigenvalue in the overlap matrix is 3.1318981797E-04.
  Using Symmetric Orthogonalization.

  SCF Guess: Superposition of Atomic Densities via on-the-fly atomic UHF.

  ==> Iterations <==

                        Total Energy        Delta E     RMS |[F,P]|

   @RHF iter SAD:  -347.85054534606002   -3.47851e+02   0.00000e+00
   @RHF iter   1:  -348.76681525267435   -9.16270e-01   2.89925e-03 DIIS
   @RHF iter   2:  -348.95949965129097   -1.92684e-01   1.20470e-03 DIIS
   @RHF iter   3:  -348.98986041630826   -3.03608e-02   2.58653e-04 DIIS
   @RHF iter   4:  -348.99233789891963   -2.47748e-03   5.34772e-05 DIIS
   @RHF iter   5:  -348.99241271415667   -7.48152e-05   1.83104e-05 DIIS
   @RHF iter   6:  -348.99242089389031   -8.17973e-06   4.88528e-06 DIIS
   @RHF iter   7:  -348.99242157586900   -6.81979e-07   1.24413e-06 DIIS
   @RHF iter   8:  -348.99242162936332   -5.34943e-08   3.16414e-07 DIIS
   @RHF iter   9:  -348.99242163643800   -7.07468e-09   1.43002e-07 DIIS
   @RHF iter  10:  -348.99242163813568   -1.69769e-09   6.74442e-08 DIIS
   @RHF iter  11:  -348.99242163874453   -6.08850e-10   2.39142e-08 DIIS
   @RHF iter  12:  -348.99242163881263   -6.80984e-11   9.09617e-09 DIIS
   @RHF iter  13:  -348.99242163882133   -8.69704e-12   3.49313e-09 DIIS
   @RHF iter  14:  -348.99242163881974    1.59162e-12   8.05409e-10 DIIS
   @RHF iter  15:  -348.99242163882155   -1.81899e-12   3.73041e-10 DIIS
   @RHF iter  16:  -348.99242163881911    2.44427e-12   1.95040e-10 DIIS
   @RHF iter  17:  -348.99242163882064   -1.53477e-12   7.70550e-11 DIIS
  Energy and wave function converged.

  ==> Post-Iterations <==

    Orbital Energies [Eh]
    ---------------------

    Doubly Occupied:

       1A    -11.240445     2A    -11.236536     3A    -11.235534
       4A    -11.231814     5A    -11.231168     6A    -11.230437
       7A    -11.229096     8A    -11.214172     9A    -11.213536
      10A     -1.151212    11A     -1.043251    12A     -1.018823
      13A     -1.010127    14A     -0.930293    15A     -0.834805
      16A     -0.824561    17A     -0.794812    18A     -0.690368
      19A     -0.630553    20A     -0.629715    21A     -0.602463
      22A     -0.595742    23A     -0.581552    24A     -0.575764
      25A     -0.562143    26A     -0.534138    27A     -0.496388
      28A     -0.488631    29A     -0.486292    30A     -0.483670
      31A     -0.482218    32A     -0.479492    33A     -0.330968
      34A     -0.322228

    Virtual:

      35A      0.135183    36A      0.139519    37A      0.172676
      38A      0.195734    39A      0.198786    40A      0.217390
      41A      0.235255    42A      0.238978    43A      0.255905
      44A      0.258690    45A      0.268496    46A      0.275484
      47A      0.286277    48A      0.289733    49A      0.295744
      50A      0.337225    51A      0.366699    52A      0.378451
      53A      0.404706    54A      0.453063    55A      0.462811
      56A      0.480934    57A      0.490610    58A      0.560252
      59A      0.584734    60A      0.597636    61A      0.602256
      62A      0.613888    63A      0.644759    64A      0.669013
      65A      0.678836    66A      0.682104    67A      0.694550
      68A      0.708366    69A      0.716897    70A      0.739934
      71A      0.740459    72A      0.745536    73A      0.759054
      74A      0.767173    75A      0.778982    76A      0.804343
      77A      0.840358    78A      0.849699    79A      0.858052
      80A      0.864687    81A      0.870908    82A      0.877445
      83A      0.886721    84A      0.896815    85A      0.898411
      86A      0.906515    87A      0.910543    88A      0.920452
      89A      0.938142    90A      0.942507    91A      0.961779
      92A      0.976287    93A      0.991142    94A      0.999085
      95A      1.011213    96A      1.050365    97A      1.117311
      98A      1.127756    99A      1.132366   100A      1.137222
     101A      1.151722   102A      1.155011   103A      1.187125
     104A      1.239052   105A      1.239686   106A      1.243862
     107A      1.251813   108A      1.255811   109A      1.299256
     110A      1.306445   111A      1.323867   112A      1.328982
     113A      1.412368   114A      1.483610   115A      1.494676
     116A      1.507232   117A      1.515796   118A      1.558926
     119A      1.578808   120A      1.601321   121A      1.674149
     122A      1.680306   123A      1.697682   124A      1.702364
     125A      1.733466   126A      1.749192   127A      1.758545
     128A      1.796842   129A      1.808365   130A      1.856091
     131A      1.860745   132A      1.873549   133A      1.880828
     134A      1.894650   135A      1.908235   136A      1.912082
     137A      1.920637   138A      1.926845   139A      1.941722
     140A      1.946786   141A      1.955439   142A      1.960597
     143A      1.967413   144A      1.970879   145A      1.978944
     146A      1.984403   147A      1.988241   148A      1.996208
     149A      2.035165   150A      2.065348   151A      2.069572
     152A      2.102609   153A      2.108639   154A      2.131314
     155A      2.141267   156A      2.153395   157A      2.159106
     158A      2.172555   159A      2.177083   160A      2.258138
     161A      2.276973   162A      2.289329   163A      2.297707
     164A      2.298736   165A      2.313806   166A      2.320352
     167A      2.321031   168A      2.453904   169A      2.469020
     170A      2.477817   171A      2.482924   172A      2.491147
     173A      2.542586   174A      2.572121   175A      2.589918
     176A      2.619173   177A      2.737740   178A      2.753024
     179A      2.772332   180A      2.778106   181A      2.784672
     182A      2.798009   183A      2.813566   184A      2.847435
     185A      2.850576   186A      2.868077   187A      2.871768
     188A      2.951284   189A      2.979177   190A      2.990225
     191A      3.009098   192A      3.020518   193A      3.151577
     194A      3.196752   195A      3.293069   196A      3.961150

    Final Occupation by Irrep:
              A
    DOCC [    34 ]

  @RHF Final Energy:  -348.99242163882064

   => Energetics <=

    Nuclear Repulsion Energy =            404.8342952879734753
    One-Electron Energy =               -1272.3675367824109799
    Two-Electron Energy =                 518.5408198556168600
    Total Energy =                       -348.9924216388207014

Computation Completed

Properties will be evaluated at   0.000000,   0.000000,   0.000000 [a0]

Properties computed using the SCF density matrix

  Nuclear Dipole Moment: [e a0]
     X:    12.5968      Y:    -2.9914      Z:     0.6476

  Electronic Dipole Moment: [e a0]
     X:   -12.5903      Y:     2.8718      Z:    -0.6881

  Dipole Moment: [e a0]
     X:     0.0065      Y:    -0.1196      Z:    -0.0404     Total:     0.1264

  Dipole Moment: [D]
     X:     0.0166      Y:    -0.3040      Z:    -0.1028     Total:     0.3214

*** tstop() called on ds3 at Tue Apr 28 20:02:35 2020
Module time:
	user time   =      64.53 seconds =       1.08 minutes
	system time =      28.44 seconds =       0.47 minutes
	total time  =         94 seconds =       1.57 minutes
Total time:
	user time   =      64.53 seconds =       1.08 minutes
	system time =      28.44 seconds =       0.47 minutes
	total time  =         94 seconds =       1.57 minutes
                                     G D M A

                                 by Anthony Stone

                           version 2.2.06, 22 June 2011

               Distributed Multipoles from Gaussian wavefunctions

Starting at 20:2:35 on 28 Apr 2020

Using SCF density matrix from file ./SSI/SSI-048LEU-070PHE-2-dimer.test.9610.fchk

                         Distributed Multipole Analysis

Standard DMA

Positions and radii in angstrom
Multipole moments in atomic units, ea_0^k for rank k

C          x =  3.365498  y = -0.541223  z =  0.262553 angstrom
           Maximum rank =  0   Radius =  0.650 angstrom
                   Q00  =  -0.238621

C          x =  3.942498  y =  0.578777  z =  1.123553 angstrom
           Maximum rank =  0   Radius =  0.650 angstrom
                   Q00  =  -0.229383

H          x =  2.967498  y = -0.132223  z = -0.665447 angstrom
           Maximum rank =  0   Radius =  0.325 angstrom
                   Q00  =   0.073884

H          x =  4.149498  y = -1.260223  z =  0.025553 angstrom
           Maximum rank =  0   Radius =  0.325 angstrom
                   Q00  =   0.073823

H          x =  2.569498  y = -1.054223  z =  0.802553 angstrom
           Maximum rank =  0   Radius =  0.325 angstrom
                   Q00  =   0.083986

H          x =  4.384498  y =  0.123777  z =  1.977553 angstrom
           Maximum rank =  0   Radius =  0.325 angstrom
                   Q00  =   0.081478

H          x =  3.128598  y =  1.265035  z =  1.400353 angstrom
           Maximum rank =  0   Radius =  0.325 angstrom
                   Q00  =   0.081238

H          x =  4.759033  y =  1.086508  z =  0.589253 angstrom
           Maximum rank =  0   Radius =  0.325 angstrom
                   Q00  =   0.074635

C          x = -0.532502  y = -2.098223  z = -1.318447 angstrom
           Maximum rank =  0   Radius =  0.650 angstrom
                   Q00  =  -0.200133

C          x = -0.209502  y =  0.359777  z = -0.857447 angstrom
           Maximum rank =  0   Radius =  0.650 angstrom
                   Q00  =  -0.014922

C          x = -0.931502  y = -0.810223  z = -0.641447 angstrom
           Maximum rank =  0   Radius =  0.650 angstrom
                   Q00  =  -0.105580

C          x = -0.586502  y =  1.556777  z = -0.235447 angstrom
           Maximum rank =  0   Radius =  0.650 angstrom
                   Q00  =  -0.081126

C          x = -2.040502  y = -0.777223  z =  0.205553 angstrom
           Maximum rank =  0   Radius =  0.650 angstrom
                   Q00  =  -0.044927

C          x = -1.704502  y =  1.584777  z =  0.592553 angstrom
           Maximum rank =  0   Radius =  0.650 angstrom
                   Q00  =  -0.087186

C          x = -2.431502  y =  0.414777  z =  0.810553 angstrom
           Maximum rank =  0   Radius =  0.650 angstrom
                   Q00  =  -0.078090

H          x =  0.648498  y =  0.349777  z = -1.516447 angstrom
           Maximum rank =  0   Radius =  0.325 angstrom
                   Q00  =   0.058712

H          x = -0.018502  y =  2.459777  z = -0.408447 angstrom
           Maximum rank =  0   Radius =  0.325 angstrom
                   Q00  =   0.065890

H          x = -0.744502  y = -2.934223  z = -0.649447 angstrom
           Maximum rank =  0   Radius =  0.325 angstrom
                   Q00  =   0.098406

H          x =  0.545498  y = -2.083223  z = -1.488447 angstrom
           Maximum rank =  0   Radius =  0.325 angstrom
                   Q00  =   0.098894

H          x = -2.608502  y = -1.678223  z =  0.383553 angstrom
           Maximum rank =  0   Radius =  0.325 angstrom
                   Q00  =   0.056785

H          x = -2.011502  y =  2.508777  z =  1.061553 angstrom
           Maximum rank =  0   Radius =  0.325 angstrom
                   Q00  =   0.062030

H          x = -3.294502  y =  0.423777  z =  1.459553 angstrom
           Maximum rank =  0   Radius =  0.325 angstrom
                   Q00  =   0.064865

H          x = -1.038087  y = -2.266034  z = -2.280847 angstrom
           Maximum rank =  0   Radius =  0.325 angstrom
                   Q00  =   0.105342

Total multipoles referred to origin at
           x =   0.000000,  y =    0.000000,  z =    0.000000 angstrom
                   Q00  =  -0.000000

Finished at 20:2:35 on 28 Apr 2020

  DMA results are available in the Python driver through the
	  variable('DMA DISTRIBUTED MULTIPOLES')
  and
	  variable('DMA TOTAL MULTIPOLES')
  commands.

    Psi4 stopped on: Tuesday, 28 April 2020 08:02PM
    Psi4 wall time for execution: 0:01:33.74

*** Psi4 exiting successfully. Buy a developer a beer!
