                               Psi4 1.3.2 release

  ==> Input File <==

--------------------------------------------------------------------------
import numpy as np
set {scf_type pk
basis cc-pvdz
d_convergence 10
gdma_switch   0
gdma_limit    0
gdma_origin   [ 0.0,  0.0,  0.0 ]
}
molecule test {
    units Angstrom
    0 1
    --
    0 1
    C                2.316352426235195    -3.230593286534294     0.023159962112725
    C               -1.704647573764805    -1.899593286534295     0.886159962112725
    C               -0.613647573764805    -1.323593286534295     1.550159962112725
    C               -1.482647573764805    -2.901593286534294    -0.065840037887275
    C                0.686352426235195    -1.746593286534295     1.261159962112725
    C               -0.183647573764805    -3.318593286534294    -0.344840037887275
    C                0.912352426235195    -2.737593286534294     0.301159962112725
    H               -2.712647573764805    -1.584593286534295     1.106159962112725
    H               -0.784647573764805    -0.550593286534294     2.285159962112725
    H               -2.309647573764805    -3.360593286534294    -0.580840037887275
    H                1.520352426235195    -1.299593286534295     1.783159962112725
    H               -0.027647573764805    -4.102593286534295    -1.067840037887275
    H                2.271352426235195    -4.317593286534294    -0.033840037887275
    H                2.958352426235194    -2.986593286534295     0.871159962112725
    H                2.781418426235195    -2.836966286534295    -0.892680037887275
    C                2.358352426235194     2.558406713465705     0.046159962112725
    C               -1.065647573764805     1.244406713465706    -0.998840037887275
    C                0.295352426235195     1.293406713465705    -0.670840037887275
    C               -1.843647573764805     2.401406713465706    -0.940840037887275
    C                0.888352426235195     2.499406713465706    -0.285840037887275
    C               -1.259647573764805     3.605406713465705    -0.548840037887275
    C                0.104352426235195     3.653406713465705    -0.236840037887275
    H               -1.510647573764805     0.300406713465706    -1.277840037887275
    H                0.876352426235195     0.383406713465706    -0.702840037887275
    H               -2.890647573764805     2.359406713465706    -1.201840037887275
    H               -1.856647573764805     4.506406713465706    -0.501840037887275
    H                2.536352426235195     1.960406713465705     0.937159962112725
    H                2.639352426235194     3.588406713465706     0.276159962112725
    H                0.549352426235195     4.595406713465705     0.052159962112725
    H                3.009276426235195     2.182046713465706    -0.756740037887275

}
e, wfn = energy('scf', return_wfn=True)
gdma(wfn)
dmavals = variable('DMA DISTRIBUTED MULTIPOLES')
charges = np.array(dmavals)
print(charges)
np.save('SSI-141PHE-152PHE-1-dimer.npy', np.array(charges))--------------------------------------------------------------------------

*** tstart() called on ds3
*** at Tue Apr 28 09:03:21 2020

   => Loading Basis Set <=

    Name: CC-PVDZ
    Role: ORBITAL
    Keyword: BASIS
    atoms 1-7, 16-22  entry C          line   138 file /theoryfs2/ds/metcalf/miniconda2/envs/tf2gpu/share/psi4/basis/cc-pvdz.gbs
    atoms 8-15, 23-30 entry H          line    22 file /theoryfs2/ds/metcalf/miniconda2/envs/tf2gpu/share/psi4/basis/cc-pvdz.gbs

         ---------------------------------------------------------
                                   SCF
               by Justin Turney, Rob Parrish, Andy Simmonett
                          and Daniel G. A. Smith
                              RHF Reference
                        1 Threads,    500 MiB Core
         ---------------------------------------------------------

  ==> Geometry <==

    Molecular point group: c1
    Full point group: C1

    Geometry (in Angstrom), charge = 0, multiplicity = 1:

       Center              X                  Y                   Z               Mass
    ------------   -----------------  -----------------  -----------------  -----------------
         C            2.316352426235    -3.230593286534     0.023159962113    12.000000000000
         C           -1.704647573765    -1.899593286534     0.886159962113    12.000000000000
         C           -0.613647573765    -1.323593286534     1.550159962113    12.000000000000
         C           -1.482647573765    -2.901593286534    -0.065840037887    12.000000000000
         C            0.686352426235    -1.746593286534     1.261159962113    12.000000000000
         C           -0.183647573765    -3.318593286534    -0.344840037887    12.000000000000
         C            0.912352426235    -2.737593286534     0.301159962113    12.000000000000
         H           -2.712647573765    -1.584593286534     1.106159962113     1.007825032230
         H           -0.784647573765    -0.550593286534     2.285159962113     1.007825032230
         H           -2.309647573765    -3.360593286534    -0.580840037887     1.007825032230
         H            1.520352426235    -1.299593286534     1.783159962113     1.007825032230
         H           -0.027647573765    -4.102593286534    -1.067840037887     1.007825032230
         H            2.271352426235    -4.317593286534    -0.033840037887     1.007825032230
         H            2.958352426235    -2.986593286534     0.871159962113     1.007825032230
         H            2.781418426235    -2.836966286534    -0.892680037887     1.007825032230
         C            2.358352426235     2.558406713466     0.046159962113    12.000000000000
         C           -1.065647573765     1.244406713466    -0.998840037887    12.000000000000
         C            0.295352426235     1.293406713466    -0.670840037887    12.000000000000
         C           -1.843647573765     2.401406713466    -0.940840037887    12.000000000000
         C            0.888352426235     2.499406713466    -0.285840037887    12.000000000000
         C           -1.259647573765     3.605406713466    -0.548840037887    12.000000000000
         C            0.104352426235     3.653406713466    -0.236840037887    12.000000000000
         H           -1.510647573765     0.300406713466    -1.277840037887     1.007825032230
         H            0.876352426235     0.383406713466    -0.702840037887     1.007825032230
         H           -2.890647573765     2.359406713466    -1.201840037887     1.007825032230
         H           -1.856647573765     4.506406713466    -0.501840037887     1.007825032230
         H            2.536352426235     1.960406713466     0.937159962113     1.007825032230
         H            2.639352426235     3.588406713466     0.276159962113     1.007825032230
         H            0.549352426235     4.595406713466     0.052159962113     1.007825032230
         H            3.009276426235     2.182046713466    -0.756740037887     1.007825032230

  Running in c1 symmetry.

  Rotational constants: A =      0.03679  B =      0.01224  C =      0.01014 [cm^-1]
  Rotational constants: A =   1103.03341  B =    366.89977  C =    304.11306 [MHz]
  Nuclear repulsion =  786.836421758175334

  Charge       = 0
  Multiplicity = 1
  Electrons    = 100
  Nalpha       = 50
  Nbeta        = 50

  ==> Algorithm <==

  SCF Algorithm Type is PK.
  DIIS enabled.
  MOM disabled.
  Fractional occupation disabled.
  Guess Type is SAD.
  Energy threshold   = 1.00e-06
  Density threshold  = 1.00e-10
  Integral threshold = 0.00e+00

  ==> Primary Basis <==

  Basis Set: CC-PVDZ
    Blend: CC-PVDZ
    Number of shells: 132
    Number of basis function: 276
    Number of Cartesian functions: 290
    Spherical Harmonics?: true
    Max angular momentum: 2

  ==> Pre-Iterations <==

   -------------------------------------------------------
    Irrep   Nso     Nmo     Nalpha   Nbeta   Ndocc  Nsocc
   -------------------------------------------------------
     A        276     276       0       0       0       0
   -------------------------------------------------------
    Total     276     276      50      50      50       0
   -------------------------------------------------------

  ==> Integral Setup <==

  Using integral reordering PK algorithm.
  Sizing the integral batches needed.
  Building batch lookup table.
   Calculation information:
      Number of atoms:                  30
      Number of AO shells:             132
      Number of primitives:            388
      Number of atomic orbitals:       290
      Number of basis functions:       276

      Integral cutoff                 1.00e-12
      Number of threads:                 1

	Batch   1 pq = [       0,    9405] index = [             0,44231715] size =     44231715
	Batch   2 pq = [    9405,   13301] index = [      44231715,88464951] size =     44233236
	Batch   3 pq = [   13301,   16290] index = [      88464951,132690195] size =     44225244
	Batch   4 pq = [   16290,   18810] index = [     132690195,176917455] size =     44227260
	Batch   5 pq = [   18810,   21030] index = [     176917455,221140965] size =     44223510
	Batch   6 pq = [   21030,   23037] index = [     221140965,265363203] size =     44222238
	Batch   7 pq = [   23037,   24883] index = [     265363203,309594286] size =     44231083
	Batch   8 pq = [   24883,   26601] index = [     309594286,353819901] size =     44225615
	Batch   9 pq = [   26601,   28214] index = [     353819901,398029005] size =     44209104
	Batch  10 pq = [   28214,   29740] index = [     398029005,442248670] size =     44219665
	Batch  11 pq = [   29740,   31191] index = [     442248670,486454836] size =     44206166
	Batch  12 pq = [   31191,   32578] index = [     486454836,530679331] size =     44224495
	Batch  13 pq = [   32578,   33908] index = [     530679331,574893186] size =     44213855
	Batch  14 pq = [   33908,   35188] index = [     574893186,619115266] size =     44222080
	Batch  15 pq = [   35188,   36423] index = [     619115266,663335676] size =     44220410
	Batch  16 pq = [   36423,   37617] index = [     663335676,707538153] size =     44202477
	Batch  17 pq = [   37617,   38226] index = [     707538153,730632651] size =     23094498
  Task number: 67
  Buffer size: 11059200
  Buffer per thread: 2
  We computed 39743925 shell quartets total.
  Whereas there are 38531031 unique shell quartets.
     3.15 percent of shell quartets recomputed by reordering.

  ==> DiskJK: Disk-Based J/K Matrices <==

    J tasked:                  Yes
    K tasked:                  Yes
    wK tasked:                  No
    Memory [MiB]:              375
    Schwarz Cutoff:          1E-12

    OpenMP threads:              1

  Minimum eigenvalue in the overlap matrix is 3.0890632096E-04.
  Using Symmetric Orthogonalization.

  SCF Guess: Superposition of Atomic Densities via on-the-fly atomic UHF.

  ==> Iterations <==

                        Total Energy        Delta E     RMS |[F,P]|

   @RHF iter SAD:  -538.26393254140021   -5.38264e+02   0.00000e+00
   @RHF iter   1:  -539.23125349074564   -9.67321e-01   2.27988e-03 DIIS
   @RHF iter   2:  -539.47963154471620   -2.48378e-01   9.17420e-04 DIIS
   @RHF iter   3:  -539.51498645087383   -3.53549e-02   2.12365e-04 DIIS
   @RHF iter   4:  -539.51806104619732   -3.07460e-03   4.99173e-05 DIIS
   @RHF iter   5:  -539.51818313869956   -1.22093e-04   1.59023e-05 DIIS
   @RHF iter   6:  -539.51819524005805   -1.21014e-05   4.45050e-06 DIIS
   @RHF iter   7:  -539.51819634767810   -1.10762e-06   1.03986e-06 DIIS
   @RHF iter   8:  -539.51819643038425   -8.27062e-08   2.86473e-07 DIIS
   @RHF iter   9:  -539.51819644124600   -1.08618e-08   1.46308e-07 DIIS
   @RHF iter  10:  -539.51819644352759   -2.28158e-09   5.95759e-08 DIIS
   @RHF iter  11:  -539.51819644438842   -8.60837e-10   2.39637e-08 DIIS
   @RHF iter  12:  -539.51819644454326   -1.54841e-10   1.16863e-08 DIIS
   @RHF iter  13:  -539.51819644457134   -2.80806e-11   3.68924e-09 DIIS
   @RHF iter  14:  -539.51819644456657    4.77485e-12   1.14393e-09 DIIS
   @RHF iter  15:  -539.51819644457282   -6.25278e-12   4.74086e-10 DIIS
   @RHF iter  16:  -539.51819644457225    5.68434e-13   1.75818e-10 DIIS
   @RHF iter  17:  -539.51819644457305   -7.95808e-13   8.61778e-11 DIIS
  Energy and wave function converged.

  ==> Post-Iterations <==

    Orbital Energies [Eh]
    ---------------------

    Doubly Occupied:

       1A    -11.244396     2A    -11.237990     3A    -11.237350
       4A    -11.236040     5A    -11.233888     6A    -11.232899
       7A    -11.232325     8A    -11.232017     9A    -11.231189
      10A    -11.228539    11A    -11.226674    12A    -11.226430
      13A    -11.226036    14A    -11.223139    15A     -1.150872
      16A     -1.143253    17A     -1.042783    18A     -1.037820
      19A     -1.012064    20A     -1.001953    21A     -0.931804
      22A     -0.926229    23A     -0.824634    24A     -0.817548
      25A     -0.797118    26A     -0.788492    27A     -0.691249
      28A     -0.683675    29A     -0.632435    30A     -0.629954
      31A     -0.624551    32A     -0.623081    33A     -0.583628
      34A     -0.579857    35A     -0.573552    36A     -0.571635
      37A     -0.562415    38A     -0.558062    39A     -0.535472
      40A     -0.531656    41A     -0.488704    42A     -0.485774
      43A     -0.483033    44A     -0.478718    45A     -0.477502
      46A     -0.474324    47A     -0.336695    48A     -0.325415
      49A     -0.316465    50A     -0.315553

    Virtual:

      51A      0.129631    52A      0.131759    53A      0.146114
      54A      0.151085    55A      0.170666    56A      0.195797
      57A      0.198033    58A      0.200999    59A      0.221274
      60A      0.229053    61A      0.241258    62A      0.250184
      63A      0.253209    64A      0.260842    65A      0.271966
      66A      0.273996    67A      0.280362    68A      0.295041
      69A      0.300146    70A      0.321359    71A      0.360436
      72A      0.370507    73A      0.372990    74A      0.384408
      75A      0.450391    76A      0.453984    77A      0.462408
      78A      0.466839    79A      0.474380    80A      0.478057
      81A      0.492419    82A      0.505845    83A      0.562963
      84A      0.571052    85A      0.585591    86A      0.607754
      87A      0.625352    88A      0.636083    89A      0.656940
      90A      0.674509    91A      0.680279    92A      0.691136
      93A      0.698204    94A      0.707366    95A      0.707771
      96A      0.717895    97A      0.726440    98A      0.731191
      99A      0.742331   100A      0.747625   101A      0.751587
     102A      0.753541   103A      0.756046   104A      0.761193
     105A      0.766677   106A      0.769158   107A      0.780090
     108A      0.794376   109A      0.794820   110A      0.817001
     111A      0.833569   112A      0.846007   113A      0.858426
     114A      0.862216   115A      0.867773   116A      0.874894
     117A      0.877966   118A      0.889677   119A      0.893326
     120A      0.894020   121A      0.905627   122A      0.910481
     123A      0.914486   124A      0.925966   125A      0.932601
     126A      0.940700   127A      0.943475   128A      0.957263
     129A      0.964558   130A      0.987885   131A      0.994948
     132A      1.015610   133A      1.023849   134A      1.036477
     135A      1.055385   136A      1.063058   137A      1.118782
     138A      1.120771   139A      1.128677   140A      1.139307
     141A      1.152009   142A      1.153464   143A      1.162692
     144A      1.169997   145A      1.195207   146A      1.206577
     147A      1.220279   148A      1.231752   149A      1.238329
     150A      1.245910   151A      1.248624   152A      1.264411
     153A      1.267527   154A      1.280346   155A      1.296022
     156A      1.303450   157A      1.308368   158A      1.316120
     159A      1.320578   160A      1.325956   161A      1.336492
     162A      1.353784   163A      1.413683   164A      1.421061
     165A      1.500828   166A      1.510391   167A      1.525959
     168A      1.545510   169A      1.551214   170A      1.565480
     171A      1.598852   172A      1.610252   173A      1.675408
     174A      1.684753   175A      1.694453   176A      1.701343
     177A      1.728433   178A      1.733724   179A      1.748969
     180A      1.753827   181A      1.768400   182A      1.771621
     183A      1.783795   184A      1.804781   185A      1.811216
     186A      1.820995   187A      1.858955   188A      1.860893
     189A      1.886372   190A      1.893397   191A      1.898750
     192A      1.903001   193A      1.905096   194A      1.908432
     195A      1.918057   196A      1.925133   197A      1.929547
     198A      1.933486   199A      1.944876   200A      1.949749
     201A      1.952495   202A      1.962068   203A      1.966875
     204A      1.973664   205A      1.985139   206A      1.993442
     207A      2.004599   208A      2.020111   209A      2.041021
     210A      2.044843   211A      2.052143   212A      2.060313
     213A      2.073161   214A      2.082268   215A      2.107330
     216A      2.116361   217A      2.132800   218A      2.142360
     219A      2.152668   220A      2.155458   221A      2.161941
     222A      2.166981   223A      2.170060   224A      2.176472
     225A      2.189755   226A      2.215306   227A      2.242756
     228A      2.255639   229A      2.264840   230A      2.273962
     231A      2.285360   232A      2.297524   233A      2.304583
     234A      2.314722   235A      2.325441   236A      2.335503
     237A      2.338412   238A      2.374433   239A      2.443603
     240A      2.458530   241A      2.473690   242A      2.487959
     243A      2.506571   244A      2.518541   245A      2.532692
     246A      2.540583   247A      2.615040   248A      2.640419
     249A      2.726413   250A      2.740724   251A      2.750680
     252A      2.757790   253A      2.766545   254A      2.773523
     255A      2.785825   256A      2.792215   257A      2.809766
     258A      2.826438   259A      2.851444   260A      2.856227
     261A      2.865853   262A      2.867931   263A      2.975998
     264A      2.981431   265A      2.999823   266A      3.014734
     267A      3.029928   268A      3.039306   269A      3.147972
     270A      3.163497   271A      3.192535   272A      3.203134
     273A      3.290191   274A      3.300704   275A      3.950613
     276A      3.958039

    Final Occupation by Irrep:
              A
    DOCC [    50 ]

  @RHF Final Energy:  -539.51819644457305

   => Energetics <=

    Nuclear Repulsion Energy =            786.8364217581753337
    One-Electron Energy =               -2290.1354627820255700
    Two-Electron Energy =                 963.7808445792773000
    Total Energy =                       -539.5181964445730500

Computation Completed

Properties will be evaluated at   0.000000,   0.000000,   0.000000 [a0]

Properties computed using the SCF density matrix

  Nuclear Dipole Moment: [e a0]
     X:     6.6088      Y:    -1.0905      Z:     0.2764

  Electronic Dipole Moment: [e a0]
     X:    -6.4084      Y:     0.9017      Z:    -0.2170

  Dipole Moment: [e a0]
     X:     0.2004      Y:    -0.1888      Z:     0.0594     Total:     0.2817

  Dipole Moment: [D]
     X:     0.5094      Y:    -0.4799      Z:     0.1510     Total:     0.7160

*** tstop() called on ds3 at Tue Apr 28 09:15:44 2020
Module time:
	user time   =     324.11 seconds =       5.40 minutes
	system time =     119.63 seconds =       1.99 minutes
	total time  =        743 seconds =      12.38 minutes
Total time:
	user time   =     324.11 seconds =       5.40 minutes
	system time =     119.63 seconds =       1.99 minutes
	total time  =        743 seconds =      12.38 minutes
                                     G D M A

                                 by Anthony Stone

                           version 2.2.06, 22 June 2011

               Distributed Multipoles from Gaussian wavefunctions

Starting at 9:15:44 on 28 Apr 2020

Using SCF density matrix from file ./SSI/SSI-141PHE-152PHE-1-dimer.test.9392.fchk

                         Distributed Multipole Analysis

Standard DMA

Positions and radii in angstrom
Multipole moments in atomic units, ea_0^k for rank k

C          x =  2.316352  y = -3.230593  z =  0.023160 angstrom
           Maximum rank =  0   Radius =  0.650 angstrom
                   Q00  =  -0.198922

C          x = -1.704648  y = -1.899593  z =  0.886160 angstrom
           Maximum rank =  0   Radius =  0.650 angstrom
                   Q00  =  -0.091239

C          x = -0.613648  y = -1.323593  z =  1.550160 angstrom
           Maximum rank =  0   Radius =  0.650 angstrom
                   Q00  =  -0.047470

C          x = -1.482648  y = -2.901593  z = -0.065840 angstrom
           Maximum rank =  0   Radius =  0.650 angstrom
                   Q00  =  -0.073474

C          x =  0.686352  y = -1.746593  z =  1.261160 angstrom
           Maximum rank =  0   Radius =  0.650 angstrom
                   Q00  =  -0.092559

C          x = -0.183648  y = -3.318593  z = -0.344840 angstrom
           Maximum rank =  0   Radius =  0.650 angstrom
                   Q00  =  -0.004023

C          x =  0.912352  y = -2.737593  z =  0.301160 angstrom
           Maximum rank =  0   Radius =  0.650 angstrom
                   Q00  =  -0.107535

H          x = -2.712648  y = -1.584593  z =  1.106160 angstrom
           Maximum rank =  0   Radius =  0.325 angstrom
                   Q00  =   0.064397

H          x = -0.784648  y = -0.550593  z =  2.285160 angstrom
           Maximum rank =  0   Radius =  0.325 angstrom
                   Q00  =   0.072046

H          x = -2.309648  y = -3.360593  z = -0.580840 angstrom
           Maximum rank =  0   Radius =  0.325 angstrom
                   Q00  =   0.065903

H          x =  1.520352  y = -1.299593  z =  1.783160 angstrom
           Maximum rank =  0   Radius =  0.325 angstrom
                   Q00  =   0.058395

H          x = -0.027648  y = -4.102593  z = -1.067840 angstrom
           Maximum rank =  0   Radius =  0.325 angstrom
                   Q00  =   0.056571

H          x =  2.271352  y = -4.317593  z = -0.033840 angstrom
           Maximum rank =  0   Radius =  0.325 angstrom
                   Q00  =   0.099282

H          x =  2.958352  y = -2.986593  z =  0.871160 angstrom
           Maximum rank =  0   Radius =  0.325 angstrom
                   Q00  =   0.097509

H          x =  2.781418  y = -2.836966  z = -0.892680 angstrom
           Maximum rank =  0   Radius =  0.325 angstrom
                   Q00  =   0.104438

C          x =  2.358352  y =  2.558407  z =  0.046160 angstrom
           Maximum rank =  0   Radius =  0.650 angstrom
                   Q00  =  -0.206173

C          x = -1.065648  y =  1.244407  z = -0.998840 angstrom
           Maximum rank =  0   Radius =  0.650 angstrom
                   Q00  =  -0.049699

C          x =  0.295352  y =  1.293407  z = -0.670840 angstrom
           Maximum rank =  0   Radius =  0.650 angstrom
                   Q00  =  -0.088982

C          x = -1.843648  y =  2.401407  z = -0.940840 angstrom
           Maximum rank =  0   Radius =  0.650 angstrom
                   Q00  =  -0.089902

C          x =  0.888352  y =  2.499407  z = -0.285840 angstrom
           Maximum rank =  0   Radius =  0.650 angstrom
                   Q00  =  -0.100853

C          x = -1.259648  y =  3.605407  z = -0.548840 angstrom
           Maximum rank =  0   Radius =  0.650 angstrom
                   Q00  =  -0.080274

C          x =  0.104352  y =  3.653407  z = -0.236840 angstrom
           Maximum rank =  0   Radius =  0.650 angstrom
                   Q00  =   0.003850

H          x = -1.510648  y =  0.300407  z = -1.277840 angstrom
           Maximum rank =  0   Radius =  0.325 angstrom
                   Q00  =   0.071729

H          x =  0.876352  y =  0.383407  z = -0.702840 angstrom
           Maximum rank =  0   Radius =  0.325 angstrom
                   Q00  =   0.061923

H          x = -2.890648  y =  2.359407  z = -1.201840 angstrom
           Maximum rank =  0   Radius =  0.325 angstrom
                   Q00  =   0.058519

H          x = -1.856648  y =  4.506407  z = -0.501840 angstrom
           Maximum rank =  0   Radius =  0.325 angstrom
                   Q00  =   0.063473

H          x =  2.536352  y =  1.960407  z =  0.937160 angstrom
           Maximum rank =  0   Radius =  0.325 angstrom
                   Q00  =   0.098724

H          x =  2.639352  y =  3.588407  z =  0.276160 angstrom
           Maximum rank =  0   Radius =  0.325 angstrom
                   Q00  =   0.096220

H          x =  0.549352  y =  4.595407  z =  0.052160 angstrom
           Maximum rank =  0   Radius =  0.325 angstrom
                   Q00  =   0.056530

H          x =  3.009276  y =  2.182047  z = -0.756740 angstrom
           Maximum rank =  0   Radius =  0.325 angstrom
                   Q00  =   0.101595

Total multipoles referred to origin at
           x =   0.000000,  y =    0.000000,  z =    0.000000 angstrom
                   Q00  =  -0.000000

Finished at 9:15:44 on 28 Apr 2020

  DMA results are available in the Python driver through the
	  variable('DMA DISTRIBUTED MULTIPOLES')
  and
	  variable('DMA TOTAL MULTIPOLES')
  commands.

    Psi4 stopped on: Tuesday, 28 April 2020 09:15AM
    Psi4 wall time for execution: 0:12:23.28

*** Psi4 exiting successfully. Buy a developer a beer!
