                               Psi4 1.3.2 release

  ==> Input File <==

--------------------------------------------------------------------------
import numpy as np
set {scf_type pk
basis cc-pvdz
d_convergence 10
gdma_switch   0
gdma_limit    0
gdma_origin   [ 0.0,  0.0,  0.0 ]
}
molecule test {
    units Angstrom
    0 1
    --
    0 1
    C                2.262346522421146     1.447024097208002     0.254189790498940
    C                0.022346522421146     1.008024097208002     1.223189790498941
    C                0.777346522421146     1.428024097208002     0.143189790498940
    C               -1.378653477578853     1.001024097208002     1.160189790498941
    C                0.137346522421146     1.849024097208002    -1.024810209501060
    C               -2.021653477578853     1.411024097208002    -0.003810209501060
    C               -1.263653477578854     1.841024097208002    -1.106810209501060
    H                0.532346522421146     0.688024097208002     2.120189790498940
    H               -1.956653477578854     0.676024097208002     2.013189790498941
    H                2.655346522421147     1.257024097208002    -0.739810209501060
    H                2.546346522421147     0.620024097208002     0.909189790498940
    H                0.730346522421147     2.183024097208002    -1.864810209501060
    H               -3.102653477578853     1.395024097208002    -0.051810209501060
    H               -1.761653477578853     2.164024097208002    -2.013810209501059
    H                2.654226522421146     2.403824097208002     0.629619790498940
    C                0.382346522421146    -2.650975902791998     0.261189790498940
    C               -0.966653477578854    -2.962975902791998    -0.421810209501060
    C                1.627346522421146    -3.309975902791998    -0.408810209501060
    H                0.499346522421146    -1.564975902791998     0.250189790498940
    H                0.314346522421146    -2.984975902791998     1.297189790498940
    H               -1.060653477578854    -4.031975902791998    -0.634810209501059
    H                1.716346522421146    -2.974975902791998    -1.442810209501059
    H                2.533346522421147    -3.029975902791998     0.132189790498940
    H                1.524346522421147    -4.395975902791997    -0.391810209501060
    H               -1.784695477578854    -2.649875902791998     0.243609790498940
    H               -1.020893477578854    -2.390275902791998    -1.359400209501059

}
e, wfn = energy('scf', return_wfn=True)
gdma(wfn)
dmavals = variable('DMA DISTRIBUTED MULTIPOLES')
charges = np.array(dmavals)
print(charges)
np.save('SSI-236PHE-279ILE-2-dimer.npy', np.array(charges))--------------------------------------------------------------------------

*** tstart() called on ds3
*** at Tue Apr 28 08:56:18 2020

   => Loading Basis Set <=

    Name: CC-PVDZ
    Role: ORBITAL
    Keyword: BASIS
    atoms 1-7, 16-18  entry C          line   138 file /theoryfs2/ds/metcalf/miniconda2/envs/tf2gpu/share/psi4/basis/cc-pvdz.gbs
    atoms 8-15, 19-26 entry H          line    22 file /theoryfs2/ds/metcalf/miniconda2/envs/tf2gpu/share/psi4/basis/cc-pvdz.gbs

         ---------------------------------------------------------
                                   SCF
               by Justin Turney, Rob Parrish, Andy Simmonett
                          and Daniel G. A. Smith
                              RHF Reference
                        1 Threads,    500 MiB Core
         ---------------------------------------------------------

  ==> Geometry <==

    Molecular point group: c1
    Full point group: C1

    Geometry (in Angstrom), charge = 0, multiplicity = 1:

       Center              X                  Y                   Z               Mass
    ------------   -----------------  -----------------  -----------------  -----------------
         C            2.262346522421     1.447024097208     0.254189790499    12.000000000000
         C            0.022346522421     1.008024097208     1.223189790499    12.000000000000
         C            0.777346522421     1.428024097208     0.143189790499    12.000000000000
         C           -1.378653477579     1.001024097208     1.160189790499    12.000000000000
         C            0.137346522421     1.849024097208    -1.024810209501    12.000000000000
         C           -2.021653477579     1.411024097208    -0.003810209501    12.000000000000
         C           -1.263653477579     1.841024097208    -1.106810209501    12.000000000000
         H            0.532346522421     0.688024097208     2.120189790499     1.007825032230
         H           -1.956653477579     0.676024097208     2.013189790499     1.007825032230
         H            2.655346522421     1.257024097208    -0.739810209501     1.007825032230
         H            2.546346522421     0.620024097208     0.909189790499     1.007825032230
         H            0.730346522421     2.183024097208    -1.864810209501     1.007825032230
         H           -3.102653477579     1.395024097208    -0.051810209501     1.007825032230
         H           -1.761653477579     2.164024097208    -2.013810209501     1.007825032230
         H            2.654226522421     2.403824097208     0.629619790499     1.007825032230
         C            0.382346522421    -2.650975902792     0.261189790499    12.000000000000
         C           -0.966653477579    -2.962975902792    -0.421810209501    12.000000000000
         C            1.627346522421    -3.309975902792    -0.408810209501    12.000000000000
         H            0.499346522421    -1.564975902792     0.250189790499     1.007825032230
         H            0.314346522421    -2.984975902792     1.297189790499     1.007825032230
         H           -1.060653477579    -4.031975902792    -0.634810209501     1.007825032230
         H            1.716346522421    -2.974975902792    -1.442810209501     1.007825032230
         H            2.533346522421    -3.029975902792     0.132189790499     1.007825032230
         H            1.524346522421    -4.395975902792    -0.391810209501     1.007825032230
         H           -1.784695477579    -2.649875902792     0.243609790499     1.007825032230
         H           -1.020893477579    -2.390275902792    -1.359400209501     1.007825032230

  Running in c1 symmetry.

  Rotational constants: A =      0.04995  B =      0.02391  C =      0.01960 [cm^-1]
  Rotational constants: A =   1497.32111  B =    716.88503  C =    587.59712 [MHz]
  Nuclear repulsion =  493.544963989967300

  Charge       = 0
  Multiplicity = 1
  Electrons    = 76
  Nalpha       = 38
  Nbeta        = 38

  ==> Algorithm <==

  SCF Algorithm Type is PK.
  DIIS enabled.
  MOM disabled.
  Fractional occupation disabled.
  Guess Type is SAD.
  Energy threshold   = 1.00e-06
  Density threshold  = 1.00e-10
  Integral threshold = 0.00e+00

  ==> Primary Basis <==

  Basis Set: CC-PVDZ
    Blend: CC-PVDZ
    Number of shells: 108
    Number of basis function: 220
    Number of Cartesian functions: 230
    Spherical Harmonics?: true
    Max angular momentum: 2

  ==> Pre-Iterations <==

   -------------------------------------------------------
    Irrep   Nso     Nmo     Nalpha   Nbeta   Ndocc  Nsocc
   -------------------------------------------------------
     A        220     220       0       0       0       0
   -------------------------------------------------------
    Total     220     220      38      38      38       0
   -------------------------------------------------------

  ==> Integral Setup <==

  Using integral reordering PK algorithm.
  Sizing the integral batches needed.
  Building batch lookup table.
   Calculation information:
      Number of atoms:                  26
      Number of AO shells:             108
      Number of primitives:            300
      Number of atomic orbitals:       230
      Number of basis functions:       220

      Integral cutoff                 1.00e-12
      Number of threads:                 1

	Batch   1 pq = [       0,    9405] index = [             0,44231715] size =     44231715
	Batch   2 pq = [    9405,   13301] index = [      44231715,88464951] size =     44233236
	Batch   3 pq = [   13301,   16290] index = [      88464951,132690195] size =     44225244
	Batch   4 pq = [   16290,   18810] index = [     132690195,176917455] size =     44227260
	Batch   5 pq = [   18810,   21030] index = [     176917455,221140965] size =     44223510
	Batch   6 pq = [   21030,   23037] index = [     221140965,265363203] size =     44222238
	Batch   7 pq = [   23037,   24310] index = [     265363203,295500205] size =     30137002
  Task number: 27
  Buffer size: 11059200
  Buffer per thread: 2
  We computed 16549612 shell quartets total.
  Whereas there are 17325441 unique shell quartets.

  ==> DiskJK: Disk-Based J/K Matrices <==

    J tasked:                  Yes
    K tasked:                  Yes
    wK tasked:                  No
    Memory [MiB]:              375
    Schwarz Cutoff:          1E-12

    OpenMP threads:              1

  Minimum eigenvalue in the overlap matrix is 3.1934043685E-04.
  Using Symmetric Orthogonalization.

  SCF Guess: Superposition of Atomic Densities via on-the-fly atomic UHF.

  ==> Iterations <==

                        Total Energy        Delta E     RMS |[F,P]|

   @RHF iter SAD:  -386.77759742993987   -3.86778e+02   0.00000e+00
   @RHF iter   1:  -387.77463788283882   -9.97040e-01   2.72165e-03 DIIS
   @RHF iter   2:  -387.99010508346242   -2.15467e-01   1.13864e-03 DIIS
   @RHF iter   3:  -388.02433669871920   -3.42316e-02   2.50924e-04 DIIS
   @RHF iter   4:  -388.02718294518786   -2.84625e-03   6.04901e-05 DIIS
   @RHF iter   5:  -388.02729556462054   -1.12619e-04   1.90185e-05 DIIS
   @RHF iter   6:  -388.02730677677295   -1.12122e-05   5.12320e-06 DIIS
   @RHF iter   7:  -388.02730771654473   -9.39772e-07   1.10513e-06 DIIS
   @RHF iter   8:  -388.02730777406799   -5.75233e-08   2.93609e-07 DIIS
   @RHF iter   9:  -388.02730778161828   -7.55028e-09   1.26207e-07 DIIS
   @RHF iter  10:  -388.02730778332625   -1.70797e-09   6.24402e-08 DIIS
   @RHF iter  11:  -388.02730778392993   -6.03677e-10   2.47761e-08 DIIS
   @RHF iter  12:  -388.02730778402247   -9.25411e-11   1.04041e-08 DIIS
   @RHF iter  13:  -388.02730778403287   -1.04023e-11   3.89610e-09 DIIS
   @RHF iter  14:  -388.02730778403611   -3.24007e-12   1.13812e-09 DIIS
   @RHF iter  15:  -388.02730778403452    1.59162e-12   4.39315e-10 DIIS
   @RHF iter  16:  -388.02730778403543   -9.09495e-13   1.82636e-10 DIIS
   @RHF iter  17:  -388.02730778403759   -2.16005e-12   8.19248e-11 DIIS
  Energy and wave function converged.

  ==> Post-Iterations <==

    Orbital Energies [Eh]
    ---------------------

    Doubly Occupied:

       1A    -11.240581     2A    -11.238174     3A    -11.237743
       4A    -11.234426     5A    -11.233574     6A    -11.230139
       7A    -11.228341     8A    -11.214481     9A    -11.213749
      10A    -11.211435    11A     -1.152331    12A     -1.047882
      13A     -1.037636    14A     -1.009564    15A     -0.931412
      16A     -0.917801    17A     -0.827755    18A     -0.793128
      19A     -0.788931    20A     -0.689929    21A     -0.632597
      22A     -0.631617    23A     -0.616346    24A     -0.584881
      25A     -0.582203    26A     -0.580711    27A     -0.562309
      28A     -0.541940    29A     -0.536547    30A     -0.528714
      31A     -0.487343    32A     -0.485942    33A     -0.481917
      34A     -0.462534    35A     -0.461892    36A     -0.458148
      37A     -0.330772    38A     -0.322613

    Virtual:

      39A      0.131646    40A      0.139798    41A      0.169554
      42A      0.193589    43A      0.200970    44A      0.211519
      45A      0.233838    46A      0.239239    47A      0.249584
      48A      0.251831    49A      0.257485    50A      0.261883
      51A      0.269394    52A      0.285710    53A      0.290125
      54A      0.305622    55A      0.309650    56A      0.323837
      57A      0.364306    58A      0.370691    59A      0.377234
      60A      0.425106    61A      0.448049    62A      0.457633
      63A      0.482489    64A      0.486430    65A      0.565218
      66A      0.574422    67A      0.590459    68A      0.604407
      69A      0.607810    70A      0.627839    71A      0.634887
      72A      0.665587    73A      0.678867    74A      0.687018
      75A      0.700893    76A      0.732192    77A      0.736551
      78A      0.738404    79A      0.744292    80A      0.756996
      81A      0.760762    82A      0.774855    83A      0.796627
      84A      0.797786    85A      0.821762    86A      0.832847
      87A      0.856749    88A      0.864558    89A      0.866956
      90A      0.873404    91A      0.883324    92A      0.890724
      93A      0.894017    94A      0.900048    95A      0.902932
      96A      0.906078    97A      0.909229    98A      0.914911
      99A      0.922092   100A      0.928302   101A      0.937093
     102A      0.942333   103A      0.967426   104A      0.984385
     105A      0.987314   106A      1.005525   107A      1.041068
     108A      1.087047   109A      1.116007   110A      1.121101
     111A      1.128752   112A      1.147405   113A      1.152544
     114A      1.157857   115A      1.187485   116A      1.237002
     117A      1.240951   118A      1.247344   119A      1.251487
     120A      1.292621   121A      1.302448   122A      1.313793
     123A      1.320052   124A      1.332760   125A      1.380544
     126A      1.410578   127A      1.474090   128A      1.486395
     129A      1.510065   130A      1.514792   131A      1.520393
     132A      1.567769   133A      1.605233   134A      1.643033
     135A      1.673851   136A      1.678033   137A      1.692061
     138A      1.697814   139A      1.704157   140A      1.727128
     141A      1.747582   142A      1.754779   143A      1.793070
     144A      1.810715   145A      1.848345   146A      1.852337
     147A      1.864484   148A      1.870433   149A      1.888327
     150A      1.893110   151A      1.906582   152A      1.911485
     153A      1.927302   154A      1.930269   155A      1.932724
     156A      1.941761   157A      1.944187   158A      1.955221
     159A      1.957285   160A      1.965337   161A      1.977167
     162A      1.984940   163A      1.987829   164A      1.994515
     165A      2.001793   166A      2.019054   167A      2.045799
     168A      2.052105   169A      2.071522   170A      2.078963
     171A      2.107702   172A      2.125191   173A      2.139429
     174A      2.145305   175A      2.153901   176A      2.171102
     177A      2.175336   178A      2.183397   179A      2.258940
     180A      2.274747   181A      2.278031   182A      2.283600
     183A      2.295395   184A      2.303830   185A      2.310120
     186A      2.313870   187A      2.330878   188A      2.346952
     189A      2.467218   190A      2.481171   191A      2.491448
     192A      2.501660   193A      2.535868   194A      2.541289
     195A      2.577456   196A      2.614396   197A      2.624508
     198A      2.628685   199A      2.738729   200A      2.750898
     201A      2.763283   202A      2.768942   203A      2.774384
     204A      2.780853   205A      2.793316   206A      2.801895
     207A      2.820326   208A      2.844905   209A      2.874756
     210A      2.913974   211A      2.959843   212A      2.961111
     213A      2.976509   214A      2.996878   215A      3.029371
     216A      3.083115   217A      3.141720   218A      3.190012
     219A      3.288293   220A      3.954732

    Final Occupation by Irrep:
              A
    DOCC [    38 ]

  @RHF Final Energy:  -388.02730778403759

   => Energetics <=

    Nuclear Repulsion Energy =            493.5449639899673002
    One-Electron Energy =               -1501.6084698680942893
    Two-Electron Energy =                 620.0361980940894000
    Total Energy =                       -388.0273077840375890

Computation Completed

Properties will be evaluated at   0.000000,   0.000000,   0.000000 [a0]

Properties computed using the SCF density matrix

  Nuclear Dipole Moment: [e a0]
     X:     4.7053      Y:   -11.8459      Z:    -0.8472

  Electronic Dipole Moment: [e a0]
     X:    -4.6082      Y:    11.9705      Z:     0.8806

  Dipole Moment: [e a0]
     X:     0.0971      Y:     0.1247      Z:     0.0334     Total:     0.1615

  Dipole Moment: [D]
     X:     0.2468      Y:     0.3169      Z:     0.0850     Total:     0.4105

*** tstop() called on ds3 at Tue Apr 28 08:59:12 2020
Module time:
	user time   =     117.68 seconds =       1.96 minutes
	system time =      47.58 seconds =       0.79 minutes
	total time  =        174 seconds =       2.90 minutes
Total time:
	user time   =     117.68 seconds =       1.96 minutes
	system time =      47.58 seconds =       0.79 minutes
	total time  =        174 seconds =       2.90 minutes
                                     G D M A

                                 by Anthony Stone

                           version 2.2.06, 22 June 2011

               Distributed Multipoles from Gaussian wavefunctions

Starting at 8:59:12 on 28 Apr 2020

Using SCF density matrix from file ./SSI/SSI-236PHE-279ILE-2-dimer.test.12302.fchk

                         Distributed Multipole Analysis

Standard DMA

Positions and radii in angstrom
Multipole moments in atomic units, ea_0^k for rank k

C          x =  2.262347  y =  1.447024  z =  0.254190 angstrom
           Maximum rank =  0   Radius =  0.650 angstrom
                   Q00  =  -0.190174

C          x =  0.022347  y =  1.008024  z =  1.223190 angstrom
           Maximum rank =  0   Radius =  0.650 angstrom
                   Q00  =  -0.009083

C          x =  0.777347  y =  1.428024  z =  0.143190 angstrom
           Maximum rank =  0   Radius =  0.650 angstrom
                   Q00  =  -0.102839

C          x = -1.378653  y =  1.001024  z =  1.160190 angstrom
           Maximum rank =  0   Radius =  0.650 angstrom
                   Q00  =  -0.078086

C          x =  0.137347  y =  1.849024  z = -1.024810 angstrom
           Maximum rank =  0   Radius =  0.650 angstrom
                   Q00  =  -0.059576

C          x = -2.021653  y =  1.411024  z = -0.003810 angstrom
           Maximum rank =  0   Radius =  0.650 angstrom
                   Q00  =  -0.089891

C          x = -1.263653  y =  1.841024  z = -1.106810 angstrom
           Maximum rank =  0   Radius =  0.650 angstrom
                   Q00  =  -0.080552

H          x =  0.532347  y =  0.688024  z =  2.120190 angstrom
           Maximum rank =  0   Radius =  0.325 angstrom
                   Q00  =   0.056199

H          x = -1.956653  y =  0.676024  z =  2.013190 angstrom
           Maximum rank =  0   Radius =  0.325 angstrom
                   Q00  =   0.066542

H          x =  2.655347  y =  1.257024  z = -0.739810 angstrom
           Maximum rank =  0   Radius =  0.325 angstrom
                   Q00  =   0.096223

H          x =  2.546347  y =  0.620024  z =  0.909190 angstrom
           Maximum rank =  0   Radius =  0.325 angstrom
                   Q00  =   0.095595

H          x =  0.730347  y =  2.183024  z = -1.864810 angstrom
           Maximum rank =  0   Radius =  0.325 angstrom
                   Q00  =   0.059181

H          x = -3.102653  y =  1.395024  z = -0.051810 angstrom
           Maximum rank =  0   Radius =  0.325 angstrom
                   Q00  =   0.064101

H          x = -1.761653  y =  2.164024  z = -2.013810 angstrom
           Maximum rank =  0   Radius =  0.325 angstrom
                   Q00  =   0.068922

H          x =  2.654227  y =  2.403824  z =  0.629620 angstrom
           Maximum rank =  0   Radius =  0.325 angstrom
                   Q00  =   0.105983

C          x =  0.382347  y = -2.650976  z =  0.261190 angstrom
           Maximum rank =  0   Radius =  0.650 angstrom
                   Q00  =  -0.090816

C          x = -0.966653  y = -2.962976  z = -0.421810 angstrom
           Maximum rank =  0   Radius =  0.650 angstrom
                   Q00  =  -0.245760

C          x =  1.627347  y = -3.309976  z = -0.408810 angstrom
           Maximum rank =  0   Radius =  0.650 angstrom
                   Q00  =  -0.250609

H          x =  0.499347  y = -1.564976  z =  0.250190 angstrom
           Maximum rank =  0   Radius =  0.325 angstrom
                   Q00  =   0.066900

H          x =  0.314347  y = -2.984976  z =  1.297190 angstrom
           Maximum rank =  0   Radius =  0.325 angstrom
                   Q00  =   0.040627

H          x = -1.060653  y = -4.031976  z = -0.634810 angstrom
           Maximum rank =  0   Radius =  0.325 angstrom
                   Q00  =   0.072709

H          x =  1.716347  y = -2.974976  z = -1.442810 angstrom
           Maximum rank =  0   Radius =  0.325 angstrom
                   Q00  =   0.078406

H          x =  2.533347  y = -3.029976  z =  0.132190 angstrom
           Maximum rank =  0   Radius =  0.325 angstrom
                   Q00  =   0.083417

H          x =  1.524347  y = -4.395976  z = -0.391810 angstrom
           Maximum rank =  0   Radius =  0.325 angstrom
                   Q00  =   0.078783

H          x = -1.784695  y = -2.649876  z =  0.243610 angstrom
           Maximum rank =  0   Radius =  0.325 angstrom
                   Q00  =   0.083967

H          x = -1.020893  y = -2.390276  z = -1.359400 angstrom
           Maximum rank =  0   Radius =  0.325 angstrom
                   Q00  =   0.079832

Total multipoles referred to origin at
           x =   0.000000,  y =    0.000000,  z =    0.000000 angstrom
                   Q00  =  -0.000000

Finished at 8:59:12 on 28 Apr 2020

  DMA results are available in the Python driver through the
	  variable('DMA DISTRIBUTED MULTIPOLES')
  and
	  variable('DMA TOTAL MULTIPOLES')
  commands.

    Psi4 stopped on: Tuesday, 28 April 2020 08:59AM
    Psi4 wall time for execution: 0:02:54.86

*** Psi4 exiting successfully. Buy a developer a beer!
