                               Psi4 1.3.2 release

  ==> Input File <==

--------------------------------------------------------------------------
import numpy as np
set {scf_type pk
basis cc-pvdz
d_convergence 10
gdma_switch   0
gdma_limit    0
gdma_origin   [ 0.0,  0.0,  0.0 ]
}
molecule test {
    units Angstrom
    0 1
    --
    0 1
    C               -1.550680562585802     1.446502444615013     1.637559442611503
    C               -0.621680562585802     1.423502444615013     2.855559442611503
    H               -1.816680562585802     0.427502444615013     1.353559442611503
    H               -2.460680562585802     1.998502444615013     1.876559442611503
    H               -1.051680562585801     1.935502444615013     0.800559442611503
    H               -0.426680562585802     2.466502444615013     3.116559442611503
    H                0.343789437414198     0.955072444615013     2.613819442611503
    H               -1.116280562585801     0.976352444615013     3.730449442611503
    C                1.254319437414198     0.232502444615013    -1.972440557388497
    C                0.558319437414199    -0.759497555384987    -1.061440557388497
    O                0.541319437414199    -0.603497555384987     0.155559442611503
    N               -0.094680562585802    -1.746497555384987    -1.653440557388497
    H                0.514319437414198     0.977502444615013    -2.270440557388496
    H                1.596319437414198    -0.280497555384987    -2.872440557388497
    H               -0.592680562585801    -2.406497555384987    -1.075440557388497
    H               -0.086680562585802    -1.835497555384987    -2.658440557388497
    H                2.104479437414199     0.732132444615013    -1.484997557388497

}
e, wfn = energy('scf', return_wfn=True)
gdma(wfn)
dmavals = variable('DMA DISTRIBUTED MULTIPOLES')
charges = np.array(dmavals)
print(charges)
np.save('SSI-027ALA-102ASN-1-dimer.npy', np.array(charges))--------------------------------------------------------------------------

*** tstart() called on ds3
*** at Mon Apr 27 20:43:51 2020

   => Loading Basis Set <=

    Name: CC-PVDZ
    Role: ORBITAL
    Keyword: BASIS
    atoms 1-2, 9-10  entry C          line   138 file /theoryfs2/ds/metcalf/miniconda2/envs/tf2gpu/share/psi4/basis/cc-pvdz.gbs
    atoms 3-8, 13-17 entry H          line    22 file /theoryfs2/ds/metcalf/miniconda2/envs/tf2gpu/share/psi4/basis/cc-pvdz.gbs
    atoms 11         entry O          line   198 file /theoryfs2/ds/metcalf/miniconda2/envs/tf2gpu/share/psi4/basis/cc-pvdz.gbs
    atoms 12         entry N          line   168 file /theoryfs2/ds/metcalf/miniconda2/envs/tf2gpu/share/psi4/basis/cc-pvdz.gbs

         ---------------------------------------------------------
                                   SCF
               by Justin Turney, Rob Parrish, Andy Simmonett
                          and Daniel G. A. Smith
                              RHF Reference
                        1 Threads,    500 MiB Core
         ---------------------------------------------------------

  ==> Geometry <==

    Molecular point group: c1
    Full point group: C1

    Geometry (in Angstrom), charge = 0, multiplicity = 1:

       Center              X                  Y                   Z               Mass
    ------------   -----------------  -----------------  -----------------  -----------------
         C           -1.550680562586     1.446502444615     1.637559442612    12.000000000000
         C           -0.621680562586     1.423502444615     2.855559442612    12.000000000000
         H           -1.816680562586     0.427502444615     1.353559442612     1.007825032230
         H           -2.460680562586     1.998502444615     1.876559442612     1.007825032230
         H           -1.051680562586     1.935502444615     0.800559442612     1.007825032230
         H           -0.426680562586     2.466502444615     3.116559442612     1.007825032230
         H            0.343789437414     0.955072444615     2.613819442612     1.007825032230
         H           -1.116280562586     0.976352444615     3.730449442612     1.007825032230
         C            1.254319437414     0.232502444615    -1.972440557388    12.000000000000
         C            0.558319437414    -0.759497555385    -1.061440557388    12.000000000000
         O            0.541319437414    -0.603497555385     0.155559442612    15.994914619570
         N           -0.094680562586    -1.746497555385    -1.653440557388    14.003074004430
         H            0.514319437414     0.977502444615    -2.270440557388     1.007825032230
         H            1.596319437414    -0.280497555385    -2.872440557388     1.007825032230
         H           -0.592680562586    -2.406497555385    -1.075440557388     1.007825032230
         H           -0.086680562586    -1.835497555385    -2.658440557388     1.007825032230
         H            2.104479437414     0.732132444615    -1.484997557388     1.007825032230

  Running in c1 symmetry.

  Rotational constants: A =      0.19452  B =      0.03769  C =      0.03576 [cm^-1]
  Rotational constants: A =   5831.50293  B =   1129.80103  C =   1072.03618 [MHz]
  Nuclear repulsion =  233.145086154416504

  Charge       = 0
  Multiplicity = 1
  Electrons    = 50
  Nalpha       = 25
  Nbeta        = 25

  ==> Algorithm <==

  SCF Algorithm Type is PK.
  DIIS enabled.
  MOM disabled.
  Fractional occupation disabled.
  Guess Type is SAD.
  Energy threshold   = 1.00e-06
  Density threshold  = 1.00e-10
  Integral threshold = 0.00e+00

  ==> Primary Basis <==

  Basis Set: CC-PVDZ
    Blend: CC-PVDZ
    Number of shells: 69
    Number of basis function: 139
    Number of Cartesian functions: 145
    Spherical Harmonics?: true
    Max angular momentum: 2

  ==> Pre-Iterations <==

   -------------------------------------------------------
    Irrep   Nso     Nmo     Nalpha   Nbeta   Ndocc  Nsocc
   -------------------------------------------------------
     A        139     139       0       0       0       0
   -------------------------------------------------------
    Total     139     139      25      25      25       0
   -------------------------------------------------------

  ==> Integral Setup <==

  Using integral reordering PK algorithm.
  Sizing the integral batches needed.
  Building batch lookup table.
   Calculation information:
      Number of atoms:                  17
      Number of AO shells:              69
      Number of primitives:            187
      Number of atomic orbitals:       145
      Number of basis functions:       139

      Integral cutoff                 1.00e-12
      Number of threads:                 1

	Batch   1 pq = [       0,    9730] index = [             0,47341315] size =     47341315
  Task number: 5
  Buffer size: 11059200
  Buffer per thread: 2
  We computed 2425300 shell quartets total.
  Whereas there are 2917320 unique shell quartets.

  ==> DiskJK: Disk-Based J/K Matrices <==

    J tasked:                  Yes
    K tasked:                  Yes
    wK tasked:                  No
    Memory [MiB]:              375
    Schwarz Cutoff:          1E-12

    OpenMP threads:              1

  Minimum eigenvalue in the overlap matrix is 4.6876673753E-03.
  Using Symmetric Orthogonalization.

  SCF Guess: Superposition of Atomic Densities via on-the-fly atomic UHF.

  ==> Iterations <==

                        Total Energy        Delta E     RMS |[F,P]|

   @RHF iter SAD:  -285.92619301031266   -2.85926e+02   0.00000e+00
   @RHF iter   1:  -286.99634247549255   -1.07015e+00   4.64461e-03 DIIS
   @RHF iter   2:  -287.17140091086276   -1.75058e-01   2.63527e-03 DIIS
   @RHF iter   3:  -287.22327206102716   -5.18712e-02   5.45941e-04 DIIS
   @RHF iter   4:  -287.22666071691481   -3.38866e-03   2.19054e-04 DIIS
   @RHF iter   5:  -287.22726121460721   -6.00498e-04   3.33988e-05 DIIS
   @RHF iter   6:  -287.22728979083143   -2.85762e-05   1.49540e-05 DIIS
   @RHF iter   7:  -287.22729418907107   -4.39824e-06   5.94465e-06 DIIS
   @RHF iter   8:  -287.22729518561016   -9.96539e-07   2.03849e-06 DIIS
   @RHF iter   9:  -287.22729530683648   -1.21226e-07   5.30534e-07 DIIS
   @RHF iter  10:  -287.22729531287501   -6.03853e-09   1.63651e-07 DIIS
   @RHF iter  11:  -287.22729531351240   -6.37385e-10   3.61535e-08 DIIS
   @RHF iter  12:  -287.22729531354548   -3.30829e-11   8.06892e-09 DIIS
   @RHF iter  13:  -287.22729531354457    9.09495e-13   1.71096e-09 DIIS
   @RHF iter  14:  -287.22729531354423    3.41061e-13   7.60393e-10 DIIS
   @RHF iter  15:  -287.22729531354577   -1.53477e-12   3.22188e-10 DIIS
   @RHF iter  16:  -287.22729531354679   -1.02318e-12   1.16414e-10 DIIS
   @RHF iter  17:  -287.22729531354429    2.50111e-12   4.96528e-11 DIIS
  Energy and wave function converged.

  ==> Post-Iterations <==

    Orbital Energies [Eh]
    ---------------------

    Doubly Occupied:

       1A    -20.505817     2A    -15.591385     3A    -11.349496
       4A    -11.244926     5A    -11.196222     6A    -11.194748
       7A     -1.371142     8A     -1.220576     9A     -1.002128
      10A     -0.993615    11A     -0.813446    12A     -0.801934
      13A     -0.731584    14A     -0.656715    15A     -0.615610
      16A     -0.580295    17A     -0.573122    18A     -0.566577
      19A     -0.560368    20A     -0.524201    21A     -0.476661
      22A     -0.467243    23A     -0.457439    24A     -0.411506
      25A     -0.405981

    Virtual:

      26A      0.159883    27A      0.192211    28A      0.210054
      29A      0.215947    30A      0.227031    31A      0.253902
      32A      0.266654    33A      0.272470    34A      0.281066
      35A      0.291695    36A      0.310443    37A      0.319770
      38A      0.380608    39A      0.415127    40A      0.467190
      41A      0.552439    42A      0.612988    43A      0.618677
      44A      0.624813    45A      0.644221    46A      0.649023
      47A      0.687026    48A      0.695476    49A      0.707612
      50A      0.730412    51A      0.741570    52A      0.769999
      53A      0.847330    54A      0.862300    55A      0.866214
      56A      0.881488    57A      0.902015    58A      0.904862
      59A      0.914598    60A      0.923320    61A      0.943888
      62A      0.946251    63A      0.950131    64A      0.988337
      65A      1.002038    66A      1.024456    67A      1.056411
      68A      1.136184    69A      1.145206    70A      1.153193
      71A      1.184429    72A      1.258435    73A      1.326398
      74A      1.366367    75A      1.385109    76A      1.403540
      77A      1.416972    78A      1.457390    79A      1.474313
      80A      1.495184    81A      1.524564    82A      1.622457
      83A      1.648804    84A      1.650909    85A      1.701232
      86A      1.712263    87A      1.723631    88A      1.815834
      89A      1.847062    90A      1.876198    91A      1.886548
      92A      1.889957    93A      1.895970    94A      1.903183
      95A      1.916540    96A      1.956873    97A      1.962056
      98A      1.968379    99A      1.975622   100A      1.977519
     101A      2.000413   102A      2.021123   103A      2.037434
     104A      2.072762   105A      2.107384   106A      2.170950
     107A      2.180823   108A      2.204243   109A      2.265475
     110A      2.312596   111A      2.337954   112A      2.413518
     113A      2.449862   114A      2.463813   115A      2.480072
     116A      2.497316   117A      2.541975   118A      2.565877
     119A      2.578275   120A      2.597780   121A      2.620795
     122A      2.719296   123A      2.746316   124A      2.785339
     125A      2.793327   126A      2.815114   127A      2.854023
     128A      2.859621   129A      2.894447   130A      2.962095
     131A      2.969392   132A      2.992890   133A      3.091647
     134A      3.135080   135A      3.285604   136A      3.487837
     137A      3.549488   138A      3.872739   139A      3.925251

    Final Occupation by Irrep:
              A
    DOCC [    25 ]

  @RHF Final Energy:  -287.22729531354429

   => Energetics <=

    Nuclear Repulsion Energy =            233.1450861544165036
    One-Electron Energy =                -852.1192960814184971
    Two-Electron Energy =                 331.7469146134577045
    Total Energy =                       -287.2272953135442890

Computation Completed

Properties will be evaluated at   0.000000,   0.000000,   0.000000 [a0]

Properties computed using the SCF density matrix

  Nuclear Dipole Moment: [e a0]
     X:    -2.8025      Y:     5.5769      Z:     2.9396

  Electronic Dipole Moment: [e a0]
     X:     2.6996      Y:    -6.1294      Z:    -4.6732

  Dipole Moment: [e a0]
     X:    -0.1028      Y:    -0.5525      Z:    -1.7336     Total:     1.8224

  Dipole Moment: [D]
     X:    -0.2613      Y:    -1.4043      Z:    -4.4063     Total:     4.6321

*** tstop() called on ds3 at Mon Apr 27 20:44:14 2020
Module time:
	user time   =      16.20 seconds =       0.27 minutes
	system time =       7.34 seconds =       0.12 minutes
	total time  =         23 seconds =       0.38 minutes
Total time:
	user time   =      16.20 seconds =       0.27 minutes
	system time =       7.34 seconds =       0.12 minutes
	total time  =         23 seconds =       0.38 minutes
                                     G D M A

                                 by Anthony Stone

                           version 2.2.06, 22 June 2011

               Distributed Multipoles from Gaussian wavefunctions

Starting at 20:44:14 on 27 Apr 2020

Using SCF density matrix from file ./SSI/SSI-027ALA-102ASN-1-dimer.test.16627.fchk

                         Distributed Multipole Analysis

Standard DMA

Positions and radii in angstrom
Multipole moments in atomic units, ea_0^k for rank k

C          x = -1.550681  y =  1.446502  z =  1.637559 angstrom
           Maximum rank =  0   Radius =  0.650 angstrom
                   Q00  =  -0.224009

C          x = -0.621681  y =  1.423502  z =  2.855559 angstrom
           Maximum rank =  0   Radius =  0.650 angstrom
                   Q00  =  -0.231545

H          x = -1.816681  y =  0.427502  z =  1.353559 angstrom
           Maximum rank =  0   Radius =  0.325 angstrom
                   Q00  =   0.085245

H          x = -2.460681  y =  1.998502  z =  1.876559 angstrom
           Maximum rank =  0   Radius =  0.325 angstrom
                   Q00  =   0.057807

H          x = -1.051681  y =  1.935502  z =  0.800559 angstrom
           Maximum rank =  0   Radius =  0.325 angstrom
                   Q00  =   0.076396

H          x = -0.426681  y =  2.466502  z =  3.116559 angstrom
           Maximum rank =  0   Radius =  0.325 angstrom
                   Q00  =   0.058544

H          x =  0.343789  y =  0.955072  z =  2.613819 angstrom
           Maximum rank =  0   Radius =  0.325 angstrom
                   Q00  =   0.100950

H          x = -1.116281  y =  0.976352  z =  3.730449 angstrom
           Maximum rank =  0   Radius =  0.325 angstrom
                   Q00  =   0.071497

C          x =  1.254319  y =  0.232502  z = -1.972441 angstrom
           Maximum rank =  0   Radius =  0.650 angstrom
                   Q00  =  -0.260810

C          x =  0.558319  y = -0.759498  z = -1.061441 angstrom
           Maximum rank =  0   Radius =  0.650 angstrom
                   Q00  =   0.815182

O          x =  0.541319  y = -0.603498  z =  0.155559 angstrom
           Maximum rank =  0   Radius =  0.650 angstrom
                   Q00  =  -0.790570

N          x = -0.094681  y = -1.746498  z = -1.653441 angstrom
           Maximum rank =  0   Radius =  0.650 angstrom
                   Q00  =  -0.527371

H          x =  0.514319  y =  0.977502  z = -2.270441 angstrom
           Maximum rank =  0   Radius =  0.325 angstrom
                   Q00  =   0.127149

H          x =  1.596319  y = -0.280498  z = -2.872441 angstrom
           Maximum rank =  0   Radius =  0.325 angstrom
                   Q00  =   0.079590

H          x = -0.592681  y = -2.406498  z = -1.075441 angstrom
           Maximum rank =  0   Radius =  0.325 angstrom
                   Q00  =   0.223441

H          x = -0.086681  y = -1.835498  z = -2.658441 angstrom
           Maximum rank =  0   Radius =  0.325 angstrom
                   Q00  =   0.206025

H          x =  2.104479  y =  0.732132  z = -1.484998 angstrom
           Maximum rank =  0   Radius =  0.325 angstrom
                   Q00  =   0.132481

Total multipoles referred to origin at
           x =   0.000000,  y =    0.000000,  z =    0.000000 angstrom
                   Q00  =  -0.000000

Finished at 20:44:14 on 27 Apr 2020

  DMA results are available in the Python driver through the
	  variable('DMA DISTRIBUTED MULTIPOLES')
  and
	  variable('DMA TOTAL MULTIPOLES')
  commands.

    Psi4 stopped on: Monday, 27 April 2020 08:44PM
    Psi4 wall time for execution: 0:00:23.31

*** Psi4 exiting successfully. Buy a developer a beer!
