                               Psi4 1.3.2 release

  ==> Input File <==

--------------------------------------------------------------------------
import numpy as np
set {scf_type pk
basis cc-pvdz
d_convergence 10
gdma_switch   0
gdma_limit    0
gdma_origin   [ 0.0,  0.0,  0.0 ]
}
molecule test {
    units Angstrom
    0 1
    --
    0 1
    C               -1.473169016499336     0.444409756592000    -1.476325947439264
    C               -0.711169016499336     1.757409756592001    -1.579325947439264
    H               -2.361169016499336     0.477409756592000    -2.108325947439264
    H               -0.836169016499336    -0.375590243408000    -1.812325947439264
    H               -1.774169016499336     0.239409756592000    -0.449325947439264
    H                0.128830983500664     1.718409756592000    -0.884325947439264
    H               -1.355821016499336     2.605179756592000    -1.304175947439264
    H               -0.305929016499336     1.879989756592001    -2.594585947439264
    C                0.844830983500664    -0.388590243408000     1.472674052560736
    C                1.338830983500664    -1.807590243408000     1.573674052560736
    H                0.224830983500664    -0.277590243408000     0.588674052560736
    H                0.245830983500664    -0.141590243408000     2.347674052560736
    H                1.682830983500664     0.304409756592000     1.411674052560736
    H                0.491830983500664    -2.486590243408000     1.482674052560736
    H                1.744830983500664    -1.919590243408000     2.577674052560736
    H                2.122320983500664    -2.091000243408000     0.855474052560736

}
e, wfn = energy('scf', return_wfn=True)
gdma(wfn)
dmavals = variable('DMA DISTRIBUTED MULTIPOLES')
charges = np.array(dmavals)
print(charges)
np.save('SSI-018VAL-034ILE-1-dimer.npy', np.array(charges))--------------------------------------------------------------------------

*** tstart() called on ds3
*** at Mon Apr 27 23:21:56 2020

   => Loading Basis Set <=

    Name: CC-PVDZ
    Role: ORBITAL
    Keyword: BASIS
    atoms 1-2, 9-10  entry C          line   138 file /theoryfs2/ds/metcalf/miniconda2/envs/tf2gpu/share/psi4/basis/cc-pvdz.gbs
    atoms 3-8, 11-16 entry H          line    22 file /theoryfs2/ds/metcalf/miniconda2/envs/tf2gpu/share/psi4/basis/cc-pvdz.gbs

         ---------------------------------------------------------
                                   SCF
               by Justin Turney, Rob Parrish, Andy Simmonett
                          and Daniel G. A. Smith
                              RHF Reference
                        1 Threads,    500 MiB Core
         ---------------------------------------------------------

  ==> Geometry <==

    Molecular point group: c1
    Full point group: C1

    Geometry (in Angstrom), charge = 0, multiplicity = 1:

       Center              X                  Y                   Z               Mass
    ------------   -----------------  -----------------  -----------------  -----------------
         C           -1.473169016499     0.444409756592    -1.476325947439    12.000000000000
         C           -0.711169016499     1.757409756592    -1.579325947439    12.000000000000
         H           -2.361169016499     0.477409756592    -2.108325947439     1.007825032230
         H           -0.836169016499    -0.375590243408    -1.812325947439     1.007825032230
         H           -1.774169016499     0.239409756592    -0.449325947439     1.007825032230
         H            0.128830983501     1.718409756592    -0.884325947439     1.007825032230
         H           -1.355821016499     2.605179756592    -1.304175947439     1.007825032230
         H           -0.305929016499     1.879989756592    -2.594585947439     1.007825032230
         C            0.844830983501    -0.388590243408     1.472674052561    12.000000000000
         C            1.338830983501    -1.807590243408     1.573674052561    12.000000000000
         H            0.224830983501    -0.277590243408     0.588674052561     1.007825032230
         H            0.245830983501    -0.141590243408     2.347674052561     1.007825032230
         H            1.682830983501     0.304409756592     1.411674052561     1.007825032230
         H            0.491830983501    -2.486590243408     1.482674052561     1.007825032230
         H            1.744830983501    -1.919590243408     2.577674052561     1.007825032230
         H            2.122320983501    -2.091000243408     0.855474052561     1.007825032230

  Running in c1 symmetry.

  Rotational constants: A =      0.42931  B =      0.05425  C =      0.05110 [cm^-1]
  Rotational constants: A =  12870.33669  B =   1626.52031  C =   1531.93788 [MHz]
  Nuclear repulsion =  124.057189033659526

  Charge       = 0
  Multiplicity = 1
  Electrons    = 36
  Nalpha       = 18
  Nbeta        = 18

  ==> Algorithm <==

  SCF Algorithm Type is PK.
  DIIS enabled.
  MOM disabled.
  Fractional occupation disabled.
  Guess Type is SAD.
  Energy threshold   = 1.00e-06
  Density threshold  = 1.00e-10
  Integral threshold = 0.00e+00

  ==> Primary Basis <==

  Basis Set: CC-PVDZ
    Blend: CC-PVDZ
    Number of shells: 60
    Number of basis function: 116
    Number of Cartesian functions: 120
    Spherical Harmonics?: true
    Max angular momentum: 2

  ==> Pre-Iterations <==

   -------------------------------------------------------
    Irrep   Nso     Nmo     Nalpha   Nbeta   Ndocc  Nsocc
   -------------------------------------------------------
     A        116     116       0       0       0       0
   -------------------------------------------------------
    Total     116     116      18      18      18       0
   -------------------------------------------------------

  ==> Integral Setup <==

  Using integral reordering PK algorithm.
  Sizing the integral batches needed.
  Building batch lookup table.
   Calculation information:
      Number of atoms:                  16
      Number of AO shells:              60
      Number of primitives:            148
      Number of atomic orbitals:       120
      Number of basis functions:       116

      Integral cutoff                 1.00e-12
      Number of threads:                 1

	Batch   1 pq = [       0,    6786] index = [             0,23028291] size =     23028291
  Task number: 3
  Buffer size: 11059200
  Buffer per thread: 2
  We computed 1492198 shell quartets total.
  Whereas there are 1675365 unique shell quartets.

  ==> DiskJK: Disk-Based J/K Matrices <==

    J tasked:                  Yes
    K tasked:                  Yes
    wK tasked:                  No
    Memory [MiB]:              375
    Schwarz Cutoff:          1E-12

    OpenMP threads:              1

  Minimum eigenvalue in the overlap matrix is 6.5616054225E-03.
  Using Symmetric Orthogonalization.

  SCF Guess: Superposition of Atomic Densities via on-the-fly atomic UHF.

  ==> Iterations <==

                        Total Energy        Delta E     RMS |[F,P]|

   @RHF iter SAD:  -157.41833748752458   -1.57418e+02   0.00000e+00
   @RHF iter   1:  -158.30313033938506   -8.84793e-01   4.25610e-03 DIIS
   @RHF iter   2:  -158.43853512996139   -1.35405e-01   1.81868e-03 DIIS
   @RHF iter   3:  -158.46248630910992   -2.39512e-02   3.52363e-04 DIIS
   @RHF iter   4:  -158.46434947177823   -1.86316e-03   3.90906e-05 DIIS
   @RHF iter   5:  -158.46437375524860   -2.42835e-05   6.34017e-06 DIIS
   @RHF iter   6:  -158.46437437088727   -6.15639e-07   9.39304e-07 DIIS
   @RHF iter   7:  -158.46437438057913   -9.69186e-09   2.97570e-07 DIIS
   @RHF iter   8:  -158.46437438137502   -7.95893e-10   4.83824e-08 DIIS
   @RHF iter   9:  -158.46437438141669   -4.16662e-11   9.83888e-09 DIIS
   @RHF iter  10:  -158.46437438141825   -1.56319e-12   2.79841e-09 DIIS
   @RHF iter  11:  -158.46437438141854   -2.84217e-13   7.54700e-10 DIIS
   @RHF iter  12:  -158.46437438141837    1.70530e-13   1.58253e-10 DIIS
   @RHF iter  13:  -158.46437438141851   -1.42109e-13   2.82321e-11 DIIS
  Energy and wave function converged.

  ==> Post-Iterations <==

    Orbital Energies [Eh]
    ---------------------

    Doubly Occupied:

       1A    -11.218713     2A    -11.216826     3A    -11.215814
       4A    -11.213960     5A     -1.025183     6A     -1.019712
       7A     -0.837268     8A     -0.835688     9A     -0.609244
      10A     -0.600845    11A     -0.598821    12A     -0.591340
      13A     -0.508822    14A     -0.502667    15A     -0.487674
      16A     -0.486046    17A     -0.481658    18A     -0.477746

    Virtual:

      19A      0.172852    20A      0.201332    21A      0.223771
      22A      0.235502    23A      0.249005    24A      0.253766
      25A      0.262534    26A      0.279682    27A      0.287442
      28A      0.291006    29A      0.306584    30A      0.339405
      31A      0.393246    32A      0.408193    33A      0.580786
      34A      0.596816    35A      0.603230    36A      0.605920
      37A      0.610419    38A      0.640631    39A      0.670983
      40A      0.690076    41A      0.724601    42A      0.790630
      43A      0.847874    44A      0.860053    45A      0.877023
      46A      0.881796    47A      0.891475    48A      0.898408
      49A      0.899869    50A      0.905730    51A      0.913328
      52A      0.931033    53A      0.951642    54A      0.971424
      55A      0.976563    56A      1.065020    57A      1.118609
      58A      1.126656    59A      1.131001    60A      1.146222
      61A      1.232554    62A      1.311797    63A      1.463309
      64A      1.471098    65A      1.485312    66A      1.501736
      67A      1.566595    68A      1.619667    69A      1.680796
      70A      1.685834    71A      1.692276    72A      1.707557
      73A      1.854745    74A      1.858531    75A      1.873096
      76A      1.886664    77A      1.896284    78A      1.898335
      79A      1.929521    80A      1.939352    81A      1.946353
      82A      1.950012    83A      1.953015    84A      1.962337
      85A      1.971473    86A      1.976962    87A      2.007433
      88A      2.038920    89A      2.088764    90A      2.117385
      91A      2.136513    92A      2.155678    93A      2.297040
      94A      2.315905    95A      2.323866    96A      2.325885
      97A      2.439520    98A      2.449618    99A      2.462581
     100A      2.476295   101A      2.556736   102A      2.565121
     103A      2.582621   104A      2.604631   105A      2.762420
     106A      2.775000   107A      2.791258   108A      2.793248
     109A      2.840168   110A      2.858742   111A      2.866068
     112A      2.890644   113A      2.939666   114A      2.954427
     115A      2.984777   116A      3.008121

    Final Occupation by Irrep:
              A
    DOCC [    18 ]

  @RHF Final Energy:  -158.46437438141851

   => Energetics <=

    Nuclear Repulsion Energy =            124.0571890336595260
    One-Electron Energy =                -457.1870735337998894
    Two-Electron Energy =                 174.6655101187218406
    Total Energy =                       -158.4643743814185086

Computation Completed

Properties will be evaluated at   0.000000,   0.000000,   0.000000 [a0]

Properties computed using the SCF density matrix

  Nuclear Dipole Moment: [e a0]
     X:     0.0075      Y:    -0.0629      Z:     0.1039

  Electronic Dipole Moment: [e a0]
     X:    -0.0168      Y:     0.0615      Z:    -0.0962

  Dipole Moment: [e a0]
     X:    -0.0093      Y:    -0.0014      Z:     0.0077     Total:     0.0121

  Dipole Moment: [D]
     X:    -0.0235      Y:    -0.0036      Z:     0.0196     Total:     0.0308

*** tstop() called on ds3 at Mon Apr 27 23:22:11 2020
Module time:
	user time   =      10.92 seconds =       0.18 minutes
	system time =       4.40 seconds =       0.07 minutes
	total time  =         15 seconds =       0.25 minutes
Total time:
	user time   =      10.92 seconds =       0.18 minutes
	system time =       4.40 seconds =       0.07 minutes
	total time  =         15 seconds =       0.25 minutes
                                     G D M A

                                 by Anthony Stone

                           version 2.2.06, 22 June 2011

               Distributed Multipoles from Gaussian wavefunctions

Starting at 23:22:11 on 27 Apr 2020

Using SCF density matrix from file ./SSI/SSI-018VAL-034ILE-1-dimer.test.2518.fchk

                         Distributed Multipole Analysis

Standard DMA

Positions and radii in angstrom
Multipole moments in atomic units, ea_0^k for rank k

C          x = -1.473169  y =  0.444410  z = -1.476326 angstrom
           Maximum rank =  0   Radius =  0.650 angstrom
                   Q00  =  -0.248005

C          x = -0.711169  y =  1.757410  z = -1.579326 angstrom
           Maximum rank =  0   Radius =  0.650 angstrom
                   Q00  =  -0.224447

H          x = -2.361169  y =  0.477410  z = -2.108326 angstrom
           Maximum rank =  0   Radius =  0.325 angstrom
                   Q00  =   0.079002

H          x = -0.836169  y = -0.375590  z = -1.812326 angstrom
           Maximum rank =  0   Radius =  0.325 angstrom
                   Q00  =   0.076292

H          x = -1.774169  y =  0.239410  z = -0.449326 angstrom
           Maximum rank =  0   Radius =  0.325 angstrom
                   Q00  =   0.079051

H          x =  0.128831  y =  1.718410  z = -0.884326 angstrom
           Maximum rank =  0   Radius =  0.325 angstrom
                   Q00  =   0.079112

H          x = -1.355821  y =  2.605180  z = -1.304176 angstrom
           Maximum rank =  0   Radius =  0.325 angstrom
                   Q00  =   0.079476

H          x = -0.305929  y =  1.879990  z = -2.594586 angstrom
           Maximum rank =  0   Radius =  0.325 angstrom
                   Q00  =   0.079128

C          x =  0.844831  y = -0.388590  z =  1.472674 angstrom
           Maximum rank =  0   Radius =  0.650 angstrom
                   Q00  =  -0.231958

C          x =  1.338831  y = -1.807590  z =  1.573674 angstrom
           Maximum rank =  0   Radius =  0.650 angstrom
                   Q00  =  -0.234302

H          x =  0.224831  y = -0.277590  z =  0.588674 angstrom
           Maximum rank =  0   Radius =  0.325 angstrom
                   Q00  =   0.083298

H          x =  0.245831  y = -0.141590  z =  2.347674 angstrom
           Maximum rank =  0   Radius =  0.325 angstrom
                   Q00  =   0.078109

H          x =  1.682831  y =  0.304410  z =  1.411674 angstrom
           Maximum rank =  0   Radius =  0.325 angstrom
                   Q00  =   0.076797

H          x =  0.491831  y = -2.486590  z =  1.482674 angstrom
           Maximum rank =  0   Radius =  0.325 angstrom
                   Q00  =   0.076090

H          x =  1.744831  y = -1.919590  z =  2.577674 angstrom
           Maximum rank =  0   Radius =  0.325 angstrom
                   Q00  =   0.071606

H          x =  2.122321  y = -2.091000  z =  0.855474 angstrom
           Maximum rank =  0   Radius =  0.325 angstrom
                   Q00  =   0.080750

Total multipoles referred to origin at
           x =   0.000000,  y =    0.000000,  z =    0.000000 angstrom
                   Q00  =  -0.000000

Finished at 23:22:11 on 27 Apr 2020

  DMA results are available in the Python driver through the
	  variable('DMA DISTRIBUTED MULTIPOLES')
  and
	  variable('DMA TOTAL MULTIPOLES')
  commands.

    Psi4 stopped on: Monday, 27 April 2020 11:22PM
    Psi4 wall time for execution: 0:00:15.22

*** Psi4 exiting successfully. Buy a developer a beer!
