                               Psi4 1.3.2 release

  ==> Input File <==

--------------------------------------------------------------------------
import numpy as np
set {scf_type pk
basis cc-pvdz
d_convergence 10
gdma_switch   0
gdma_limit    0
gdma_origin   [ 0.0,  0.0,  0.0 ]
}
molecule test {
    units Angstrom
    0 1
    --
    0 1
    C               -1.919399185388288    -0.283156718306766    -2.635117894312915
    C               -1.968399185388288    -0.477156718306766    -1.119117894312915
    O               -1.287399185388288    -1.322156718306766    -0.537117894312915
    N               -2.646399185388288     0.439843281693235    -0.448117894312915
    H               -2.888399185388288     0.061843281693234    -3.000117894312915
    H               -1.692399185388288    -1.242156718306766    -3.100117894312914
    H               -2.670399185388288     0.370843281693234     0.557882105687085
    H               -3.193399185388288     1.130843281693234    -0.937117894312915
    H               -1.141499185388287     0.454523281693234    -2.881489894312915
    C                0.404600814611712     1.909843281693234     1.981882105687085
    C                1.463600814611712     0.821843281693235    -0.123117894312915
    C                1.089600814611712     0.832843281693234     1.176882105687085
    C                2.042600814611713    -1.118156718306766     0.741882105687085
    N                2.040600814611712    -0.405156718306766    -0.370117894312915
    N                1.460600814611712    -0.403156718306766     1.706882105687085
    H                1.330600814611712     1.628843281693234    -0.830117894312915
    H                2.433600814611712    -0.728156718306765    -1.255117894312915
    H               -0.496399185388288     1.480843281693234     2.420882105687086
    H                0.121600814611712     2.709843281693235     1.304882105687085
    H                2.440600814611713    -2.123156718306765     0.840882105687085
    H                1.063530814611712     2.283503281693235     2.779497105687085

}
e, wfn = energy('scf', return_wfn=True)
gdma(wfn)
dmavals = variable('DMA DISTRIBUTED MULTIPOLES')
charges = np.array(dmavals)
print(charges)
np.save('SSI-026GLN-065HIE-2-dimer.npy', np.array(charges))--------------------------------------------------------------------------

*** tstart() called on ds3
*** at Mon Apr 27 01:48:51 2020

   => Loading Basis Set <=

    Name: CC-PVDZ
    Role: ORBITAL
    Keyword: BASIS
    atoms 1-2, 10-13 entry C          line   138 file /theoryfs2/ds/metcalf/miniconda2/envs/tf2gpu/share/psi4/basis/cc-pvdz.gbs
    atoms 3          entry O          line   198 file /theoryfs2/ds/metcalf/miniconda2/envs/tf2gpu/share/psi4/basis/cc-pvdz.gbs
    atoms 4, 14-15   entry N          line   168 file /theoryfs2/ds/metcalf/miniconda2/envs/tf2gpu/share/psi4/basis/cc-pvdz.gbs
    atoms 5-9, 16-21 entry H          line    22 file /theoryfs2/ds/metcalf/miniconda2/envs/tf2gpu/share/psi4/basis/cc-pvdz.gbs

         ---------------------------------------------------------
                                   SCF
               by Justin Turney, Rob Parrish, Andy Simmonett
                          and Daniel G. A. Smith
                              RHF Reference
                        1 Threads,    500 MiB Core
         ---------------------------------------------------------

  ==> Geometry <==

    Molecular point group: c1
    Full point group: C1

    Geometry (in Angstrom), charge = 0, multiplicity = 1:

       Center              X                  Y                   Z               Mass
    ------------   -----------------  -----------------  -----------------  -----------------
         C           -1.919399185388    -0.283156718307    -2.635117894313    12.000000000000
         C           -1.968399185388    -0.477156718307    -1.119117894313    12.000000000000
         O           -1.287399185388    -1.322156718307    -0.537117894313    15.994914619570
         N           -2.646399185388     0.439843281693    -0.448117894313    14.003074004430
         H           -2.888399185388     0.061843281693    -3.000117894313     1.007825032230
         H           -1.692399185388    -1.242156718307    -3.100117894313     1.007825032230
         H           -2.670399185388     0.370843281693     0.557882105687     1.007825032230
         H           -3.193399185388     1.130843281693    -0.937117894313     1.007825032230
         H           -1.141499185388     0.454523281693    -2.881489894313     1.007825032230
         C            0.404600814612     1.909843281693     1.981882105687    12.000000000000
         C            1.463600814612     0.821843281693    -0.123117894313    12.000000000000
         C            1.089600814612     0.832843281693     1.176882105687    12.000000000000
         C            2.042600814612    -1.118156718307     0.741882105687    12.000000000000
         N            2.040600814612    -0.405156718307    -0.370117894313    14.003074004430
         N            1.460600814612    -0.403156718307     1.706882105687    14.003074004430
         H            1.330600814612     1.628843281693    -0.830117894313     1.007825032230
         H            2.433600814612    -0.728156718307    -1.255117894313     1.007825032230
         H           -0.496399185388     1.480843281693     2.420882105687     1.007825032230
         H            0.121600814612     2.709843281693     1.304882105687     1.007825032230
         H            2.440600814612    -2.123156718307     0.840882105687     1.007825032230
         H            1.063530814612     2.283503281693     2.779497105687     1.007825032230

  Running in c1 symmetry.

  Rotational constants: A =      0.06238  B =      0.02577  C =      0.02194 [cm^-1]
  Rotational constants: A =   1870.12839  B =    772.62089  C =    657.65805 [MHz]
  Nuclear repulsion =  515.988828766410506

  Charge       = 0
  Multiplicity = 1
  Electrons    = 76
  Nalpha       = 38
  Nbeta        = 38

  ==> Algorithm <==

  SCF Algorithm Type is PK.
  DIIS enabled.
  MOM disabled.
  Fractional occupation disabled.
  Guess Type is SAD.
  Energy threshold   = 1.00e-06
  Density threshold  = 1.00e-10
  Integral threshold = 0.00e+00

  ==> Primary Basis <==

  Basis Set: CC-PVDZ
    Blend: CC-PVDZ
    Number of shells: 93
    Number of basis function: 195
    Number of Cartesian functions: 205
    Spherical Harmonics?: true
    Max angular momentum: 2

  ==> Pre-Iterations <==

   -------------------------------------------------------
    Irrep   Nso     Nmo     Nalpha   Nbeta   Ndocc  Nsocc
   -------------------------------------------------------
     A        195     195       0       0       0       0
   -------------------------------------------------------
    Total     195     195      38      38      38       0
   -------------------------------------------------------

  ==> Integral Setup <==

  Using integral reordering PK algorithm.
  Sizing the integral batches needed.
  Building batch lookup table.
   Calculation information:
      Number of atoms:                  21
      Number of AO shells:              93
      Number of primitives:            275
      Number of atomic orbitals:       205
      Number of basis functions:       195

      Integral cutoff                 1.00e-12
      Number of threads:                 1

	Batch   1 pq = [       0,    9405] index = [             0,44231715] size =     44231715
	Batch   2 pq = [    9405,   13301] index = [      44231715,88464951] size =     44233236
	Batch   3 pq = [   13301,   16290] index = [      88464951,132690195] size =     44225244
	Batch   4 pq = [   16290,   18810] index = [     132690195,176917455] size =     44227260
	Batch   5 pq = [   18810,   19110] index = [     176917455,182605605] size =      5688150
  Task number: 17
  Buffer size: 11059200
  Buffer per thread: 2
  We computed 8471798 shell quartets total.
  Whereas there are 9555006 unique shell quartets.

  ==> DiskJK: Disk-Based J/K Matrices <==

    J tasked:                  Yes
    K tasked:                  Yes
    wK tasked:                  No
    Memory [MiB]:              375
    Schwarz Cutoff:          1E-12

    OpenMP threads:              1

  Minimum eigenvalue in the overlap matrix is 1.1738523098E-03.
  Using Symmetric Orthogonalization.

  SCF Guess: Superposition of Atomic Densities via on-the-fly atomic UHF.

  ==> Iterations <==

                        Total Energy        Delta E     RMS |[F,P]|

   @RHF iter SAD:  -470.72535867622264   -4.70725e+02   0.00000e+00
   @RHF iter   1:  -471.56997503823567   -8.44616e-01   3.68474e-03 DIIS
   @RHF iter   2:  -471.78432252757574   -2.14347e-01   2.17582e-03 DIIS
   @RHF iter   3:  -471.85513122216378   -7.08087e-02   4.52657e-04 DIIS
   @RHF iter   4:  -471.85977693641325   -4.64571e-03   1.68585e-04 DIIS
   @RHF iter   5:  -471.86048171990154   -7.04783e-04   3.16443e-05 DIIS
   @RHF iter   6:  -471.86052774113676   -4.60212e-05   1.57781e-05 DIIS
   @RHF iter   7:  -471.86053774553091   -1.00044e-05   5.92557e-06 DIIS
   @RHF iter   8:  -471.86053977419294   -2.02866e-06   2.00985e-06 DIIS
   @RHF iter   9:  -471.86054002450504   -2.50312e-07   8.35268e-07 DIIS
   @RHF iter  10:  -471.86054005024647   -2.57414e-08   2.45426e-07 DIIS
   @RHF iter  11:  -471.86054005361922   -3.37275e-09   9.80874e-08 DIIS
   @RHF iter  12:  -471.86054005401712   -3.97904e-10   4.37366e-08 DIIS
   @RHF iter  13:  -471.86054005410949   -9.23706e-11   1.47366e-08 DIIS
   @RHF iter  14:  -471.86054005412177   -1.22782e-11   6.32671e-09 DIIS
   @RHF iter  15:  -471.86054005412473   -2.95586e-12   2.60511e-09 DIIS
   @RHF iter  16:  -471.86054005412586   -1.13687e-12   7.66472e-10 DIIS
   @RHF iter  17:  -471.86054005412382    2.04636e-12   2.94167e-10 DIIS
   @RHF iter  18:  -471.86054005412615   -2.33058e-12   8.10480e-11 DIIS
  Energy and wave function converged.

  ==> Post-Iterations <==

    Orbital Energies [Eh]
    ---------------------

    Doubly Occupied:

       1A    -20.499617     2A    -15.605401     3A    -15.584335
       4A    -15.512225     5A    -11.344313     6A    -11.278771
       7A    -11.244983     8A    -11.237650     9A    -11.230224
      10A    -11.220924    11A     -1.361755    12A     -1.325048
      13A     -1.212996    14A     -1.132562    15A     -1.019782
      16A     -0.997682    17A     -0.932991    18A     -0.799699
      19A     -0.796089    20A     -0.746878    21A     -0.728861
      22A     -0.725512    23A     -0.648759    24A     -0.612762
      25A     -0.596922    26A     -0.589080    27A     -0.584188
      28A     -0.563622    29A     -0.557799    30A     -0.545100
      31A     -0.531261    32A     -0.521532    33A     -0.515382
      34A     -0.405561    35A     -0.397816    36A     -0.393414
      37A     -0.358411    38A     -0.297850

    Virtual:

      39A      0.154427    40A      0.179861    41A      0.193203
      42A      0.199291    43A      0.211098    44A      0.217984
      45A      0.228407    46A      0.238458    47A      0.241469
      48A      0.254625    49A      0.265239    50A      0.280251
      51A      0.307576    52A      0.328694    53A      0.378336
      54A      0.384056    55A      0.405429    56A      0.415695
      57A      0.451755    58A      0.494857    59A      0.510317
      60A      0.549293    61A      0.612980    62A      0.620917
      63A      0.630438    64A      0.633233    65A      0.661150
      66A      0.671576    67A      0.694199    68A      0.706744
      69A      0.713009    70A      0.718343    71A      0.737903
      72A      0.757707    73A      0.767281    74A      0.786197
      75A      0.815521    76A      0.825981    77A      0.841663
      78A      0.846676    79A      0.863550    80A      0.878630
      81A      0.884638    82A      0.906906    83A      0.912881
      84A      0.924468    85A      0.933991    86A      0.943234
      87A      0.955773    88A      0.967048    89A      0.986674
      90A      1.012141    91A      1.029708    92A      1.046077
      93A      1.062282    94A      1.076155    95A      1.103532
      96A      1.111715    97A      1.124954    98A      1.150301
      99A      1.163041   100A      1.170690   101A      1.192750
     102A      1.267787   103A      1.275351   104A      1.326314
     105A      1.328199   106A      1.341362   107A      1.345193
     108A      1.358718   109A      1.387035   110A      1.408731
     111A      1.432363   112A      1.440607   113A      1.451347
     114A      1.468342   115A      1.486573   116A      1.508936
     117A      1.529083   118A      1.585592   119A      1.619046
     120A      1.639136   121A      1.647599   122A      1.649855
     123A      1.685607   124A      1.721261   125A      1.776283
     126A      1.785750   127A      1.809262   128A      1.819681
     129A      1.826667   130A      1.859194   131A      1.867486
     132A      1.889958   133A      1.898786   134A      1.905980
     135A      1.913700   136A      1.938950   137A      1.953207
     138A      1.963666   139A      1.977818   140A      1.989064
     141A      1.994460   142A      2.013956   143A      2.038735
     144A      2.048443   145A      2.083426   146A      2.100421
     147A      2.125222   148A      2.136489   149A      2.177402
     150A      2.183198   151A      2.188052   152A      2.214165
     153A      2.243002   154A      2.258074   155A      2.318676
     156A      2.356037   157A      2.411508   158A      2.439016
     159A      2.450900   160A      2.459451   161A      2.474027
     162A      2.485567   163A      2.501587   164A      2.550373
     165A      2.553627   166A      2.575746   167A      2.615499
     168A      2.621187   169A      2.701058   170A      2.741655
     171A      2.744938   172A      2.752643   173A      2.754373
     174A      2.786045   175A      2.793708   176A      2.806713
     177A      2.825272   178A      2.855029   179A      2.887067
     180A      2.895931   181A      2.912932   182A      2.971630
     183A      2.992782   184A      3.074376   185A      3.101552
     186A      3.142322   187A      3.172780   188A      3.243383
     189A      3.293970   190A      3.458972   191A      3.477643
     192A      3.560375   193A      3.801848   194A      3.866307
     195A      3.919651

    Final Occupation by Irrep:
              A
    DOCC [    38 ]

  @RHF Final Energy:  -471.86054005412615

   => Energetics <=

    Nuclear Repulsion Energy =            515.9888287664105064
    One-Electron Energy =               -1666.3832272724705490
    Two-Electron Energy =                 678.5338584519338383
    Total Energy =                       -471.8605400541262043

Computation Completed

Properties will be evaluated at   0.000000,   0.000000,   0.000000 [a0]

Properties computed using the SCF density matrix

  Nuclear Dipole Moment: [e a0]
     X:    -4.4078      Y:     5.6454      Z:    -3.8488

  Electronic Dipole Moment: [e a0]
     X:     3.7770      Y:    -4.5603      Z:     2.0513

  Dipole Moment: [e a0]
     X:    -0.6308      Y:     1.0851      Z:    -1.7976     Total:     2.1924

  Dipole Moment: [D]
     X:    -1.6033      Y:     2.7581      Z:    -4.5689     Total:     5.5725

*** tstop() called on ds3 at Mon Apr 27 01:50:20 2020
Module time:
	user time   =      63.91 seconds =       1.07 minutes
	system time =      27.07 seconds =       0.45 minutes
	total time  =         89 seconds =       1.48 minutes
Total time:
	user time   =      63.91 seconds =       1.07 minutes
	system time =      27.07 seconds =       0.45 minutes
	total time  =         89 seconds =       1.48 minutes
                                     G D M A

                                 by Anthony Stone

                           version 2.2.06, 22 June 2011

               Distributed Multipoles from Gaussian wavefunctions

Starting at 1:50:20 on 27 Apr 2020

Using SCF density matrix from file ./SSI/SSI-026GLN-065HIE-2-dimer.test.14909.fchk

                         Distributed Multipole Analysis

Standard DMA

Positions and radii in angstrom
Multipole moments in atomic units, ea_0^k for rank k

C          x = -1.919399  y = -0.283157  z = -2.635118 angstrom
           Maximum rank =  0   Radius =  0.650 angstrom
                   Q00  =  -0.261777

C          x = -1.968399  y = -0.477157  z = -1.119118 angstrom
           Maximum rank =  0   Radius =  0.650 angstrom
                   Q00  =   0.807809

O          x = -1.287399  y = -1.322157  z = -0.537118 angstrom
           Maximum rank =  0   Radius =  0.650 angstrom
                   Q00  =  -0.780580

N          x = -2.646399  y =  0.439843  z = -0.448118 angstrom
           Maximum rank =  0   Radius =  0.650 angstrom
                   Q00  =  -0.520682

H          x = -2.888399  y =  0.061843  z = -3.000118 angstrom
           Maximum rank =  0   Radius =  0.325 angstrom
                   Q00  =   0.084995

H          x = -1.692399  y = -1.242157  z = -3.100118 angstrom
           Maximum rank =  0   Radius =  0.325 angstrom
                   Q00  =   0.125267

H          x = -2.670399  y =  0.370843  z =  0.557882 angstrom
           Maximum rank =  0   Radius =  0.325 angstrom
                   Q00  =   0.225677

H          x = -3.193399  y =  1.130843  z = -0.937118 angstrom
           Maximum rank =  0   Radius =  0.325 angstrom
                   Q00  =   0.200337

H          x = -1.141499  y =  0.454523  z = -2.881490 angstrom
           Maximum rank =  0   Radius =  0.325 angstrom
                   Q00  =   0.122140

C          x =  0.404601  y =  1.909843  z =  1.981882 angstrom
           Maximum rank =  0   Radius =  0.650 angstrom
                   Q00  =  -0.183673

C          x =  1.463601  y =  0.821843  z = -0.123118 angstrom
           Maximum rank =  0   Radius =  0.650 angstrom
                   Q00  =  -0.004439

C          x =  1.089601  y =  0.832843  z =  1.176882 angstrom
           Maximum rank =  0   Radius =  0.650 angstrom
                   Q00  =   0.229224

C          x =  2.042601  y = -1.118157  z =  0.741882 angstrom
           Maximum rank =  0   Radius =  0.650 angstrom
                   Q00  =   0.468225

N          x =  2.040601  y = -0.405157  z = -0.370118 angstrom
           Maximum rank =  0   Radius =  0.650 angstrom
                   Q00  =  -0.469867

N          x =  1.460601  y = -0.403157  z =  1.706882 angstrom
           Maximum rank =  0   Radius =  0.650 angstrom
                   Q00  =  -0.771400

H          x =  1.330601  y =  1.628843  z = -0.830118 angstrom
           Maximum rank =  0   Radius =  0.325 angstrom
                   Q00  =   0.090742

H          x =  2.433601  y = -0.728157  z = -1.255118 angstrom
           Maximum rank =  0   Radius =  0.325 angstrom
                   Q00  =   0.215499

H          x = -0.496399  y =  1.480843  z =  2.420882 angstrom
           Maximum rank =  0   Radius =  0.325 angstrom
                   Q00  =   0.102725

H          x =  0.121601  y =  2.709843  z =  1.304882 angstrom
           Maximum rank =  0   Radius =  0.325 angstrom
                   Q00  =   0.086687

H          x =  2.440601  y = -2.123157  z =  0.840882 angstrom
           Maximum rank =  0   Radius =  0.325 angstrom
                   Q00  =   0.124362

H          x =  1.063531  y =  2.283503  z =  2.779497 angstrom
           Maximum rank =  0   Radius =  0.325 angstrom
                   Q00  =   0.108729

Total multipoles referred to origin at
           x =   0.000000,  y =    0.000000,  z =    0.000000 angstrom
                   Q00  =  -0.000000

Finished at 1:50:20 on 27 Apr 2020

  DMA results are available in the Python driver through the
	  variable('DMA DISTRIBUTED MULTIPOLES')
  and
	  variable('DMA TOTAL MULTIPOLES')
  commands.

    Psi4 stopped on: Monday, 27 April 2020 01:50AM
    Psi4 wall time for execution: 0:01:28.90

*** Psi4 exiting successfully. Buy a developer a beer!
