                               Psi4 1.3.2 release

  ==> Input File <==

--------------------------------------------------------------------------
import numpy as np
set {scf_type pk
basis cc-pvdz
d_convergence 10
gdma_switch   0
gdma_limit    0
gdma_origin   [ 0.0,  0.0,  0.0 ]
}
molecule test {
    units Angstrom
    0 1
    --
    0 1
    C                1.352434599434509    -2.953845759274793    -1.630799733128607
    C                0.592434599434509    -1.703845759274793    -1.271799733128606
    O               -0.626565400565491    -1.799845759274793    -0.988799733128607
    O                1.274434599434509    -0.672845759274793    -1.178799733128607
    H                0.665434599434509    -3.745845759274793    -1.926799733128607
    H                1.866434599434509    -3.292845759274793    -0.727799733128607
    H                2.100294599434509    -2.796060759274793    -2.421884733128607
    C                1.370434599434509     2.023154240725207     1.168200266871393
    C               -0.978565400565491     1.285154240725207     0.968200266871393
    N               -1.821565400565492     0.451154240725207     0.375200266871393
    N                0.299434599434509     1.168154240725207     0.677200266871393
    N               -1.417565400565491     2.174154240725207     1.838200266871393
    H               -1.427565400565491    -0.277845759274793    -0.225799733128607
    H               -2.811565400565491     0.436154240725207     0.553200266871393
    H                0.551434599434509     0.465154240725207    -0.019799733128607
    H               -0.767565400565491     2.761154240725207     2.347200266871393
    H               -2.405565400565491     2.295154240725207     1.977200266871393
    H                0.987434599434509     3.027154240725207     1.352200266871393
    H                2.125434599434509     2.110154240725207     0.384200266871393
    H                1.855664599434509     1.620254240725207     2.069438266871393

}
e, wfn = energy('scf', return_wfn=True)
gdma(wfn)
dmavals = variable('DMA DISTRIBUTED MULTIPOLES')
charges = np.array(dmavals)
print(charges)
np.save('SSI-055ASP-069ARG-1-dimer.npy', np.array(charges))--------------------------------------------------------------------------

*** tstart() called on ds3
*** at Sun Apr 26 17:54:06 2020

   => Loading Basis Set <=

    Name: CC-PVDZ
    Role: ORBITAL
    Keyword: BASIS
    atoms 1-2, 8-9   entry C          line   138 file /theoryfs2/ds/metcalf/miniconda2/envs/tf2gpu/share/psi4/basis/cc-pvdz.gbs
    atoms 3-4        entry O          line   198 file /theoryfs2/ds/metcalf/miniconda2/envs/tf2gpu/share/psi4/basis/cc-pvdz.gbs
    atoms 5-7, 13-20 entry H          line    22 file /theoryfs2/ds/metcalf/miniconda2/envs/tf2gpu/share/psi4/basis/cc-pvdz.gbs
    atoms 10-12      entry N          line   168 file /theoryfs2/ds/metcalf/miniconda2/envs/tf2gpu/share/psi4/basis/cc-pvdz.gbs

         ---------------------------------------------------------
                                   SCF
               by Justin Turney, Rob Parrish, Andy Simmonett
                          and Daniel G. A. Smith
                              RHF Reference
                        1 Threads,    500 MiB Core
         ---------------------------------------------------------

  ==> Geometry <==

    Molecular point group: c1
    Full point group: C1

    Geometry (in Angstrom), charge = 0, multiplicity = 1:

       Center              X                  Y                   Z               Mass
    ------------   -----------------  -----------------  -----------------  -----------------
         C            1.352434599435    -2.953845759275    -1.630799733129    12.000000000000
         C            0.592434599435    -1.703845759275    -1.271799733129    12.000000000000
         O           -0.626565400565    -1.799845759275    -0.988799733129    15.994914619570
         O            1.274434599435    -0.672845759275    -1.178799733129    15.994914619570
         H            0.665434599435    -3.745845759275    -1.926799733129     1.007825032230
         H            1.866434599435    -3.292845759275    -0.727799733129     1.007825032230
         H            2.100294599435    -2.796060759275    -2.421884733129     1.007825032230
         C            1.370434599435     2.023154240725     1.168200266871    12.000000000000
         C           -0.978565400565     1.285154240725     0.968200266871    12.000000000000
         N           -1.821565400565     0.451154240725     0.375200266871    14.003074004430
         N            0.299434599435     1.168154240725     0.677200266871    14.003074004430
         N           -1.417565400565     2.174154240725     1.838200266871    14.003074004430
         H           -1.427565400565    -0.277845759275    -0.225799733129     1.007825032230
         H           -2.811565400565     0.436154240725     0.553200266871     1.007825032230
         H            0.551434599435     0.465154240725    -0.019799733129     1.007825032230
         H           -0.767565400565     2.761154240725     2.347200266871     1.007825032230
         H           -2.405565400565     2.295154240725     1.977200266871     1.007825032230
         H            0.987434599435     3.027154240725     1.352200266871     1.007825032230
         H            2.125434599435     2.110154240725     0.384200266871     1.007825032230
         H            1.855664599435     1.620254240725     2.069438266871     1.007825032230

  Running in c1 symmetry.

  Rotational constants: A =      0.09662  B =      0.02571  C =      0.02083 [cm^-1]
  Rotational constants: A =   2896.50025  B =    770.66871  C =    624.39705 [MHz]
  Nuclear repulsion =  467.994649091225767

  Charge       = 0
  Multiplicity = 1
  Electrons    = 72
  Nalpha       = 36
  Nbeta        = 36

  ==> Algorithm <==

  SCF Algorithm Type is PK.
  DIIS enabled.
  MOM disabled.
  Fractional occupation disabled.
  Guess Type is SAD.
  Energy threshold   = 1.00e-06
  Density threshold  = 1.00e-10
  Integral threshold = 0.00e+00

  ==> Primary Basis <==

  Basis Set: CC-PVDZ
    Blend: CC-PVDZ
    Number of shells: 87
    Number of basis function: 181
    Number of Cartesian functions: 190
    Spherical Harmonics?: true
    Max angular momentum: 2

  ==> Pre-Iterations <==

   -------------------------------------------------------
    Irrep   Nso     Nmo     Nalpha   Nbeta   Ndocc  Nsocc
   -------------------------------------------------------
     A        181     181       0       0       0       0
   -------------------------------------------------------
    Total     181     181      36      36      36       0
   -------------------------------------------------------

  ==> Integral Setup <==

  Using integral reordering PK algorithm.
  Sizing the integral batches needed.
  Building batch lookup table.
   Calculation information:
      Number of atoms:                  20
      Number of AO shells:              87
      Number of primitives:            253
      Number of atomic orbitals:       190
      Number of basis functions:       181

      Integral cutoff                 1.00e-12
      Number of threads:                 1

	Batch   1 pq = [       0,    9405] index = [             0,44231715] size =     44231715
	Batch   2 pq = [    9405,   13301] index = [      44231715,88464951] size =     44233236
	Batch   3 pq = [   13301,   16471] index = [      88464951,135655156] size =     47190205
  Task number: 13
  Buffer size: 11059200
  Buffer per thread: 2
  We computed 6037373 shell quartets total.
  Whereas there are 7328706 unique shell quartets.

  ==> DiskJK: Disk-Based J/K Matrices <==

    J tasked:                  Yes
    K tasked:                  Yes
    wK tasked:                  No
    Memory [MiB]:              375
    Schwarz Cutoff:          1E-12

    OpenMP threads:              1

  Minimum eigenvalue in the overlap matrix is 3.6780137539E-03.
  Using Symmetric Orthogonalization.

  SCF Guess: Superposition of Atomic Densities via on-the-fly atomic UHF.

  ==> Iterations <==

                        Total Energy        Delta E     RMS |[F,P]|

   @RHF iter SAD:  -469.82037546493655   -4.69820e+02   0.00000e+00
   @RHF iter   1:  -470.73596877229465   -9.15593e-01   4.15132e-03 DIIS
   @RHF iter   2:  -470.95511303609021   -2.19144e-01   2.10274e-03 DIIS
   @RHF iter   3:  -471.00810775427993   -5.29947e-02   3.82945e-04 DIIS
   @RHF iter   4:  -471.01114870593091   -3.04095e-03   1.27578e-04 DIIS
   @RHF iter   5:  -471.01148508715619   -3.36381e-04   2.33114e-05 DIIS
   @RHF iter   6:  -471.01150112694273   -1.60398e-05   7.90841e-06 DIIS
   @RHF iter   7:  -471.01150250396717   -1.37702e-06   2.53973e-06 DIIS
   @RHF iter   8:  -471.01150267452448   -1.70557e-07   9.58958e-07 DIIS
   @RHF iter   9:  -471.01150269535572   -2.08312e-08   2.89159e-07 DIIS
   @RHF iter  10:  -471.01150269754083   -2.18512e-09   6.48966e-08 DIIS
   @RHF iter  11:  -471.01150269774257   -2.01737e-10   2.16201e-08 DIIS
   @RHF iter  12:  -471.01150269776804   -2.54659e-11   1.01154e-08 DIIS
   @RHF iter  13:  -471.01150269777531   -7.27596e-12   3.49128e-09 DIIS
   @RHF iter  14:  -471.01150269777412    1.19371e-12   1.03790e-09 DIIS
   @RHF iter  15:  -471.01150269777298    1.13687e-12   3.85724e-10 DIIS
   @RHF iter  16:  -471.01150269777736   -4.37694e-12   1.22022e-10 DIIS
   @RHF iter  17:  -471.01150269777577    1.59162e-12   5.59405e-11 DIIS
  Energy and wave function converged.

  ==> Post-Iterations <==

    Orbital Energies [Eh]
    ---------------------

    Doubly Occupied:

       1A    -20.433599     2A    -20.432924     3A    -15.646774
       4A    -15.602720     5A    -15.602548     6A    -11.423777
       7A    -11.298686     8A    -11.276468     9A    -11.170416
      10A     -1.382500    11A     -1.325261    12A     -1.243933
      13A     -1.222744    14A     -1.211590    15A     -0.990102
      16A     -0.926835    17A     -0.879091    18A     -0.816173
      19A     -0.777760    20A     -0.708078    21A     -0.689206
      22A     -0.668141    23A     -0.649112    24A     -0.632524
      25A     -0.596818    26A     -0.578407    27A     -0.564026
      28A     -0.554714    29A     -0.545903    30A     -0.485990
      31A     -0.464705    32A     -0.455481    33A     -0.412623
      34A     -0.347601    35A     -0.346678    36A     -0.339840

    Virtual:

      37A      0.126719    38A      0.160609    39A      0.184745
      40A      0.207593    41A      0.217843    42A      0.243180
      43A      0.248798    44A      0.254291    45A      0.273865
      46A      0.307463    47A      0.313414    48A      0.345827
      49A      0.359015    50A      0.419388    51A      0.432800
      52A      0.454151    53A      0.489375    54A      0.491463
      55A      0.586575    56A      0.595206    57A      0.605717
      58A      0.608735    59A      0.666980    60A      0.681080
      61A      0.685990    62A      0.697389    63A      0.697795
      64A      0.724137    65A      0.736576    66A      0.765132
      67A      0.793594    68A      0.818062    69A      0.824522
      70A      0.839947    71A      0.846280    72A      0.855373
      73A      0.895818    74A      0.908159    75A      0.916749
      76A      0.919434    77A      0.925630    78A      0.950862
      79A      0.957845    80A      0.971115    81A      1.001699
      82A      1.004104    83A      1.043694    84A      1.063648
      85A      1.086592    86A      1.114156    87A      1.125743
      88A      1.154370    89A      1.210928    90A      1.219451
      91A      1.249934    92A      1.271385    93A      1.284730
      94A      1.308627    95A      1.332150    96A      1.339495
      97A      1.374315    98A      1.384865    99A      1.403498
     100A      1.433961   101A      1.436847   102A      1.493030
     103A      1.516145   104A      1.554293   105A      1.565621
     106A      1.590272   107A      1.616076   108A      1.644565
     109A      1.672310   110A      1.689494   111A      1.699607
     112A      1.712754   113A      1.730118   114A      1.766495
     115A      1.809769   116A      1.816809   117A      1.856600
     118A      1.879769   119A      1.892259   120A      1.900187
     121A      1.920083   122A      1.933807   123A      1.937497
     124A      1.956908   125A      1.966419   126A      1.990768
     127A      2.002911   128A      2.008223   129A      2.022561
     130A      2.075343   131A      2.081690   132A      2.137822
     133A      2.157030   134A      2.166990   135A      2.224224
     136A      2.256445   137A      2.279285   138A      2.289309
     139A      2.317956   140A      2.326410   141A      2.329743
     142A      2.411598   143A      2.425815   144A      2.460942
     145A      2.476892   146A      2.490154   147A      2.514827
     148A      2.547069   149A      2.567614   150A      2.584695
     151A      2.608845   152A      2.630514   153A      2.665267
     154A      2.724298   155A      2.736488   156A      2.740990
     157A      2.791120   158A      2.798924   159A      2.843455
     160A      2.878752   161A      2.892879   162A      2.923093
     163A      2.952315   164A      2.986968   165A      2.996665
     166A      3.057042   167A      3.079265   168A      3.131660
     169A      3.146295   170A      3.176950   171A      3.235799
     172A      3.307582   173A      3.396278   174A      3.466031
     175A      3.638777   176A      3.708875   177A      3.779352
     178A      3.810856   179A      3.905734   180A      3.947335
     181A      4.067873

    Final Occupation by Irrep:
              A
    DOCC [    36 ]

  @RHF Final Energy:  -471.01150269777577

   => Energetics <=

    Nuclear Repulsion Energy =            467.9946490912257673
    One-Electron Energy =               -1572.6048056529409678
    Two-Electron Energy =                 633.5986538639394894
    Total Energy =                       -471.0115026977757680

Computation Completed

Properties will be evaluated at   0.000000,   0.000000,   0.000000 [a0]

Properties computed using the SCF density matrix

  Nuclear Dipole Moment: [e a0]
     X:     2.5802      Y:     2.4169      Z:     3.1324

  Electronic Dipole Moment: [e a0]
     X:    -3.9733      Y:     0.8235      Z:    -0.3516

  Dipole Moment: [e a0]
     X:    -1.3931      Y:     3.2405      Z:     2.7808     Total:     4.4916

  Dipole Moment: [D]
     X:    -3.5409      Y:     8.2364      Z:     7.0680     Total:    11.4164

*** tstop() called on ds3 at Sun Apr 26 17:55:15 2020
Module time:
	user time   =      49.72 seconds =       0.83 minutes
	system time =      22.27 seconds =       0.37 minutes
	total time  =         69 seconds =       1.15 minutes
Total time:
	user time   =      49.72 seconds =       0.83 minutes
	system time =      22.27 seconds =       0.37 minutes
	total time  =         69 seconds =       1.15 minutes
                                     G D M A

                                 by Anthony Stone

                           version 2.2.06, 22 June 2011

               Distributed Multipoles from Gaussian wavefunctions

Starting at 17:55:15 on 26 Apr 2020

Using SCF density matrix from file ./SSI/SSI-055ASP-069ARG-1-dimer.test.12833.fchk

                         Distributed Multipole Analysis

Standard DMA

Positions and radii in angstrom
Multipole moments in atomic units, ea_0^k for rank k

C          x =  1.352435  y = -2.953846  z = -1.630800 angstrom
           Maximum rank =  0   Radius =  0.650 angstrom
                   Q00  =  -0.249681

C          x =  0.592435  y = -1.703846  z = -1.271800 angstrom
           Maximum rank =  0   Radius =  0.650 angstrom
                   Q00  =   0.871384

O          x = -0.626565  y = -1.799846  z = -0.988800 angstrom
           Maximum rank =  0   Radius =  0.650 angstrom
                   Q00  =  -0.929750

O          x =  1.274435  y = -0.672846  z = -1.178800 angstrom
           Maximum rank =  0   Radius =  0.650 angstrom
                   Q00  =  -0.920446

H          x =  0.665435  y = -3.745846  z = -1.926800 angstrom
           Maximum rank =  0   Radius =  0.325 angstrom
                   Q00  =   0.078530

H          x =  1.866435  y = -3.292846  z = -0.727800 angstrom
           Maximum rank =  0   Radius =  0.325 angstrom
                   Q00  =   0.099277

H          x =  2.100295  y = -2.796061  z = -2.421885 angstrom
           Maximum rank =  0   Radius =  0.325 angstrom
                   Q00  =   0.089086

C          x =  1.370435  y =  2.023154  z =  1.168200 angstrom
           Maximum rank =  0   Radius =  0.650 angstrom
                   Q00  =  -0.104762

C          x = -0.978565  y =  1.285154  z =  0.968200 angstrom
           Maximum rank =  0   Radius =  0.650 angstrom
                   Q00  =   1.064633

N          x = -1.821565  y =  0.451154  z =  0.375200 angstrom
           Maximum rank =  0   Radius =  0.650 angstrom
                   Q00  =  -0.615583

N          x =  0.299435  y =  1.168154  z =  0.677200 angstrom
           Maximum rank =  0   Radius =  0.650 angstrom
                   Q00  =  -0.509622

N          x = -1.417565  y =  2.174154  z =  1.838200 angstrom
           Maximum rank =  0   Radius =  0.650 angstrom
                   Q00  =  -0.585897

H          x = -1.427565  y = -0.277846  z = -0.225800 angstrom
           Maximum rank =  0   Radius =  0.325 angstrom
                   Q00  =   0.336924

H          x = -2.811565  y =  0.436154  z =  0.553200 angstrom
           Maximum rank =  0   Radius =  0.325 angstrom
                   Q00  =   0.225172

H          x =  0.551435  y =  0.465154  z = -0.019800 angstrom
           Maximum rank =  0   Radius =  0.325 angstrom
                   Q00  =   0.338481

H          x = -0.767565  y =  2.761154  z =  2.347200 angstrom
           Maximum rank =  0   Radius =  0.325 angstrom
                   Q00  =   0.246249

H          x = -2.405565  y =  2.295154  z =  1.977200 angstrom
           Maximum rank =  0   Radius =  0.325 angstrom
                   Q00  =   0.237486

H          x =  0.987435  y =  3.027154  z =  1.352200 angstrom
           Maximum rank =  0   Radius =  0.325 angstrom
                   Q00  =   0.071420

H          x =  2.125435  y =  2.110154  z =  0.384200 angstrom
           Maximum rank =  0   Radius =  0.325 angstrom
                   Q00  =   0.154261

H          x =  1.855665  y =  1.620254  z =  2.069438 angstrom
           Maximum rank =  0   Radius =  0.325 angstrom
                   Q00  =   0.102839

Total multipoles referred to origin at
           x =   0.000000,  y =    0.000000,  z =    0.000000 angstrom
                   Q00  =  -0.000000

Finished at 17:55:15 on 26 Apr 2020

  DMA results are available in the Python driver through the
	  variable('DMA DISTRIBUTED MULTIPOLES')
  and
	  variable('DMA TOTAL MULTIPOLES')
  commands.

    Psi4 stopped on: Sunday, 26 April 2020 05:55PM
    Psi4 wall time for execution: 0:01:09.55

*** Psi4 exiting successfully. Buy a developer a beer!
