                               Psi4 1.3.2 release

  ==> Input File <==

--------------------------------------------------------------------------
import numpy as np
set {scf_type pk
basis cc-pvdz
d_convergence 10
gdma_switch   0
gdma_limit    0
gdma_origin   [ 0.0,  0.0,  0.0 ]
}
molecule test {
    units Angstrom
    0 1
    --
    0 1
    C               -0.610556204535060     1.583325431181054    -0.625609383723178
    C               -1.618556204535060     0.995325431181054    -1.595609383723178
    C                0.769443795464940     1.822325431181054    -1.253609383723178
    H               -1.004556204535060     2.527325431181054    -0.243609383723178
    H               -0.494556204535060     0.910325431181054     0.224390616276822
    H               -1.146556204535060     0.166325431181054    -2.111609383723178
    H                0.641443795464940     2.356325431181054    -2.194609383723178
    H               -1.927151204535060     1.750925431181054    -2.333059383723178
    H               -2.504200204535060     0.605155431181054    -1.072729383723178
    H                1.376396795464940     2.462185431181054    -0.596199383723178
    H                1.308421795464940     0.886655431181054    -1.463449383723178
    C                0.377443795464940    -1.521674568818946     1.430390616276822
    C                1.038443795464940    -2.776674568818946     2.003390616276822
    H               -0.664556204535060    -1.472674568818946     1.753390616276822
    H                0.899443795464940    -0.634674568818946     1.793390616276822
    H                0.404443795464940    -1.532674568818946     0.342390616276822
    H                2.084443795464940    -2.784674568818946     1.737390616276822
    H                0.586001795464940    -3.672164568818946     1.552390616276822
    H                0.962273795464940    -2.790324568818946     3.100660616276822

}
e, wfn = energy('scf', return_wfn=True)
gdma(wfn)
dmavals = variable('DMA DISTRIBUTED MULTIPOLES')
charges = np.array(dmavals)
print(charges)
np.save('SSI-059LEU-117VAL-1-dimer.npy', np.array(charges))--------------------------------------------------------------------------

*** tstart() called on ds3
*** at Sun Apr 26 22:22:12 2020

   => Loading Basis Set <=

    Name: CC-PVDZ
    Role: ORBITAL
    Keyword: BASIS
    atoms 1-3, 12-13  entry C          line   138 file /theoryfs2/ds/metcalf/miniconda2/envs/tf2gpu/share/psi4/basis/cc-pvdz.gbs
    atoms 4-11, 14-19 entry H          line    22 file /theoryfs2/ds/metcalf/miniconda2/envs/tf2gpu/share/psi4/basis/cc-pvdz.gbs

         ---------------------------------------------------------
                                   SCF
               by Justin Turney, Rob Parrish, Andy Simmonett
                          and Daniel G. A. Smith
                              RHF Reference
                        1 Threads,    500 MiB Core
         ---------------------------------------------------------

  ==> Geometry <==

    Molecular point group: c1
    Full point group: C1

    Geometry (in Angstrom), charge = 0, multiplicity = 1:

       Center              X                  Y                   Z               Mass
    ------------   -----------------  -----------------  -----------------  -----------------
         C           -0.610556204535     1.583325431181    -0.625609383723    12.000000000000
         C           -1.618556204535     0.995325431181    -1.595609383723    12.000000000000
         C            0.769443795465     1.822325431181    -1.253609383723    12.000000000000
         H           -1.004556204535     2.527325431181    -0.243609383723     1.007825032230
         H           -0.494556204535     0.910325431181     0.224390616277     1.007825032230
         H           -1.146556204535     0.166325431181    -2.111609383723     1.007825032230
         H            0.641443795465     2.356325431181    -2.194609383723     1.007825032230
         H           -1.927151204535     1.750925431181    -2.333059383723     1.007825032230
         H           -2.504200204535     0.605155431181    -1.072729383723     1.007825032230
         H            1.376396795465     2.462185431181    -0.596199383723     1.007825032230
         H            1.308421795465     0.886655431181    -1.463449383723     1.007825032230
         C            0.377443795465    -1.521674568819     1.430390616277    12.000000000000
         C            1.038443795465    -2.776674568819     2.003390616277    12.000000000000
         H           -0.664556204535    -1.472674568819     1.753390616277     1.007825032230
         H            0.899443795465    -0.634674568819     1.793390616277     1.007825032230
         H            0.404443795465    -1.532674568819     0.342390616277     1.007825032230
         H            2.084443795465    -2.784674568819     1.737390616277     1.007825032230
         H            0.586001795465    -3.672164568819     1.552390616277     1.007825032230
         H            0.962273795465    -2.790324568819     3.100660616277     1.007825032230

  Running in c1 symmetry.

  Rotational constants: A =      0.22707  B =      0.03749  C =      0.03424 [cm^-1]
  Rotational constants: A =   6807.40855  B =   1123.93128  C =   1026.53331 [MHz]
  Nuclear repulsion =  176.467231566513561

  Charge       = 0
  Multiplicity = 1
  Electrons    = 44
  Nalpha       = 22
  Nbeta        = 22

  ==> Algorithm <==

  SCF Algorithm Type is PK.
  DIIS enabled.
  MOM disabled.
  Fractional occupation disabled.
  Guess Type is SAD.
  Energy threshold   = 1.00e-06
  Density threshold  = 1.00e-10
  Integral threshold = 0.00e+00

  ==> Primary Basis <==

  Basis Set: CC-PVDZ
    Blend: CC-PVDZ
    Number of shells: 72
    Number of basis function: 140
    Number of Cartesian functions: 145
    Spherical Harmonics?: true
    Max angular momentum: 2

  ==> Pre-Iterations <==

   -------------------------------------------------------
    Irrep   Nso     Nmo     Nalpha   Nbeta   Ndocc  Nsocc
   -------------------------------------------------------
     A        140     140       0       0       0       0
   -------------------------------------------------------
    Total     140     140      22      22      22       0
   -------------------------------------------------------

  ==> Integral Setup <==

  Using integral reordering PK algorithm.
  Sizing the integral batches needed.
  Building batch lookup table.
   Calculation information:
      Number of atoms:                  19
      Number of AO shells:              72
      Number of primitives:            180
      Number of atomic orbitals:       145
      Number of basis functions:       140

      Integral cutoff                 1.00e-12
      Number of threads:                 1

	Batch   1 pq = [       0,    9405] index = [             0,44231715] size =     44231715
	Batch   2 pq = [    9405,    9870] index = [      44231715,48713385] size =      4481670
  Task number: 5
  Buffer size: 11059200
  Buffer per thread: 2
  We computed 2760944 shell quartets total.
  Whereas there are 3454506 unique shell quartets.

  ==> DiskJK: Disk-Based J/K Matrices <==

    J tasked:                  Yes
    K tasked:                  Yes
    wK tasked:                  No
    Memory [MiB]:              375
    Schwarz Cutoff:          1E-12

    OpenMP threads:              1

  Minimum eigenvalue in the overlap matrix is 5.5234522098E-03.
  Using Symmetric Orthogonalization.

  SCF Guess: Superposition of Atomic Densities via on-the-fly atomic UHF.

  ==> Iterations <==

                        Total Energy        Delta E     RMS |[F,P]|

   @RHF iter SAD:  -196.35741508597283   -1.96357e+02   0.00000e+00
   @RHF iter   1:  -197.31213046440092   -9.54715e-01   3.80588e-03 DIIS
   @RHF iter   2:  -197.47227646305163   -1.60146e-01   1.64618e-03 DIIS
   @RHF iter   3:  -197.50086608297397   -2.85896e-02   3.26112e-04 DIIS
   @RHF iter   4:  -197.50310225515287   -2.23617e-03   4.92449e-05 DIIS
   @RHF iter   5:  -197.50314211545859   -3.98603e-05   1.50066e-05 DIIS
   @RHF iter   6:  -197.50314559552655   -3.48007e-06   2.48301e-06 DIIS
   @RHF iter   7:  -197.50314570791832   -1.12392e-07   4.82167e-07 DIIS
   @RHF iter   8:  -197.50314571281945   -4.90112e-09   1.25926e-07 DIIS
   @RHF iter   9:  -197.50314571314323   -3.23780e-10   4.00422e-08 DIIS
   @RHF iter  10:  -197.50314571317966   -3.64366e-11   8.28255e-09 DIIS
   @RHF iter  11:  -197.50314571318125   -1.59162e-12   1.52792e-09 DIIS
   @RHF iter  12:  -197.50314571318131   -5.68434e-14   2.69247e-10 DIIS
   @RHF iter  13:  -197.50314571318171   -3.97904e-13   4.74008e-11 DIIS
  Energy and wave function converged.

  ==> Post-Iterations <==

    Orbital Energies [Eh]
    ---------------------

    Doubly Occupied:

       1A    -11.219105     2A    -11.218337     3A    -11.217685
       4A    -11.217010     5A    -11.215066     6A     -1.052695
       7A     -1.019255     8A     -0.923212     9A     -0.839178
      10A     -0.795511    11A     -0.624718    12A     -0.600634
      13A     -0.596924    14A     -0.594004    15A     -0.546119
      16A     -0.532153    17A     -0.502683    18A     -0.489806
      19A     -0.484712    20A     -0.472395    21A     -0.468261
      22A     -0.462963

    Virtual:

      23A      0.167915    24A      0.194465    25A      0.219706
      26A      0.222668    27A      0.226956    28A      0.255618
      29A      0.260700    30A      0.262778    31A      0.270871
      32A      0.279511    33A      0.296443    34A      0.300718
      35A      0.317373    36A      0.327520    37A      0.373372
      38A      0.425808    39A      0.429191    40A      0.581568
      41A      0.588236    42A      0.595033    43A      0.603327
      44A      0.615655    45A      0.621767    46A      0.637459
      47A      0.683076    48A      0.695298    49A      0.712886
      50A      0.777947    51A      0.817513    52A      0.844216
      53A      0.871911    54A      0.880425    55A      0.888555
      56A      0.892283    57A      0.893116    58A      0.894108
      59A      0.903984    60A      0.907831    61A      0.915989
      62A      0.919128    63A      0.926562    64A      0.938704
      65A      0.941422    66A      0.971254    67A      0.991937
      68A      1.038051    69A      1.118681    70A      1.123732
      71A      1.126291    72A      1.130552    73A      1.218681
      74A      1.278874    75A      1.377267    76A      1.448526
      77A      1.469404    78A      1.477462    79A      1.482689
      80A      1.541815    81A      1.580920    82A      1.639859
      83A      1.668907    84A      1.681282    85A      1.691887
      86A      1.693253    87A      1.719243    88A      1.843829
      89A      1.851048    90A      1.867466    91A      1.871674
      92A      1.879156    93A      1.905515    94A      1.917234
      95A      1.923940    96A      1.934411    97A      1.942865
      98A      1.952145    99A      1.955107   100A      1.964491
     101A      1.966005   102A      1.975157   103A      1.980011
     104A      2.002190   105A      2.014165   106A      2.042706
     107A      2.067298   108A      2.092231   109A      2.118304
     110A      2.150703   111A      2.168007   112A      2.281364
     113A      2.292999   114A      2.301148   115A      2.312430
     116A      2.343944   117A      2.357454   118A      2.444427
     119A      2.469567   120A      2.487648   121A      2.527587
     122A      2.560178   123A      2.571475   124A      2.580546
     125A      2.605598   126A      2.646701   127A      2.750683
     128A      2.758412   129A      2.768971   130A      2.785369
     131A      2.790527   132A      2.821733   133A      2.847144
     134A      2.866759   135A      2.922739   136A      2.942109
     137A      2.953882   138A      2.966026   139A      2.978197
     140A      3.061153

    Final Occupation by Irrep:
              A
    DOCC [    22 ]

  @RHF Final Energy:  -197.50314571318171

   => Energetics <=

    Nuclear Repulsion Energy =            176.4672315665135613
    One-Electron Energy =                -613.7559088865614285
    Two-Electron Energy =                 239.7855316068661864
    Total Energy =                       -197.5031457131817092

Computation Completed

Properties will be evaluated at   0.000000,   0.000000,   0.000000 [a0]

Properties computed using the SCF density matrix

  Nuclear Dipole Moment: [e a0]
     X:     0.4887      Y:    -1.1456      Z:     0.4582

  Electronic Dipole Moment: [e a0]
     X:    -0.4804      Y:     1.1402      Z:    -0.4213

  Dipole Moment: [e a0]
     X:     0.0083      Y:    -0.0053      Z:     0.0369     Total:     0.0382

  Dipole Moment: [D]
     X:     0.0211      Y:    -0.0136      Z:     0.0937     Total:     0.0970

*** tstop() called on ds3 at Sun Apr 26 22:22:31 2020
Module time:
	user time   =      13.88 seconds =       0.23 minutes
	system time =       6.14 seconds =       0.10 minutes
	total time  =         19 seconds =       0.32 minutes
Total time:
	user time   =      13.88 seconds =       0.23 minutes
	system time =       6.14 seconds =       0.10 minutes
	total time  =         19 seconds =       0.32 minutes
                                     G D M A

                                 by Anthony Stone

                           version 2.2.06, 22 June 2011

               Distributed Multipoles from Gaussian wavefunctions

Starting at 22:22:31 on 26 Apr 2020

Using SCF density matrix from file ./SSI/SSI-059LEU-117VAL-1-dimer.test.12039.fchk

                         Distributed Multipole Analysis

Standard DMA

Positions and radii in angstrom
Multipole moments in atomic units, ea_0^k for rank k

C          x = -0.610556  y =  1.583325  z = -0.625609 angstrom
           Maximum rank =  0   Radius =  0.650 angstrom
                   Q00  =  -0.083641

C          x = -1.618556  y =  0.995325  z = -1.595609 angstrom
           Maximum rank =  0   Radius =  0.650 angstrom
                   Q00  =  -0.232578

C          x =  0.769444  y =  1.822325  z = -1.253609 angstrom
           Maximum rank =  0   Radius =  0.650 angstrom
                   Q00  =  -0.252526

H          x = -1.004556  y =  2.527325  z = -0.243609 angstrom
           Maximum rank =  0   Radius =  0.325 angstrom
                   Q00  =   0.045261

H          x = -0.494556  y =  0.910325  z =  0.224391 angstrom
           Maximum rank =  0   Radius =  0.325 angstrom
                   Q00  =   0.051994

H          x = -1.146556  y =  0.166325  z = -2.111609 angstrom
           Maximum rank =  0   Radius =  0.325 angstrom
                   Q00  =   0.072088

H          x =  0.641444  y =  2.356325  z = -2.194609 angstrom
           Maximum rank =  0   Radius =  0.325 angstrom
                   Q00  =   0.074242

H          x = -1.927151  y =  1.750925  z = -2.333059 angstrom
           Maximum rank =  0   Radius =  0.325 angstrom
                   Q00  =   0.076792

H          x = -2.504200  y =  0.605155  z = -1.072729 angstrom
           Maximum rank =  0   Radius =  0.325 angstrom
                   Q00  =   0.082759

H          x =  1.376397  y =  2.462185  z = -0.596199 angstrom
           Maximum rank =  0   Radius =  0.325 angstrom
                   Q00  =   0.083209

H          x =  1.308422  y =  0.886655  z = -1.463449 angstrom
           Maximum rank =  0   Radius =  0.325 angstrom
                   Q00  =   0.079732

C          x =  0.377444  y = -1.521675  z =  1.430391 angstrom
           Maximum rank =  0   Radius =  0.650 angstrom
                   Q00  =  -0.239222

C          x =  1.038444  y = -2.776675  z =  2.003391 angstrom
           Maximum rank =  0   Radius =  0.650 angstrom
                   Q00  =  -0.237209

H          x = -0.664556  y = -1.472675  z =  1.753391 angstrom
           Maximum rank =  0   Radius =  0.325 angstrom
                   Q00  =   0.078210

H          x =  0.899444  y = -0.634675  z =  1.793391 angstrom
           Maximum rank =  0   Radius =  0.325 angstrom
                   Q00  =   0.077551

H          x =  0.404444  y = -1.532675  z =  0.342391 angstrom
           Maximum rank =  0   Radius =  0.325 angstrom
                   Q00  =   0.080712

H          x =  2.084444  y = -2.784675  z =  1.737391 angstrom
           Maximum rank =  0   Radius =  0.325 angstrom
                   Q00  =   0.081288

H          x =  0.586002  y = -3.672165  z =  1.552391 angstrom
           Maximum rank =  0   Radius =  0.325 angstrom
                   Q00  =   0.079457

H          x =  0.962274  y = -2.790325  z =  3.100661 angstrom
           Maximum rank =  0   Radius =  0.325 angstrom
                   Q00  =   0.081881

Total multipoles referred to origin at
           x =   0.000000,  y =    0.000000,  z =    0.000000 angstrom
                   Q00  =  -0.000000

Finished at 22:22:31 on 26 Apr 2020

  DMA results are available in the Python driver through the
	  variable('DMA DISTRIBUTED MULTIPOLES')
  and
	  variable('DMA TOTAL MULTIPOLES')
  commands.

    Psi4 stopped on: Sunday, 26 April 2020 10:22PM
    Psi4 wall time for execution: 0:00:19.45

*** Psi4 exiting successfully. Buy a developer a beer!
