                               Psi4 1.3.2 release

  ==> Input File <==

--------------------------------------------------------------------------
import numpy as np
set {scf_type pk
basis cc-pvdz
d_convergence 10
gdma_switch   0
gdma_limit    0
gdma_origin   [ 0.0,  0.0,  0.0 ]
}
molecule test {
    units Angstrom
    0 1
    --
    0 1
    C               -1.235907954451402     0.400627167842586     0.521099043075677
    C               -1.969907954451402     0.240627167842586     1.851099043075677
    C                0.243092045548598     0.181627167842586     0.635099043075677
    C                0.809092045548598    -1.016372832157414     0.207099043075677
    C                1.051092045548598     1.157627167842585     1.217099043075677
    C                2.180092045548598    -1.250372832157415     0.355099043075677
    C                2.423092045548598     0.942627167842586     1.379099043075677
    C                3.000092045548598    -0.267372832157414     0.948099043075677
    H               -1.653907954451402    -0.301372832157414    -0.198900956924323
    H               -1.408907954451402     1.406627167842585     0.139099043075677
    H               -1.569907954451402     0.959627167842586     2.568099043075676
    H                0.188092045548598    -1.776372832157415    -0.243900956924323
    H                0.616092045548598     2.088627167842586     1.552099043075677
    H                2.612092045548598    -2.180372832157414     0.014099043075677
    H                3.042092045548598     1.707627167842585     1.830099043075677
    H                4.062092045548598    -0.437372832157415     1.066099043075677
    H               -1.870157954451402    -0.783912832157414     2.238865043075677
    H               -3.042717954451402     0.431267167842586     1.700326043075677
    C               -1.999907954451402     0.192627167842586    -3.068900956924323
    C               -3.259907954451402    -0.578372832157414    -3.331900956924323
    H               -2.144907954451402     0.938627167842586    -2.290900956924323
    H               -1.219907954451402    -0.496372832157414    -2.745900956924323
    H               -1.671907954451402     0.684627167842586    -3.982900956924323
    H               -3.051907954451402    -1.366372832157414    -4.050900956924323
    H               -4.049427954451402     0.091347167842586    -3.703566556924323
    H               -3.612227954451402    -1.005182832157415    -2.381267956924323

}
e, wfn = energy('scf', return_wfn=True)
gdma(wfn)
dmavals = variable('DMA DISTRIBUTED MULTIPOLES')
charges = np.array(dmavals)
print(charges)
np.save('SSI-173PHE-176THR-1-dimer.npy', np.array(charges))--------------------------------------------------------------------------

*** tstart() called on ds3
*** at Mon Apr 27 06:38:43 2020

   => Loading Basis Set <=

    Name: CC-PVDZ
    Role: ORBITAL
    Keyword: BASIS
    atoms 1-8, 19-20  entry C          line   138 file /theoryfs2/ds/metcalf/miniconda2/envs/tf2gpu/share/psi4/basis/cc-pvdz.gbs
    atoms 9-18, 21-26 entry H          line    22 file /theoryfs2/ds/metcalf/miniconda2/envs/tf2gpu/share/psi4/basis/cc-pvdz.gbs

         ---------------------------------------------------------
                                   SCF
               by Justin Turney, Rob Parrish, Andy Simmonett
                          and Daniel G. A. Smith
                              RHF Reference
                        1 Threads,    500 MiB Core
         ---------------------------------------------------------

  ==> Geometry <==

    Molecular point group: c1
    Full point group: C1

    Geometry (in Angstrom), charge = 0, multiplicity = 1:

       Center              X                  Y                   Z               Mass
    ------------   -----------------  -----------------  -----------------  -----------------
         C           -1.235907954451     0.400627167843     0.521099043076    12.000000000000
         C           -1.969907954451     0.240627167843     1.851099043076    12.000000000000
         C            0.243092045549     0.181627167843     0.635099043076    12.000000000000
         C            0.809092045549    -1.016372832157     0.207099043076    12.000000000000
         C            1.051092045549     1.157627167843     1.217099043076    12.000000000000
         C            2.180092045549    -1.250372832157     0.355099043076    12.000000000000
         C            2.423092045549     0.942627167843     1.379099043076    12.000000000000
         C            3.000092045549    -0.267372832157     0.948099043076    12.000000000000
         H           -1.653907954451    -0.301372832157    -0.198900956924     1.007825032230
         H           -1.408907954451     1.406627167843     0.139099043076     1.007825032230
         H           -1.569907954451     0.959627167843     2.568099043076     1.007825032230
         H            0.188092045549    -1.776372832157    -0.243900956924     1.007825032230
         H            0.616092045549     2.088627167843     1.552099043076     1.007825032230
         H            2.612092045549    -2.180372832157     0.014099043076     1.007825032230
         H            3.042092045549     1.707627167843     1.830099043076     1.007825032230
         H            4.062092045549    -0.437372832157     1.066099043076     1.007825032230
         H           -1.870157954451    -0.783912832157     2.238865043076     1.007825032230
         H           -3.042717954451     0.431267167843     1.700326043076     1.007825032230
         C           -1.999907954451     0.192627167843    -3.068900956924    12.000000000000
         C           -3.259907954451    -0.578372832157    -3.331900956924    12.000000000000
         H           -2.144907954451     0.938627167843    -2.290900956924     1.007825032230
         H           -1.219907954451    -0.496372832157    -2.745900956924     1.007825032230
         H           -1.671907954451     0.684627167843    -3.982900956924     1.007825032230
         H           -3.051907954451    -1.366372832157    -4.050900956924     1.007825032230
         H           -4.049427954451     0.091347167843    -3.703566556924     1.007825032230
         H           -3.612227954451    -1.005182832157    -2.381267956924     1.007825032230

  Running in c1 symmetry.

  Rotational constants: A =      0.05795  B =      0.01864  C =      0.01600 [cm^-1]
  Rotational constants: A =   1737.17809  B =    558.73662  C =    479.52223 [MHz]
  Nuclear repulsion =  485.771646677935109

  Charge       = 0
  Multiplicity = 1
  Electrons    = 76
  Nalpha       = 38
  Nbeta        = 38

  ==> Algorithm <==

  SCF Algorithm Type is PK.
  DIIS enabled.
  MOM disabled.
  Fractional occupation disabled.
  Guess Type is SAD.
  Energy threshold   = 1.00e-06
  Density threshold  = 1.00e-10
  Integral threshold = 0.00e+00

  ==> Primary Basis <==

  Basis Set: CC-PVDZ
    Blend: CC-PVDZ
    Number of shells: 108
    Number of basis function: 220
    Number of Cartesian functions: 230
    Spherical Harmonics?: true
    Max angular momentum: 2

  ==> Pre-Iterations <==

   -------------------------------------------------------
    Irrep   Nso     Nmo     Nalpha   Nbeta   Ndocc  Nsocc
   -------------------------------------------------------
     A        220     220       0       0       0       0
   -------------------------------------------------------
    Total     220     220      38      38      38       0
   -------------------------------------------------------

  ==> Integral Setup <==

  Using integral reordering PK algorithm.
  Sizing the integral batches needed.
  Building batch lookup table.
   Calculation information:
      Number of atoms:                  26
      Number of AO shells:             108
      Number of primitives:            300
      Number of atomic orbitals:       230
      Number of basis functions:       220

      Integral cutoff                 1.00e-12
      Number of threads:                 1

	Batch   1 pq = [       0,    9405] index = [             0,44231715] size =     44231715
	Batch   2 pq = [    9405,   13301] index = [      44231715,88464951] size =     44233236
	Batch   3 pq = [   13301,   16290] index = [      88464951,132690195] size =     44225244
	Batch   4 pq = [   16290,   18810] index = [     132690195,176917455] size =     44227260
	Batch   5 pq = [   18810,   21030] index = [     176917455,221140965] size =     44223510
	Batch   6 pq = [   21030,   23037] index = [     221140965,265363203] size =     44222238
	Batch   7 pq = [   23037,   24310] index = [     265363203,295500205] size =     30137002
  Task number: 27
  Buffer size: 11059200
  Buffer per thread: 2
  We computed 15138648 shell quartets total.
  Whereas there are 17325441 unique shell quartets.

  ==> DiskJK: Disk-Based J/K Matrices <==

    J tasked:                  Yes
    K tasked:                  Yes
    wK tasked:                  No
    Memory [MiB]:              375
    Schwarz Cutoff:          1E-12

    OpenMP threads:              1

  Minimum eigenvalue in the overlap matrix is 3.2528272019E-04.
  Using Symmetric Orthogonalization.

  SCF Guess: Superposition of Atomic Densities via on-the-fly atomic UHF.

  ==> Iterations <==

                        Total Energy        Delta E     RMS |[F,P]|

   @RHF iter SAD:  -386.86365697621545   -3.86864e+02   0.00000e+00
   @RHF iter   1:  -387.77490629164248   -9.11249e-01   2.73127e-03 DIIS
   @RHF iter   2:  -387.99036230733100   -2.15456e-01   1.14172e-03 DIIS
   @RHF iter   3:  -388.02484170514674   -3.44794e-02   2.52257e-04 DIIS
   @RHF iter   4:  -388.02771369754703   -2.87199e-03   6.93868e-05 DIIS
   @RHF iter   5:  -388.02785515232068   -1.41455e-04   2.15155e-05 DIIS
   @RHF iter   6:  -388.02787048260461   -1.53303e-05   3.89738e-06 DIIS
   @RHF iter   7:  -388.02787115555350   -6.72949e-07   1.15392e-06 DIIS
   @RHF iter   8:  -388.02787122125864   -6.57051e-08   4.00234e-07 DIIS
   @RHF iter   9:  -388.02787123715279   -1.58942e-08   1.95454e-07 DIIS
   @RHF iter  10:  -388.02787124252541   -5.37261e-09   9.65543e-08 DIIS
   @RHF iter  11:  -388.02787124390807   -1.38266e-09   2.64060e-08 DIIS
   @RHF iter  12:  -388.02787124398191   -7.38396e-11   1.00705e-08 DIIS
   @RHF iter  13:  -388.02787124398634   -4.43379e-12   4.03516e-09 DIIS
   @RHF iter  14:  -388.02787124398714   -7.95808e-13   1.14904e-09 DIIS
   @RHF iter  15:  -388.02787124398742   -2.84217e-13   4.54779e-10 DIIS
   @RHF iter  16:  -388.02787124398753   -1.13687e-13   1.88911e-10 DIIS
   @RHF iter  17:  -388.02787124398662    9.09495e-13   8.53138e-11 DIIS
  Energy and wave function converged.

  ==> Post-Iterations <==

    Orbital Energies [Eh]
    ---------------------

    Doubly Occupied:

       1A    -11.238785     2A    -11.238470     3A    -11.237047
       4A    -11.235543     5A    -11.231359     6A    -11.231096
       7A    -11.227302     8A    -11.223307     9A    -11.217526
      10A    -11.212876    11A     -1.150259    12A     -1.061761
      13A     -1.026268    14A     -1.009486    15A     -0.979348
      16A     -0.861341    17A     -0.833911    18A     -0.823473
      19A     -0.785008    20A     -0.688630    21A     -0.639389
      22A     -0.635483    23A     -0.605811    24A     -0.599953
      25A     -0.589451    26A     -0.586422    27A     -0.576573
      28A     -0.541958    29A     -0.517047    30A     -0.504984
      31A     -0.499562    32A     -0.487520    33A     -0.481525
      34A     -0.477296    35A     -0.475006    36A     -0.467314
      37A     -0.330890    38A     -0.319251

    Virtual:

      39A      0.133471    40A      0.138108    41A      0.169819
      42A      0.191057    43A      0.200885    44A      0.212988
      45A      0.224072    46A      0.231604    47A      0.240897
      48A      0.248720    49A      0.259311    50A      0.262806
      51A      0.267883    52A      0.284561    53A      0.297667
      54A      0.313145    55A      0.319329    56A      0.341168
      57A      0.353713    58A      0.394698    59A      0.402440
      60A      0.419746    61A      0.447648    62A      0.466359
      63A      0.490580    64A      0.501508    65A      0.570573
      66A      0.575893    67A      0.599726    68A      0.604671
      69A      0.605939    70A      0.621435    71A      0.631347
      72A      0.649701    73A      0.678369    74A      0.682252
      75A      0.698007    76A      0.719128    77A      0.726197
      78A      0.739665    79A      0.740592    80A      0.746558
      81A      0.750144    82A      0.764256    83A      0.789000
      84A      0.796484    85A      0.829004    86A      0.847048
      87A      0.854480    88A      0.864344    89A      0.871811
      90A      0.879464    91A      0.887083    92A      0.890980
      93A      0.895403    94A      0.899872    95A      0.901168
      96A      0.908431    97A      0.915309    98A      0.926265
      99A      0.931364   100A      0.946081   101A      0.949613
     102A      0.972933   103A      0.984080   104A      0.987058
     105A      0.996738   106A      1.019924   107A      1.053307
     108A      1.090372   109A      1.108998   110A      1.129193
     111A      1.130657   112A      1.144255   113A      1.149505
     114A      1.165638   115A      1.189538   116A      1.214245
     117A      1.237787   118A      1.246301   119A      1.247718
     120A      1.254758   121A      1.293762   122A      1.302980
     123A      1.305840   124A      1.319327   125A      1.393876
     126A      1.430635   127A      1.437780   128A      1.483468
     129A      1.497809   130A      1.510897   131A      1.529532
     132A      1.577603   133A      1.610931   134A      1.616152
     135A      1.666005   136A      1.680918   137A      1.683714
     138A      1.711197   139A      1.727534   140A      1.749987
     141A      1.757214   142A      1.770077   143A      1.837935
     144A      1.845166   145A      1.852185   146A      1.869163
     147A      1.872449   148A      1.878614   149A      1.893860
     150A      1.906609   151A      1.907487   152A      1.916039
     153A      1.919656   154A      1.932668   155A      1.938342
     156A      1.944987   157A      1.950594   158A      1.955992
     159A      1.960662   160A      1.963141   161A      1.967790
     162A      1.980700   163A      1.988882   164A      1.999829
     165A      2.012233   166A      2.021611   167A      2.041738
     168A      2.052796   169A      2.062099   170A      2.086570
     171A      2.104756   172A      2.124630   173A      2.129148
     174A      2.148116   175A      2.153192   176A      2.160442
     177A      2.166809   178A      2.190856   179A      2.233247
     180A      2.256372   181A      2.271611   182A      2.297173
     183A      2.305888   184A      2.312205   185A      2.322508
     186A      2.336616   187A      2.380466   188A      2.454893
     189A      2.463977   190A      2.469478   191A      2.483322
     192A      2.490485   193A      2.528679   194A      2.540987
     195A      2.571601   196A      2.584095   197A      2.588355
     198A      2.642552   199A      2.737742   200A      2.754996
     201A      2.767856   202A      2.769715   203A      2.773134
     204A      2.795862   205A      2.803627   206A      2.841009
     207A      2.847471   208A      2.868001   209A      2.875367
     210A      2.916461   211A      2.956694   212A      2.973242
     213A      2.981860   214A      2.989843   215A      3.020936
     216A      3.045323   217A      3.183644   218A      3.194053
     219A      3.294243   220A      3.944448

    Final Occupation by Irrep:
              A
    DOCC [    38 ]

  @RHF Final Energy:  -388.02787124398662

   => Energetics <=

    Nuclear Repulsion Energy =            485.7716466779351094
    One-Electron Energy =               -1485.9025737290235156
    Two-Electron Energy =                 612.1030558071017822
    Total Energy =                       -388.0278712439866240

Computation Completed

Properties will be evaluated at   0.000000,   0.000000,   0.000000 [a0]

Properties computed using the SCF density matrix

  Nuclear Dipole Moment: [e a0]
     X:   -13.8515      Y:    -0.0365      Z:    -7.9586

  Electronic Dipole Moment: [e a0]
     X:    13.7539      Y:     0.0640      Z:     7.9606

  Dipole Moment: [e a0]
     X:    -0.0976      Y:     0.0275      Z:     0.0020     Total:     0.1014

  Dipole Moment: [D]
     X:    -0.2480      Y:     0.0699      Z:     0.0050     Total:     0.2577

*** tstop() called on ds3 at Mon Apr 27 06:41:12 2020
Module time:
	user time   =     107.53 seconds =       1.79 minutes
	system time =      47.51 seconds =       0.79 minutes
	total time  =        149 seconds =       2.48 minutes
Total time:
	user time   =     107.53 seconds =       1.79 minutes
	system time =      47.51 seconds =       0.79 minutes
	total time  =        149 seconds =       2.48 minutes
                                     G D M A

                                 by Anthony Stone

                           version 2.2.06, 22 June 2011

               Distributed Multipoles from Gaussian wavefunctions

Starting at 6:41:12 on 27 Apr 2020

Using SCF density matrix from file ./SSI/SSI-173PHE-176THR-1-dimer.test.15714.fchk

                         Distributed Multipole Analysis

Standard DMA

Positions and radii in angstrom
Multipole moments in atomic units, ea_0^k for rank k

C          x = -1.235908  y =  0.400627  z =  0.521099 angstrom
           Maximum rank =  0   Radius =  0.650 angstrom
                   Q00  =  -0.022156

C          x = -1.969908  y =  0.240627  z =  1.851099 angstrom
           Maximum rank =  0   Radius =  0.650 angstrom
                   Q00  =  -0.240719

C          x =  0.243092  y =  0.181627  z =  0.635099 angstrom
           Maximum rank =  0   Radius =  0.650 angstrom
                   Q00  =  -0.101246

C          x =  0.809092  y = -1.016373  z =  0.207099 angstrom
           Maximum rank =  0   Radius =  0.650 angstrom
                   Q00  =  -0.053925

C          x =  1.051092  y =  1.157627  z =  1.217099 angstrom
           Maximum rank =  0   Radius =  0.650 angstrom
                   Q00  =  -0.032167

C          x =  2.180092  y = -1.250373  z =  0.355099 angstrom
           Maximum rank =  0   Radius =  0.650 angstrom
                   Q00  =  -0.080864

C          x =  2.423092  y =  0.942627  z =  1.379099 angstrom
           Maximum rank =  0   Radius =  0.650 angstrom
                   Q00  =  -0.078310

C          x =  3.000092  y = -0.267373  z =  0.948099 angstrom
           Maximum rank =  0   Radius =  0.650 angstrom
                   Q00  =  -0.085986

H          x = -1.653908  y = -0.301373  z = -0.198901 angstrom
           Maximum rank =  0   Radius =  0.325 angstrom
                   Q00  =   0.064865

H          x = -1.408908  y =  1.406627  z =  0.139099 angstrom
           Maximum rank =  0   Radius =  0.325 angstrom
                   Q00  =   0.066638

H          x = -1.569908  y =  0.959627  z =  2.568099 angstrom
           Maximum rank =  0   Radius =  0.325 angstrom
                   Q00  =   0.083456

H          x =  0.188092  y = -1.776373  z = -0.243901 angstrom
           Maximum rank =  0   Radius =  0.325 angstrom
                   Q00  =   0.056801

H          x =  0.616092  y =  2.088627  z =  1.552099 angstrom
           Maximum rank =  0   Radius =  0.325 angstrom
                   Q00  =   0.056596

H          x =  2.612092  y = -2.180373  z =  0.014099 angstrom
           Maximum rank =  0   Radius =  0.325 angstrom
                   Q00  =   0.068122

H          x =  3.042092  y =  1.707627  z =  1.830099 angstrom
           Maximum rank =  0   Radius =  0.325 angstrom
                   Q00  =   0.067641

H          x =  4.062092  y = -0.437373  z =  1.066099 angstrom
           Maximum rank =  0   Radius =  0.325 angstrom
                   Q00  =   0.066217

H          x = -1.870158  y = -0.783913  z =  2.238865 angstrom
           Maximum rank =  0   Radius =  0.325 angstrom
                   Q00  =   0.084508

H          x = -3.042718  y =  0.431267  z =  1.700326 angstrom
           Maximum rank =  0   Radius =  0.325 angstrom
                   Q00  =   0.079880

C          x = -1.999908  y =  0.192627  z = -3.068901 angstrom
           Maximum rank =  0   Radius =  0.650 angstrom
                   Q00  =  -0.220453

C          x = -3.259908  y = -0.578373  z = -3.331901 angstrom
           Maximum rank =  0   Radius =  0.650 angstrom
                   Q00  =  -0.232883

H          x = -2.144908  y =  0.938627  z = -2.290901 angstrom
           Maximum rank =  0   Radius =  0.325 angstrom
                   Q00  =   0.078333

H          x = -1.219908  y = -0.496373  z = -2.745901 angstrom
           Maximum rank =  0   Radius =  0.325 angstrom
                   Q00  =   0.073643

H          x = -1.671908  y =  0.684627  z = -3.982901 angstrom
           Maximum rank =  0   Radius =  0.325 angstrom
                   Q00  =   0.076827

H          x = -3.051908  y = -1.366373  z = -4.050901 angstrom
           Maximum rank =  0   Radius =  0.325 angstrom
                   Q00  =   0.079943

H          x = -4.049428  y =  0.091347  z = -3.703567 angstrom
           Maximum rank =  0   Radius =  0.325 angstrom
                   Q00  =   0.075818

H          x = -3.612228  y = -1.005183  z = -2.381268 angstrom
           Maximum rank =  0   Radius =  0.325 angstrom
                   Q00  =   0.069421

Total multipoles referred to origin at
           x =   0.000000,  y =    0.000000,  z =    0.000000 angstrom
                   Q00  =  -0.000000

Finished at 6:41:12 on 27 Apr 2020

  DMA results are available in the Python driver through the
	  variable('DMA DISTRIBUTED MULTIPOLES')
  and
	  variable('DMA TOTAL MULTIPOLES')
  commands.

    Psi4 stopped on: Monday, 27 April 2020 06:41AM
    Psi4 wall time for execution: 0:02:29.53

*** Psi4 exiting successfully. Buy a developer a beer!
