                               Psi4 1.3.2 release

  ==> Input File <==

--------------------------------------------------------------------------
import numpy as np
set {scf_type pk
basis cc-pvdz
d_convergence 10
gdma_switch   0
gdma_limit    0
gdma_origin   [ 0.0,  0.0,  0.0 ]
}
molecule test {
    units Angstrom
    0 1
    --
    0 1
    C                1.619242164893443     2.575927028159920     2.882098634810236
    C                0.443242164893443     2.783927028159920     3.870098634810236
    H                2.499242164893443     3.124927028159920     3.220098634810236
    H                1.859242164893443     1.513927028159920     2.819098634810236
    H                1.328242164893443     2.924927028159920     1.892098634810236
    H               -0.415757835106557     2.223927028159920     3.502098634810236
    H                0.209112164893443     3.858047028159920     3.908279634810236
    H                0.711842164893443     2.414337028159920     4.870725634810236
    C                2.397242164893443    -0.544072971840080    -2.151901365189764
    C                0.128242164893443    -0.358072971840080    -0.865901365189764
    C                1.075242164893443    -1.085072971840080    -1.677901365189764
    C               -0.976757835106557    -1.215072971840080    -0.613901365189764
    C                0.544242164893443    -2.310072971840080    -1.884901365189764
    C               -1.019757835106557     1.352927028159920     0.436098634810236
    C               -2.090757835106557     0.466927028159920     0.664098634810236
    C                0.100242164893443     0.948927028159920    -0.332901365189764
    C               -2.091757835106557    -0.809072971840080     0.148098634810236
    N               -0.699757835106557    -2.399072971840080    -1.249901365189764
    H               -1.041757835106557     2.343927028159920     0.866098634810236
    H               -2.912757835106557     0.800927028159920     1.261098634810236
    H                0.926242164893443     1.623927028159920    -0.502901365189764
    H               -2.918757835106557    -1.479072971840080     0.326098634810236
    H                3.113242164893443    -1.362072971840080    -2.223901365189764
    H                2.773242164893443     0.140927028159920    -1.389901365189764
    H                1.013242164893443    -3.099072971840080    -2.460901365189764
    H               -1.309757835106557    -3.213072971840080    -1.246901365189764
    H                2.355842164893443    -0.000936971840080    -3.107563365189764

}
e, wfn = energy('scf', return_wfn=True)
gdma(wfn)
dmavals = variable('DMA DISTRIBUTED MULTIPOLES')
charges = np.array(dmavals)
print(charges)
np.save('SSI-169LEU-181TRP-1-dimer.npy', np.array(charges))--------------------------------------------------------------------------

*** tstart() called on ds3
*** at Tue Apr 28 21:38:11 2020

   => Loading Basis Set <=

    Name: CC-PVDZ
    Role: ORBITAL
    Keyword: BASIS
    atoms 1-2, 9-17  entry C          line   138 file /theoryfs2/ds/metcalf/miniconda2/envs/tf2gpu/share/psi4/basis/cc-pvdz.gbs
    atoms 3-8, 19-27 entry H          line    22 file /theoryfs2/ds/metcalf/miniconda2/envs/tf2gpu/share/psi4/basis/cc-pvdz.gbs
    atoms 18         entry N          line   168 file /theoryfs2/ds/metcalf/miniconda2/envs/tf2gpu/share/psi4/basis/cc-pvdz.gbs

         ---------------------------------------------------------
                                   SCF
               by Justin Turney, Rob Parrish, Andy Simmonett
                          and Daniel G. A. Smith
                              RHF Reference
                        1 Threads,    500 MiB Core
         ---------------------------------------------------------

  ==> Geometry <==

    Molecular point group: c1
    Full point group: C1

    Geometry (in Angstrom), charge = 0, multiplicity = 1:

       Center              X                  Y                   Z               Mass
    ------------   -----------------  -----------------  -----------------  -----------------
         C            1.619242164893     2.575927028160     2.882098634810    12.000000000000
         C            0.443242164893     2.783927028160     3.870098634810    12.000000000000
         H            2.499242164893     3.124927028160     3.220098634810     1.007825032230
         H            1.859242164893     1.513927028160     2.819098634810     1.007825032230
         H            1.328242164893     2.924927028160     1.892098634810     1.007825032230
         H           -0.415757835107     2.223927028160     3.502098634810     1.007825032230
         H            0.209112164893     3.858047028160     3.908279634810     1.007825032230
         H            0.711842164893     2.414337028160     4.870725634810     1.007825032230
         C            2.397242164893    -0.544072971840    -2.151901365190    12.000000000000
         C            0.128242164893    -0.358072971840    -0.865901365190    12.000000000000
         C            1.075242164893    -1.085072971840    -1.677901365190    12.000000000000
         C           -0.976757835107    -1.215072971840    -0.613901365190    12.000000000000
         C            0.544242164893    -2.310072971840    -1.884901365190    12.000000000000
         C           -1.019757835107     1.352927028160     0.436098634810    12.000000000000
         C           -2.090757835107     0.466927028160     0.664098634810    12.000000000000
         C            0.100242164893     0.948927028160    -0.332901365190    12.000000000000
         C           -2.091757835107    -0.809072971840     0.148098634810    12.000000000000
         N           -0.699757835107    -2.399072971840    -1.249901365190    14.003074004430
         H           -1.041757835107     2.343927028160     0.866098634810     1.007825032230
         H           -2.912757835107     0.800927028160     1.261098634810     1.007825032230
         H            0.926242164893     1.623927028160    -0.502901365190     1.007825032230
         H           -2.918757835107    -1.479072971840     0.326098634810     1.007825032230
         H            3.113242164893    -1.362072971840    -2.223901365190     1.007825032230
         H            2.773242164893     0.140927028160    -1.389901365190     1.007825032230
         H            1.013242164893    -3.099072971840    -2.460901365190     1.007825032230
         H           -1.309757835107    -3.213072971840    -1.246901365190     1.007825032230
         H            2.355842164893    -0.000936971840    -3.107563365190     1.007825032230

  Running in c1 symmetry.

  Rotational constants: A =      0.04322  B =      0.01661  C =      0.01307 [cm^-1]
  Rotational constants: A =   1295.63000  B =    497.98055  C =    391.82178 [MHz]
  Nuclear repulsion =  645.609634680359818

  Charge       = 0
  Multiplicity = 1
  Electrons    = 88
  Nalpha       = 44
  Nbeta        = 44

  ==> Algorithm <==

  SCF Algorithm Type is PK.
  DIIS enabled.
  MOM disabled.
  Fractional occupation disabled.
  Guess Type is SAD.
  Energy threshold   = 1.00e-06
  Density threshold  = 1.00e-10
  Integral threshold = 0.00e+00

  ==> Primary Basis <==

  Basis Set: CC-PVDZ
    Blend: CC-PVDZ
    Number of shells: 117
    Number of basis function: 243
    Number of Cartesian functions: 255
    Spherical Harmonics?: true
    Max angular momentum: 2

  ==> Pre-Iterations <==

   -------------------------------------------------------
    Irrep   Nso     Nmo     Nalpha   Nbeta   Ndocc  Nsocc
   -------------------------------------------------------
     A        243     243       0       0       0       0
   -------------------------------------------------------
    Total     243     243      44      44      44       0
   -------------------------------------------------------

  ==> Integral Setup <==

  Using integral reordering PK algorithm.
  Sizing the integral batches needed.
  Building batch lookup table.
   Calculation information:
      Number of atoms:                  27
      Number of AO shells:             117
      Number of primitives:            339
      Number of atomic orbitals:       255
      Number of basis functions:       243

      Integral cutoff                 1.00e-12
      Number of threads:                 1

	Batch   1 pq = [       0,    9405] index = [             0,44231715] size =     44231715
	Batch   2 pq = [    9405,   13301] index = [      44231715,88464951] size =     44233236
	Batch   3 pq = [   13301,   16290] index = [      88464951,132690195] size =     44225244
	Batch   4 pq = [   16290,   18810] index = [     132690195,176917455] size =     44227260
	Batch   5 pq = [   18810,   21030] index = [     176917455,221140965] size =     44223510
	Batch   6 pq = [   21030,   23037] index = [     221140965,265363203] size =     44222238
	Batch   7 pq = [   23037,   24883] index = [     265363203,309594286] size =     44231083
	Batch   8 pq = [   24883,   26601] index = [     309594286,353819901] size =     44225615
	Batch   9 pq = [   26601,   28214] index = [     353819901,398029005] size =     44209104
	Batch  10 pq = [   28214,   29646] index = [     398029005,439457481] size =     41428476
  Task number: 40
  Buffer size: 11059200
  Buffer per thread: 2
  We computed 21761886 shell quartets total.
  Whereas there are 23829156 unique shell quartets.

  ==> DiskJK: Disk-Based J/K Matrices <==

    J tasked:                  Yes
    K tasked:                  Yes
    wK tasked:                  No
    Memory [MiB]:              375
    Schwarz Cutoff:          1E-12

    OpenMP threads:              1

  Minimum eigenvalue in the overlap matrix is 2.5669426933E-04.
  Using Symmetric Orthogonalization.

  SCF Guess: Superposition of Atomic Densities via on-the-fly atomic UHF.

  ==> Iterations <==

                        Total Energy        Delta E     RMS |[F,P]|

   @RHF iter SAD:  -478.84141207779237   -4.78841e+02   0.00000e+00
   @RHF iter   1:  -479.49329906971633   -6.51887e-01   2.56950e-03 DIIS
   @RHF iter   2:  -479.72142906074112   -2.28130e-01   1.13319e-03 DIIS
   @RHF iter   3:  -479.76169650574161   -4.02674e-02   2.98635e-04 DIIS
   @RHF iter   4:  -479.76543813539001   -3.74163e-03   1.37065e-04 DIIS
   @RHF iter   5:  -479.76606448568975   -6.26350e-04   2.00036e-05 DIIS
   @RHF iter   6:  -479.76609439435271   -2.99087e-05   9.36283e-06 DIIS
   @RHF iter   7:  -479.76610069654430   -6.30219e-06   3.95427e-06 DIIS
   @RHF iter   8:  -479.76610259568753   -1.89914e-06   1.56261e-06 DIIS
   @RHF iter   9:  -479.76610296157401   -3.65886e-07   6.99558e-07 DIIS
   @RHF iter  10:  -479.76610303716200   -7.55880e-08   3.27255e-07 DIIS
   @RHF iter  11:  -479.76610305543670   -1.82747e-08   1.20122e-07 DIIS
   @RHF iter  12:  -479.76610305788552   -2.44881e-09   4.06273e-08 DIIS
   @RHF iter  13:  -479.76610305805787   -1.72349e-10   1.21422e-08 DIIS
   @RHF iter  14:  -479.76610305806730   -9.43601e-12   5.12701e-09 DIIS
   @RHF iter  15:  -479.76610305806895   -1.64846e-12   2.10833e-09 DIIS
   @RHF iter  16:  -479.76610305807048   -1.53477e-12   9.16771e-10 DIIS
   @RHF iter  17:  -479.76610305806940    1.08002e-12   4.07847e-10 DIIS
   @RHF iter  18:  -479.76610305806838    1.02318e-12   1.61625e-10 DIIS
   @RHF iter  19:  -479.76610305806958   -1.19371e-12   5.83915e-11 DIIS
  Energy and wave function converged.

  ==> Post-Iterations <==

    Orbital Energies [Eh]
    ---------------------

    Doubly Occupied:

       1A    -15.601386     2A    -11.267662     3A    -11.265602
       4A    -11.236437     5A    -11.231815     6A    -11.229679
       7A    -11.228641     8A    -11.224422     9A    -11.222262
      10A    -11.220725    11A    -11.214768    12A    -11.211660
      13A     -1.287519    14A     -1.122300    15A     -1.073388
      16A     -1.007306    17A     -0.992355    18A     -0.985186
      19A     -0.933459    20A     -0.838241    21A     -0.830812
      22A     -0.801746    23A     -0.750419    24A     -0.717030
      25A     -0.662966    26A     -0.643085    27A     -0.601328
      28A     -0.593697    29A     -0.590587    30A     -0.588666
      31A     -0.584044    32A     -0.568470    33A     -0.551669
      34A     -0.538092    35A     -0.527066    36A     -0.496839
      37A     -0.487211    38A     -0.482728    39A     -0.480907
      40A     -0.470498    41A     -0.457421    42A     -0.372920
      43A     -0.291270    44A     -0.279889

    Virtual:

      45A      0.122963    46A      0.164897    47A      0.178644
      48A      0.182335    49A      0.194001    50A      0.211367
      51A      0.216879    52A      0.224126    53A      0.234814
      54A      0.248285    55A      0.250217    56A      0.269996
      57A      0.272184    58A      0.280729    59A      0.290976
      60A      0.301793    61A      0.309771    62A      0.341982
      63A      0.370521    64A      0.379430    65A      0.390179
      66A      0.400971    67A      0.420329    68A      0.443705
      69A      0.472223    70A      0.477208    71A      0.506524
      72A      0.510401    73A      0.584063    74A      0.601489
      75A      0.610461    76A      0.614653    77A      0.618033
      78A      0.633187    79A      0.639773    80A      0.661385
      81A      0.669137    82A      0.690335    83A      0.701054
      84A      0.702585    85A      0.714777    86A      0.731223
      87A      0.734567    88A      0.741857    89A      0.743620
      90A      0.758773    91A      0.769444    92A      0.782856
      93A      0.791734    94A      0.794080    95A      0.808360
      96A      0.838234    97A      0.849217    98A      0.864499
      99A      0.868464   100A      0.877222   101A      0.886032
     102A      0.889800   103A      0.894011   104A      0.902447
     105A      0.909774   106A      0.919096   107A      0.921237
     108A      0.937273   109A      0.949317   110A      0.953868
     111A      0.966579   112A      0.974102   113A      0.981885
     114A      0.992407   115A      1.002068   116A      1.013391
     117A      1.057776   118A      1.074514   119A      1.084117
     120A      1.118906   121A      1.127935   122A      1.131903
     123A      1.143127   124A      1.143442   125A      1.155473
     126A      1.176711   127A      1.206605   128A      1.221904
     129A      1.226222   130A      1.233320   131A      1.238467
     132A      1.265840   133A      1.275519   134A      1.284239
     135A      1.291327   136A      1.322386   137A      1.327746
     138A      1.358409   139A      1.366560   140A      1.419973
     141A      1.442807   142A      1.478006   143A      1.488487
     144A      1.514638   145A      1.546409   146A      1.568503
     147A      1.574413   148A      1.595543   149A      1.623400
     150A      1.641877   151A      1.650855   152A      1.684910
     153A      1.687914   154A      1.696684   155A      1.704148
     156A      1.733820   157A      1.762143   158A      1.764493
     159A      1.784110   160A      1.810702   161A      1.820690
     162A      1.829090   163A      1.866675   164A      1.871834
     165A      1.887873   166A      1.892445   167A      1.894905
     168A      1.902305   169A      1.905907   170A      1.922113
     171A      1.927936   172A      1.935988   173A      1.948292
     174A      1.950131   175A      1.955654   176A      1.957269
     177A      1.963744   178A      1.973630   179A      1.984667
     180A      1.990682   181A      2.006486   182A      2.007797
     183A      2.040873   184A      2.068670   185A      2.076501
     186A      2.080601   187A      2.091486   188A      2.100291
     189A      2.111226   190A      2.116302   191A      2.127537
     192A      2.140216   193A      2.156989   194A      2.166745
     195A      2.173685   196A      2.221779   197A      2.263428
     198A      2.281316   199A      2.287212   200A      2.303380
     201A      2.309129   202A      2.314339   203A      2.334926
     204A      2.344255   205A      2.395899   206A      2.400818
     207A      2.443565   208A      2.456345   209A      2.464427
     210A      2.471542   211A      2.529669   212A      2.568291
     213A      2.580584   214A      2.582867   215A      2.587538
     216A      2.622739   217A      2.645980   218A      2.672203
     219A      2.701570   220A      2.762970   221A      2.772580
     222A      2.775592   223A      2.781656   224A      2.794227
     225A      2.806100   226A      2.819991   227A      2.842629
     228A      2.850727   229A      2.853056   230A      2.876019
     231A      2.904951   232A      2.953244   233A      2.957623
     234A      2.971990   235A      3.024380   236A      3.028026
     237A      3.065774   238A      3.099683   239A      3.190489
     240A      3.284088   241A      3.356486   242A      3.717913
     243A      3.924682

    Final Occupation by Irrep:
              A
    DOCC [    44 ]

  @RHF Final Energy:  -479.76610305806958

   => Energetics <=

    Nuclear Repulsion Energy =            645.6096346803598180
    One-Electron Energy =               -1929.2231280069420336
    Two-Electron Energy =                 803.8473902685125267
    Total Energy =                       -479.7661030580695751

Computation Completed

Properties will be evaluated at   0.000000,   0.000000,   0.000000 [a0]

Properties computed using the SCF density matrix

  Nuclear Dipole Moment: [e a0]
     X:     7.6806      Y:    11.0837      Z:    11.0035

  Electronic Dipole Moment: [e a0]
     X:    -7.7543      Y:   -11.8731      Z:   -11.2913

  Dipole Moment: [e a0]
     X:    -0.0738      Y:    -0.7894      Z:    -0.2878     Total:     0.8434

  Dipole Moment: [D]
     X:    -0.1875      Y:    -2.0065      Z:    -0.7314     Total:     2.1438

*** tstop() called on ds3 at Tue Apr 28 21:42:13 2020
Module time:
	user time   =     178.29 seconds =       2.97 minutes
	system time =      71.39 seconds =       1.19 minutes
	total time  =        242 seconds =       4.03 minutes
Total time:
	user time   =     178.29 seconds =       2.97 minutes
	system time =      71.39 seconds =       1.19 minutes
	total time  =        242 seconds =       4.03 minutes
                                     G D M A

                                 by Anthony Stone

                           version 2.2.06, 22 June 2011

               Distributed Multipoles from Gaussian wavefunctions

Starting at 21:42:13 on 28 Apr 2020

Using SCF density matrix from file ./SSI/SSI-169LEU-181TRP-1-dimer.test.3523.fchk

                         Distributed Multipole Analysis

Standard DMA

Positions and radii in angstrom
Multipole moments in atomic units, ea_0^k for rank k

C          x =  1.619242  y =  2.575927  z =  2.882099 angstrom
           Maximum rank =  0   Radius =  0.650 angstrom
                   Q00  =  -0.240223

C          x =  0.443242  y =  2.783927  z =  3.870099 angstrom
           Maximum rank =  0   Radius =  0.650 angstrom
                   Q00  =  -0.238177

H          x =  2.499242  y =  3.124927  z =  3.220099 angstrom
           Maximum rank =  0   Radius =  0.325 angstrom
                   Q00  =   0.076009

H          x =  1.859242  y =  1.513927  z =  2.819099 angstrom
           Maximum rank =  0   Radius =  0.325 angstrom
                   Q00  =   0.086001

H          x =  1.328242  y =  2.924927  z =  1.892099 angstrom
           Maximum rank =  0   Radius =  0.325 angstrom
                   Q00  =   0.077999

H          x = -0.415758  y =  2.223927  z =  3.502099 angstrom
           Maximum rank =  0   Radius =  0.325 angstrom
                   Q00  =   0.084347

H          x =  0.209112  y =  3.858047  z =  3.908280 angstrom
           Maximum rank =  0   Radius =  0.325 angstrom
                   Q00  =   0.074758

H          x =  0.711842  y =  2.414337  z =  4.870726 angstrom
           Maximum rank =  0   Radius =  0.325 angstrom
                   Q00  =   0.080672

C          x =  2.397242  y = -0.544073  z = -2.151901 angstrom
           Maximum rank =  0   Radius =  0.650 angstrom
                   Q00  =  -0.217387

C          x =  0.128242  y = -0.358073  z = -0.865901 angstrom
           Maximum rank =  0   Radius =  0.650 angstrom
                   Q00  =  -0.061100

C          x =  1.075242  y = -1.085073  z = -1.677901 angstrom
           Maximum rank =  0   Radius =  0.650 angstrom
                   Q00  =  -0.108248

C          x = -0.976758  y = -1.215073  z = -0.613901 angstrom
           Maximum rank =  0   Radius =  0.650 angstrom
                   Q00  =   0.270493

C          x =  0.544242  y = -2.310073  z = -1.884901 angstrom
           Maximum rank =  0   Radius =  0.650 angstrom
                   Q00  =   0.076253

C          x = -1.019758  y =  1.352927  z =  0.436099 angstrom
           Maximum rank =  0   Radius =  0.650 angstrom
                   Q00  =  -0.112891

C          x = -2.090758  y =  0.466927  z =  0.664099 angstrom
           Maximum rank =  0   Radius =  0.650 angstrom
                   Q00  =  -0.028380

C          x =  0.100242  y =  0.948927  z = -0.332901 angstrom
           Maximum rank =  0   Radius =  0.650 angstrom
                   Q00  =  -0.101650

C          x = -2.091758  y = -0.809073  z =  0.148099 angstrom
           Maximum rank =  0   Radius =  0.650 angstrom
                   Q00  =  -0.117952

N          x = -0.699758  y = -2.399073  z = -1.249901 angstrom
           Maximum rank =  0   Radius =  0.650 angstrom
                   Q00  =  -0.505965

H          x = -1.041758  y =  2.343927  z =  0.866099 angstrom
           Maximum rank =  0   Radius =  0.325 angstrom
                   Q00  =   0.062958

H          x = -2.912758  y =  0.800927  z =  1.261099 angstrom
           Maximum rank =  0   Radius =  0.325 angstrom
                   Q00  =   0.065055

H          x =  0.926242  y =  1.623927  z = -0.502901 angstrom
           Maximum rank =  0   Radius =  0.325 angstrom
                   Q00  =   0.075471

H          x = -2.918758  y = -1.479073  z =  0.326099 angstrom
           Maximum rank =  0   Radius =  0.325 angstrom
                   Q00  =   0.071614

H          x =  3.113242  y = -1.362073  z = -2.223901 angstrom
           Maximum rank =  0   Radius =  0.325 angstrom
                   Q00  =   0.105050

H          x =  2.773242  y =  0.140927  z = -1.389901 angstrom
           Maximum rank =  0   Radius =  0.325 angstrom
                   Q00  =   0.103476

H          x =  1.013242  y = -3.099073  z = -2.460901 angstrom
           Maximum rank =  0   Radius =  0.325 angstrom
                   Q00  =   0.103228

H          x = -1.309758  y = -3.213073  z = -1.246901 angstrom
           Maximum rank =  0   Radius =  0.325 angstrom
                   Q00  =   0.216407

H          x =  2.355842  y = -0.000937  z = -3.107563 angstrom
           Maximum rank =  0   Radius =  0.325 angstrom
                   Q00  =   0.102182

Total multipoles referred to origin at
           x =   0.000000,  y =    0.000000,  z =    0.000000 angstrom
                   Q00  =  -0.000000

Finished at 21:42:13 on 28 Apr 2020

  DMA results are available in the Python driver through the
	  variable('DMA DISTRIBUTED MULTIPOLES')
  and
	  variable('DMA TOTAL MULTIPOLES')
  commands.

    Psi4 stopped on: Tuesday, 28 April 2020 09:42PM
    Psi4 wall time for execution: 0:04:02.15

*** Psi4 exiting successfully. Buy a developer a beer!
