                               Psi4 1.3.2 release

  ==> Input File <==

--------------------------------------------------------------------------
import numpy as np
set {scf_type pk
basis cc-pvdz
d_convergence 10
gdma_switch   0
gdma_limit    0
gdma_origin   [ 0.0,  0.0,  0.0 ]
}
molecule test {
    units Angstrom
    0 1
    --
    0 1
    C                1.111526592801820    -0.103478594665176     1.216248429287583
    C                2.627526592801821    -0.177478594665176     1.429248429287583
    H                0.593526592801820    -0.520478594665176     2.080248429287583
    H                0.804526592801820     0.934521405334824     1.079248429287583
    H                0.840526592801820    -0.684478594665176     0.333248429287583
    H                3.099526592801821     0.286521405334824     0.571248429287583
    H                2.924306592801821    -1.235846594665176     1.471438429287584
    H                2.916066592801820     0.384252405334824     2.329918429287584
    C               -1.436473407198180     0.741521405334824    -1.127751570712417
    C               -2.304473407198180    -0.458478594665176    -1.515751570712417
    H               -1.713473407198180     1.100521405334824    -0.136751570712417
    H               -0.387473407198180     0.458521405334824    -1.124751570712417
    H               -1.565473407198180     1.547521405334824    -1.849751570712417
    H               -2.199473407198179    -1.211478594665176    -0.733751570712417
    H               -3.364595407198180    -0.176872594665176    -1.598451570712417
    H               -1.925443407198180    -0.907537594665176    -2.445631570712417

}
e, wfn = energy('scf', return_wfn=True)
gdma(wfn)
dmavals = variable('DMA DISTRIBUTED MULTIPOLES')
charges = np.array(dmavals)
print(charges)
np.save('SSI-012LEU-074VAL-1-dimer.npy', np.array(charges))--------------------------------------------------------------------------

*** tstart() called on ds3
*** at Tue Apr 28 01:29:20 2020

   => Loading Basis Set <=

    Name: CC-PVDZ
    Role: ORBITAL
    Keyword: BASIS
    atoms 1-2, 9-10  entry C          line   138 file /theoryfs2/ds/metcalf/miniconda2/envs/tf2gpu/share/psi4/basis/cc-pvdz.gbs
    atoms 3-8, 11-16 entry H          line    22 file /theoryfs2/ds/metcalf/miniconda2/envs/tf2gpu/share/psi4/basis/cc-pvdz.gbs

         ---------------------------------------------------------
                                   SCF
               by Justin Turney, Rob Parrish, Andy Simmonett
                          and Daniel G. A. Smith
                              RHF Reference
                        1 Threads,    500 MiB Core
         ---------------------------------------------------------

  ==> Geometry <==

    Molecular point group: c1
    Full point group: C1

    Geometry (in Angstrom), charge = 0, multiplicity = 1:

       Center              X                  Y                   Z               Mass
    ------------   -----------------  -----------------  -----------------  -----------------
         C            1.111526592802    -0.103478594665     1.216248429288    12.000000000000
         C            2.627526592802    -0.177478594665     1.429248429288    12.000000000000
         H            0.593526592802    -0.520478594665     2.080248429288     1.007825032230
         H            0.804526592802     0.934521405335     1.079248429288     1.007825032230
         H            0.840526592802    -0.684478594665     0.333248429288     1.007825032230
         H            3.099526592802     0.286521405335     0.571248429288     1.007825032230
         H            2.924306592802    -1.235846594665     1.471438429288     1.007825032230
         H            2.916066592802     0.384252405335     2.329918429288     1.007825032230
         C           -1.436473407198     0.741521405335    -1.127751570712    12.000000000000
         C           -2.304473407198    -0.458478594665    -1.515751570712    12.000000000000
         H           -1.713473407198     1.100521405335    -0.136751570712     1.007825032230
         H           -0.387473407198     0.458521405335    -1.124751570712     1.007825032230
         H           -1.565473407198     1.547521405335    -1.849751570712     1.007825032230
         H           -2.199473407198    -1.211478594665    -0.733751570712     1.007825032230
         H           -3.364595407198    -0.176872594665    -1.598451570712     1.007825032230
         H           -1.925443407198    -0.907537594665    -2.445631570712     1.007825032230

  Running in c1 symmetry.

  Rotational constants: A =      0.57829  B =      0.04775  C =      0.04655 [cm^-1]
  Rotational constants: A =  17336.71197  B =   1431.45417  C =   1395.50664 [MHz]
  Nuclear repulsion =  122.631232189447317

  Charge       = 0
  Multiplicity = 1
  Electrons    = 36
  Nalpha       = 18
  Nbeta        = 18

  ==> Algorithm <==

  SCF Algorithm Type is PK.
  DIIS enabled.
  MOM disabled.
  Fractional occupation disabled.
  Guess Type is SAD.
  Energy threshold   = 1.00e-06
  Density threshold  = 1.00e-10
  Integral threshold = 0.00e+00

  ==> Primary Basis <==

  Basis Set: CC-PVDZ
    Blend: CC-PVDZ
    Number of shells: 60
    Number of basis function: 116
    Number of Cartesian functions: 120
    Spherical Harmonics?: true
    Max angular momentum: 2

  ==> Pre-Iterations <==

   -------------------------------------------------------
    Irrep   Nso     Nmo     Nalpha   Nbeta   Ndocc  Nsocc
   -------------------------------------------------------
     A        116     116       0       0       0       0
   -------------------------------------------------------
    Total     116     116      18      18      18       0
   -------------------------------------------------------

  ==> Integral Setup <==

  Using integral reordering PK algorithm.
  Sizing the integral batches needed.
  Building batch lookup table.
   Calculation information:
      Number of atoms:                  16
      Number of AO shells:              60
      Number of primitives:            148
      Number of atomic orbitals:       120
      Number of basis functions:       116

      Integral cutoff                 1.00e-12
      Number of threads:                 1

	Batch   1 pq = [       0,    6786] index = [             0,23028291] size =     23028291
  Task number: 3
  Buffer size: 11059200
  Buffer per thread: 2
  We computed 1428465 shell quartets total.
  Whereas there are 1675365 unique shell quartets.

  ==> DiskJK: Disk-Based J/K Matrices <==

    J tasked:                  Yes
    K tasked:                  Yes
    wK tasked:                  No
    Memory [MiB]:              375
    Schwarz Cutoff:          1E-12

    OpenMP threads:              1

  Minimum eigenvalue in the overlap matrix is 7.1555815474E-03.
  Using Symmetric Orthogonalization.

  SCF Guess: Superposition of Atomic Densities via on-the-fly atomic UHF.

  ==> Iterations <==

                        Total Energy        Delta E     RMS |[F,P]|

   @RHF iter SAD:  -157.35900199354523   -1.57359e+02   0.00000e+00
   @RHF iter   1:  -158.30590765833415   -9.46906e-01   4.20332e-03 DIIS
   @RHF iter   2:  -158.43932205263741   -1.33414e-01   1.77828e-03 DIIS
   @RHF iter   3:  -158.46232503989998   -2.30030e-02   3.49529e-04 DIIS
   @RHF iter   4:  -158.46415449748733   -1.82946e-03   3.88769e-05 DIIS
   @RHF iter   5:  -158.46417827352704   -2.37760e-05   6.70087e-06 DIIS
   @RHF iter   6:  -158.46417892920940   -6.55682e-07   1.19547e-06 DIIS
   @RHF iter   7:  -158.46417894312003   -1.39106e-08   3.20700e-07 DIIS
   @RHF iter   8:  -158.46417894406460   -9.44567e-10   4.06086e-08 DIIS
   @RHF iter   9:  -158.46417894408978   -2.51816e-11   8.67725e-09 DIIS
   @RHF iter  10:  -158.46417894409069   -9.09495e-13   2.21511e-09 DIIS
   @RHF iter  11:  -158.46417894409089   -1.98952e-13   7.05485e-10 DIIS
   @RHF iter  12:  -158.46417894409100   -1.13687e-13   1.84632e-10 DIIS
   @RHF iter  13:  -158.46417894409100    0.00000e+00   2.50690e-11 DIIS
  Energy and wave function converged.

  ==> Post-Iterations <==

    Orbital Energies [Eh]
    ---------------------

    Doubly Occupied:

       1A    -11.218923     2A    -11.218808     3A    -11.216540
       4A    -11.214345     5A     -1.019443     6A     -1.015686
       7A     -0.839650     8A     -0.832309     9A     -0.604297
      10A     -0.600928    11A     -0.596337    12A     -0.591786
      13A     -0.503737    14A     -0.494862    15A     -0.491165
      16A     -0.487987    17A     -0.482902    18A     -0.476362

    Virtual:

      19A      0.175098    20A      0.194626    21A      0.224658
      22A      0.238374    23A      0.247296    24A      0.260465
      25A      0.262331    26A      0.275685    27A      0.282056
      28A      0.288840    29A      0.294966    30A      0.339893
      31A      0.394277    32A      0.401734    33A      0.567744
      34A      0.600212    35A      0.602728    36A      0.605594
      37A      0.614009    38A      0.624746    39A      0.673074
      40A      0.690751    41A      0.695506    42A      0.791765
      43A      0.845552    44A      0.864801    45A      0.883111
      46A      0.893052    47A      0.894002    48A      0.894810
      49A      0.900215    50A      0.910957    51A      0.916017
      52A      0.918258    53A      0.943672    54A      0.951625
      55A      0.967843    56A      0.989353    57A      1.124176
      58A      1.124910    59A      1.133170    60A      1.177320
      61A      1.228098    62A      1.255056    63A      1.464925
      64A      1.474124    65A      1.484914    66A      1.494983
      67A      1.561166    68A      1.593383    69A      1.673167
      70A      1.680278    71A      1.685625    72A      1.712261
      73A      1.846936    74A      1.859303    75A      1.880871
      76A      1.886445    77A      1.903634    78A      1.921326
      79A      1.935654    80A      1.938986    81A      1.943856
      82A      1.946909    83A      1.953939    84A      1.956943
      85A      1.969808    86A      1.974397    87A      1.981641
      88A      2.028904    89A      2.092161    90A      2.104311
      91A      2.120821    92A      2.135702    93A      2.285540
      94A      2.295925    95A      2.305469    96A      2.330997
      97A      2.441163    98A      2.465306    99A      2.471110
     100A      2.476994   101A      2.560240   102A      2.566427
     103A      2.576765   104A      2.587776   105A      2.758404
     106A      2.768277   107A      2.787952   108A      2.797713
     109A      2.834335   110A      2.843986   111A      2.849640
     112A      2.866485   113A      2.939119   114A      2.947255
     115A      2.970791   116A      2.982705

    Final Occupation by Irrep:
              A
    DOCC [    18 ]

  @RHF Final Energy:  -158.46417894409100

   => Energetics <=

    Nuclear Repulsion Energy =            122.6312321894473172
    One-Electron Energy =                -454.3786923149750692
    Two-Electron Energy =                 173.2832811814367631
    Total Energy =                       -158.4641789440910031

Computation Completed

Properties will be evaluated at   0.000000,   0.000000,   0.000000 [a0]

Properties computed using the SCF density matrix

  Nuclear Dipole Moment: [e a0]
     X:     0.0211      Y:    -0.0233      Z:    -0.0223

  Electronic Dipole Moment: [e a0]
     X:    -0.0046      Y:     0.0281      Z:     0.0288

  Dipole Moment: [e a0]
     X:     0.0166      Y:     0.0048      Z:     0.0066     Total:     0.0185

  Dipole Moment: [D]
     X:     0.0422      Y:     0.0123      Z:     0.0167     Total:     0.0470

*** tstop() called on ds3 at Tue Apr 28 01:29:30 2020
Module time:
	user time   =       7.27 seconds =       0.12 minutes
	system time =       2.68 seconds =       0.04 minutes
	total time  =         10 seconds =       0.17 minutes
Total time:
	user time   =       7.27 seconds =       0.12 minutes
	system time =       2.68 seconds =       0.04 minutes
	total time  =         10 seconds =       0.17 minutes
                                     G D M A

                                 by Anthony Stone

                           version 2.2.06, 22 June 2011

               Distributed Multipoles from Gaussian wavefunctions

Starting at 1:29:30 on 28 Apr 2020

Using SCF density matrix from file ./SSI/SSI-012LEU-074VAL-1-dimer.test.8632.fchk

                         Distributed Multipole Analysis

Standard DMA

Positions and radii in angstrom
Multipole moments in atomic units, ea_0^k for rank k

C          x =  1.111527  y = -0.103479  z =  1.216248 angstrom
           Maximum rank =  0   Radius =  0.650 angstrom
                   Q00  =  -0.236272

C          x =  2.627527  y = -0.177479  z =  1.429248 angstrom
           Maximum rank =  0   Radius =  0.650 angstrom
                   Q00  =  -0.233641

H          x =  0.593527  y = -0.520479  z =  2.080248 angstrom
           Maximum rank =  0   Radius =  0.325 angstrom
                   Q00  =   0.078374

H          x =  0.804527  y =  0.934521  z =  1.079248 angstrom
           Maximum rank =  0   Radius =  0.325 angstrom
                   Q00  =   0.079188

H          x =  0.840527  y = -0.684479  z =  0.333248 angstrom
           Maximum rank =  0   Radius =  0.325 angstrom
                   Q00  =   0.075812

H          x =  3.099527  y =  0.286521  z =  0.571248 angstrom
           Maximum rank =  0   Radius =  0.325 angstrom
                   Q00  =   0.077722

H          x =  2.924307  y = -1.235847  z =  1.471438 angstrom
           Maximum rank =  0   Radius =  0.325 angstrom
                   Q00  =   0.078927

H          x =  2.916067  y =  0.384252  z =  2.329918 angstrom
           Maximum rank =  0   Radius =  0.325 angstrom
                   Q00  =   0.080847

C          x = -1.436473  y =  0.741521  z = -1.127752 angstrom
           Maximum rank =  0   Radius =  0.650 angstrom
                   Q00  =  -0.235343

C          x = -2.304473  y = -0.458479  z = -1.515752 angstrom
           Maximum rank =  0   Radius =  0.650 angstrom
                   Q00  =  -0.237857

H          x = -1.713473  y =  1.100521  z = -0.136752 angstrom
           Maximum rank =  0   Radius =  0.325 angstrom
                   Q00  =   0.078816

H          x = -0.387473  y =  0.458521  z = -1.124752 angstrom
           Maximum rank =  0   Radius =  0.325 angstrom
                   Q00  =   0.081402

H          x = -1.565473  y =  1.547521  z = -1.849752 angstrom
           Maximum rank =  0   Radius =  0.325 angstrom
                   Q00  =   0.076291

H          x = -2.199473  y = -1.211479  z = -0.733752 angstrom
           Maximum rank =  0   Radius =  0.325 angstrom
                   Q00  =   0.075673

H          x = -3.364595  y = -0.176873  z = -1.598452 angstrom
           Maximum rank =  0   Radius =  0.325 angstrom
                   Q00  =   0.082143

H          x = -1.925443  y = -0.907538  z = -2.445632 angstrom
           Maximum rank =  0   Radius =  0.325 angstrom
                   Q00  =   0.077918

Total multipoles referred to origin at
           x =   0.000000,  y =    0.000000,  z =    0.000000 angstrom
                   Q00  =  -0.000000

Finished at 1:29:30 on 28 Apr 2020

  DMA results are available in the Python driver through the
	  variable('DMA DISTRIBUTED MULTIPOLES')
  and
	  variable('DMA TOTAL MULTIPOLES')
  commands.

    Psi4 stopped on: Tuesday, 28 April 2020 01:29AM
    Psi4 wall time for execution: 0:00:09.81

*** Psi4 exiting successfully. Buy a developer a beer!
