                               Psi4 1.3.2 release

  ==> Input File <==

--------------------------------------------------------------------------
import numpy as np
set {scf_type pk
basis cc-pvdz
d_convergence 10
gdma_switch   0
gdma_limit    0
gdma_origin   [ 0.0,  0.0,  0.0 ]
}
molecule test {
    units Angstrom
    1 1
    --
    1 1
    C               -1.974540949865131     1.062823504553971    -2.139635692288530
    C               -0.712540949865131     1.457823504553971    -2.950635692288530
    H               -2.868540949865132     1.316823504553971    -2.712635692288530
    H               -1.979540949865131    -0.011176495446029    -1.941635692288530
    H               -2.017540949865131     1.602823504553971    -1.193635692288530
    H                0.150459050134869     1.066823504553971    -2.421635692288530
    H               -0.559146949865131     2.546993504553971    -2.963846692288530
    H               -0.704690949865131     0.937563504553971    -3.919792692288530
    C                1.140459050134869    -2.357176495446029     1.384364307711470
    C                0.392459050134869    -0.061176495446029     0.935364307711470
    N                0.184459050134869     0.900823504553971     0.065364307711470
    N                0.812459050134869    -1.241176495446029     0.506364307711470
    N                0.204459050134869     0.169823504553971     2.225364307711470
    H                0.621459050134869     0.839823504553971    -0.832635692288530
    H               -0.195540949865131     1.785823504553971     0.383364307711470
    H                0.797459050134869    -1.426176495446029    -0.485635692288530
    H                0.283459050134869    -0.584176495446029     2.887364307711469
    H               -0.147540949865131     1.060823504553971     2.541364307711470
    H                1.168459050134869    -3.271176495446029     0.785364307711470
    H                0.373459050134869    -2.497176495446029     2.150364307711470
    H                2.127864050134869    -2.216216495446029     1.848221307711470

}
e, wfn = energy('scf', return_wfn=True)
gdma(wfn)
dmavals = variable('DMA DISTRIBUTED MULTIPOLES')
charges = np.array(dmavals)
print(charges)
np.save('SSI-035ALA-067ARG-1-dimer.npy', np.array(charges))--------------------------------------------------------------------------

*** tstart() called on ds3
*** at Sun Apr 26 21:35:30 2020

   => Loading Basis Set <=

    Name: CC-PVDZ
    Role: ORBITAL
    Keyword: BASIS
    atoms 1-2, 9-10  entry C          line   138 file /theoryfs2/ds/metcalf/miniconda2/envs/tf2gpu/share/psi4/basis/cc-pvdz.gbs
    atoms 3-8, 14-21 entry H          line    22 file /theoryfs2/ds/metcalf/miniconda2/envs/tf2gpu/share/psi4/basis/cc-pvdz.gbs
    atoms 11-13      entry N          line   168 file /theoryfs2/ds/metcalf/miniconda2/envs/tf2gpu/share/psi4/basis/cc-pvdz.gbs

         ---------------------------------------------------------
                                   SCF
               by Justin Turney, Rob Parrish, Andy Simmonett
                          and Daniel G. A. Smith
                              RHF Reference
                        1 Threads,    500 MiB Core
         ---------------------------------------------------------

  ==> Geometry <==

    Molecular point group: c1
    Full point group: C1

    Geometry (in Angstrom), charge = 1, multiplicity = 1:

       Center              X                  Y                   Z               Mass
    ------------   -----------------  -----------------  -----------------  -----------------
         C           -1.974540949865     1.062823504554    -2.139635692289    12.000000000000
         C           -0.712540949865     1.457823504554    -2.950635692289    12.000000000000
         H           -2.868540949865     1.316823504554    -2.712635692289     1.007825032230
         H           -1.979540949865    -0.011176495446    -1.941635692289     1.007825032230
         H           -2.017540949865     1.602823504554    -1.193635692289     1.007825032230
         H            0.150459050135     1.066823504554    -2.421635692289     1.007825032230
         H           -0.559146949865     2.546993504554    -2.963846692289     1.007825032230
         H           -0.704690949865     0.937563504554    -3.919792692289     1.007825032230
         C            1.140459050135    -2.357176495446     1.384364307711    12.000000000000
         C            0.392459050135    -0.061176495446     0.935364307711    12.000000000000
         N            0.184459050135     0.900823504554     0.065364307711    14.003074004430
         N            0.812459050135    -1.241176495446     0.506364307711    14.003074004430
         N            0.204459050135     0.169823504554     2.225364307711    14.003074004430
         H            0.621459050135     0.839823504554    -0.832635692289     1.007825032230
         H           -0.195540949865     1.785823504554     0.383364307711     1.007825032230
         H            0.797459050135    -1.426176495446    -0.485635692289     1.007825032230
         H            0.283459050135    -0.584176495446     2.887364307711     1.007825032230
         H           -0.147540949865     1.060823504554     2.541364307711     1.007825032230
         H            1.168459050135    -3.271176495446     0.785364307711     1.007825032230
         H            0.373459050135    -2.497176495446     2.150364307711     1.007825032230
         H            2.127864050135    -2.216216495446     1.848221307711     1.007825032230

  Running in c1 symmetry.

  Rotational constants: A =      0.13885  B =      0.03189  C =      0.02856 [cm^-1]
  Rotational constants: A =   4162.60584  B =    956.17970  C =    856.22274 [MHz]
  Nuclear repulsion =  325.093690490690790

  Charge       = 1
  Multiplicity = 1
  Electrons    = 58
  Nalpha       = 29
  Nbeta        = 29

  ==> Algorithm <==

  SCF Algorithm Type is PK.
  DIIS enabled.
  MOM disabled.
  Fractional occupation disabled.
  Guess Type is SAD.
  Energy threshold   = 1.00e-06
  Density threshold  = 1.00e-10
  Integral threshold = 0.00e+00

  ==> Primary Basis <==

  Basis Set: CC-PVDZ
    Blend: CC-PVDZ
    Number of shells: 84
    Number of basis function: 168
    Number of Cartesian functions: 175
    Spherical Harmonics?: true
    Max angular momentum: 2

  ==> Pre-Iterations <==

   -------------------------------------------------------
    Irrep   Nso     Nmo     Nalpha   Nbeta   Ndocc  Nsocc
   -------------------------------------------------------
     A        168     168       0       0       0       0
   -------------------------------------------------------
    Total     168     168      29      29      29       0
   -------------------------------------------------------

  ==> Integral Setup <==

  Using integral reordering PK algorithm.
  Sizing the integral batches needed.
  Building batch lookup table.
   Calculation information:
      Number of atoms:                  21
      Number of AO shells:              84
      Number of primitives:            224
      Number of atomic orbitals:       175
      Number of basis functions:       168

      Integral cutoff                 1.00e-12
      Number of threads:                 1

	Batch   1 pq = [       0,    9405] index = [             0,44231715] size =     44231715
	Batch   2 pq = [    9405,   13301] index = [      44231715,88464951] size =     44233236
	Batch   3 pq = [   13301,   14196] index = [      88464951,100770306] size =     12305355
  Task number: 10
  Buffer size: 11059200
  Buffer per thread: 2
  We computed 5723128 shell quartets total.
  Whereas there are 6374235 unique shell quartets.

  ==> DiskJK: Disk-Based J/K Matrices <==

    J tasked:                  Yes
    K tasked:                  Yes
    wK tasked:                  No
    Memory [MiB]:              375
    Schwarz Cutoff:          1E-12

    OpenMP threads:              1

  Minimum eigenvalue in the overlap matrix is 3.6637948638E-03.
  Using Symmetric Orthogonalization.

  SCF Guess: Superposition of Atomic Densities via on-the-fly atomic UHF.

  ==> Iterations <==

                        Total Energy        Delta E     RMS |[F,P]|

   @RHF iter SAD:  -322.20294596706435   -3.22203e+02   0.00000e+00
   @RHF iter   1:  -322.60821796938450   -4.05272e-01   3.40041e-03 DIIS
   @RHF iter   2:  -322.77952138203540   -1.71303e-01   1.32124e-03 DIIS
   @RHF iter   3:  -322.80399993083279   -2.44785e-02   3.23464e-04 DIIS
   @RHF iter   4:  -322.80640185455502   -2.40192e-03   5.19432e-05 DIIS
   @RHF iter   5:  -322.80646680552667   -6.49510e-05   2.05396e-05 DIIS
   @RHF iter   6:  -322.80647556575605   -8.76023e-06   4.16440e-06 DIIS
   @RHF iter   7:  -322.80647618800333   -6.22247e-07   1.38551e-06 DIIS
   @RHF iter   8:  -322.80647623514608   -4.71427e-08   4.07973e-07 DIIS
   @RHF iter   9:  -322.80647623926620   -4.12012e-09   1.05173e-07 DIIS
   @RHF iter  10:  -322.80647623956463   -2.98428e-10   2.92851e-08 DIIS
   @RHF iter  11:  -322.80647623959015   -2.55227e-11   9.19046e-09 DIIS
   @RHF iter  12:  -322.80647623959317   -3.01270e-12   2.78951e-09 DIIS
   @RHF iter  13:  -322.80647623959408   -9.09495e-13   7.85328e-10 DIIS
   @RHF iter  14:  -322.80647623959248    1.59162e-12   3.12839e-10 DIIS
   @RHF iter  15:  -322.80647623959356   -1.08002e-12   6.84842e-11 DIIS
  Energy and wave function converged.

  ==> Post-Iterations <==

    Orbital Energies [Eh]
    ---------------------

    Doubly Occupied:

       1A    -15.790155     2A    -15.785668     3A    -15.780450
       4A    -11.587754     5A    -11.441008     6A    -11.345319
       7A    -11.337795     8A     -1.546530     9A     -1.404198
      10A     -1.392152    11A     -1.143039    12A     -1.135317
      13A     -1.038662    14A     -0.980371    15A     -0.961851
      16A     -0.938378    17A     -0.865202    18A     -0.862163
      19A     -0.822412    20A     -0.791612    21A     -0.745027
      22A     -0.722923    23A     -0.720866    24A     -0.708241
      25A     -0.620970    26A     -0.617212    27A     -0.613401
      28A     -0.601825    29A     -0.584558

    Virtual:

      30A     -0.009596    31A      0.016717    32A      0.025905
      33A      0.029702    34A      0.065107    35A      0.083045
      36A      0.099959    37A      0.113981    38A      0.118495
      39A      0.134876    40A      0.145771    41A      0.153974
      42A      0.167105    43A      0.188308    44A      0.200157
      45A      0.235016    46A      0.270251    47A      0.298137
      48A      0.332447    49A      0.339885    50A      0.445342
      51A      0.461826    52A      0.467901    53A      0.477683
      54A      0.489247    55A      0.506432    56A      0.527849
      57A      0.529441    58A      0.539272    59A      0.548899
      60A      0.556135    61A      0.615200    62A      0.645933
      63A      0.683314    64A      0.700223    65A      0.702058
      66A      0.711693    67A      0.717221    68A      0.730638
      69A      0.745819    70A      0.773947    71A      0.776765
      72A      0.782627    73A      0.791022    74A      0.798011
      75A      0.817035    76A      0.828838    77A      0.843097
      78A      0.871734    79A      0.887496    80A      0.919412
      81A      0.949992    82A      0.977812    83A      0.990985
      84A      1.002431    85A      1.023794    86A      1.060585
      87A      1.079827    88A      1.133141    89A      1.161219
      90A      1.168011    91A      1.194847    92A      1.219969
      93A      1.243155    94A      1.308237    95A      1.335181
      96A      1.371285    97A      1.416697    98A      1.440984
      99A      1.470796   100A      1.510533   101A      1.524409
     102A      1.534037   103A      1.551671   104A      1.571131
     105A      1.594490   106A      1.618839   107A      1.667776
     108A      1.687700   109A      1.708028   110A      1.729286
     111A      1.737393   112A      1.740906   113A      1.751545
     114A      1.763987   115A      1.767097   116A      1.793516
     117A      1.803561   118A      1.817851   119A      1.825206
     120A      1.829084   121A      1.845499   122A      1.848938
     123A      1.874585   124A      1.900607   125A      1.924103
     126A      1.961637   127A      2.012692   128A      2.019445
     129A      2.043191   130A      2.074712   131A      2.123210
     132A      2.132249   133A      2.179068   134A      2.188692
     135A      2.205812   136A      2.227659   137A      2.267859
     138A      2.290392   139A      2.306049   140A      2.317168
     141A      2.346625   142A      2.366056   143A      2.385696
     144A      2.422862   145A      2.441357   146A      2.456225
     147A      2.511692   148A      2.570418   149A      2.585553
     150A      2.602689   151A      2.646728   152A      2.653087
     153A      2.666585   154A      2.678628   155A      2.745195
     156A      2.746850   157A      2.760774   158A      2.793473
     159A      2.812999   160A      2.828502   161A      2.844456
     162A      2.858419   163A      2.933886   164A      3.055941
     165A      3.105019   166A      3.164949   167A      3.575913
     168A      3.626655

    Final Occupation by Irrep:
              A
    DOCC [    29 ]

  @RHF Final Energy:  -322.80647623959356

   => Energetics <=

    Nuclear Repulsion Energy =            325.0936904906907898
    One-Electron Energy =               -1070.0302141813783692
    Two-Electron Energy =                 422.1300474510940717
    Total Energy =                       -322.8064762395935645

Computation Completed

Properties will be evaluated at   0.000000,   0.000000,   0.000000 [a0]

Properties computed using the SCF density matrix

  Nuclear Dipole Moment: [e a0]
     X:    -2.7690      Y:     1.0799      Z:    -5.5161

  Electronic Dipole Moment: [e a0]
     X:     3.4202      Y:    -1.4342      Z:     7.1299

  Dipole Moment: [e a0]
     X:     0.6513      Y:    -0.3543      Z:     1.6138     Total:     1.7759

  Dipole Moment: [D]
     X:     1.6554      Y:    -0.9006      Z:     4.1018     Total:     4.5139

*** tstop() called on ds3 at Sun Apr 26 21:36:23 2020
Module time:
	user time   =      35.67 seconds =       0.59 minutes
	system time =      13.88 seconds =       0.23 minutes
	total time  =         53 seconds =       0.88 minutes
Total time:
	user time   =      35.67 seconds =       0.59 minutes
	system time =      13.88 seconds =       0.23 minutes
	total time  =         53 seconds =       0.88 minutes
                                     G D M A

                                 by Anthony Stone

                           version 2.2.06, 22 June 2011

               Distributed Multipoles from Gaussian wavefunctions

Starting at 21:36:23 on 26 Apr 2020

Using SCF density matrix from file ./SSI/SSI-035ALA-067ARG-1-dimer.test.31767.fchk

                         Distributed Multipole Analysis

Standard DMA

Positions and radii in angstrom
Multipole moments in atomic units, ea_0^k for rank k

C          x = -1.974541  y =  1.062824  z = -2.139636 angstrom
           Maximum rank =  0   Radius =  0.650 angstrom
                   Q00  =  -0.252525

C          x = -0.712541  y =  1.457824  z = -2.950636 angstrom
           Maximum rank =  0   Radius =  0.650 angstrom
                   Q00  =  -0.208286

H          x = -2.868541  y =  1.316824  z = -2.712636 angstrom
           Maximum rank =  0   Radius =  0.325 angstrom
                   Q00  =   0.119204

H          x = -1.979541  y = -0.011176  z = -1.941636 angstrom
           Maximum rank =  0   Radius =  0.325 angstrom
                   Q00  =   0.072584

H          x = -2.017541  y =  1.602824  z = -1.193636 angstrom
           Maximum rank =  0   Radius =  0.325 angstrom
                   Q00  =   0.058863

H          x =  0.150459  y =  1.066824  z = -2.421636 angstrom
           Maximum rank =  0   Radius =  0.325 angstrom
                   Q00  =  -0.003772

H          x = -0.559147  y =  2.546994  z = -2.963847 angstrom
           Maximum rank =  0   Radius =  0.325 angstrom
                   Q00  =   0.097696

H          x = -0.704691  y =  0.937564  z = -3.919793 angstrom
           Maximum rank =  0   Radius =  0.325 angstrom
                   Q00  =   0.109525

C          x =  1.140459  y = -2.357176  z =  1.384364 angstrom
           Maximum rank =  0   Radius =  0.650 angstrom
                   Q00  =  -0.135033

C          x =  0.392459  y = -0.061176  z =  0.935364 angstrom
           Maximum rank =  0   Radius =  0.650 angstrom
                   Q00  =   1.079188

N          x =  0.184459  y =  0.900824  z =  0.065364 angstrom
           Maximum rank =  0   Radius =  0.650 angstrom
                   Q00  =  -0.568106

N          x =  0.812459  y = -1.241176  z =  0.506364 angstrom
           Maximum rank =  0   Radius =  0.650 angstrom
                   Q00  =  -0.490076

N          x =  0.204459  y =  0.169824  z =  2.225364 angstrom
           Maximum rank =  0   Radius =  0.650 angstrom
                   Q00  =  -0.585669

H          x =  0.621459  y =  0.839824  z = -0.832636 angstrom
           Maximum rank =  0   Radius =  0.325 angstrom
                   Q00  =   0.266355

H          x = -0.195541  y =  1.785824  z =  0.383364 angstrom
           Maximum rank =  0   Radius =  0.325 angstrom
                   Q00  =   0.263645

H          x =  0.797459  y = -1.426176  z = -0.485636 angstrom
           Maximum rank =  0   Radius =  0.325 angstrom
                   Q00  =   0.240091

H          x =  0.283459  y = -0.584176  z =  2.887364 angstrom
           Maximum rank =  0   Radius =  0.325 angstrom
                   Q00  =   0.268710

H          x = -0.147541  y =  1.060824  z =  2.541364 angstrom
           Maximum rank =  0   Radius =  0.325 angstrom
                   Q00  =   0.268403

H          x =  1.168459  y = -3.271176  z =  0.785364 angstrom
           Maximum rank =  0   Radius =  0.325 angstrom
                   Q00  =   0.164999

H          x =  0.373459  y = -2.497176  z =  2.150364 angstrom
           Maximum rank =  0   Radius =  0.325 angstrom
                   Q00  =   0.106759

H          x =  2.127864  y = -2.216216  z =  1.848221 angstrom
           Maximum rank =  0   Radius =  0.325 angstrom
                   Q00  =   0.127445

Total multipoles referred to origin at
           x =   0.000000,  y =    0.000000,  z =    0.000000 angstrom
                   Q00  =   1.000000

Finished at 21:36:23 on 26 Apr 2020

  DMA results are available in the Python driver through the
	  variable('DMA DISTRIBUTED MULTIPOLES')
  and
	  variable('DMA TOTAL MULTIPOLES')
  commands.

    Psi4 stopped on: Sunday, 26 April 2020 09:36PM
    Psi4 wall time for execution: 0:00:53.34

*** Psi4 exiting successfully. Buy a developer a beer!
