                               Psi4 1.3.2 release

  ==> Input File <==

--------------------------------------------------------------------------
import numpy as np
set {scf_type pk
basis cc-pvdz
d_convergence 10
gdma_switch   0
gdma_limit    0
gdma_origin   [ 0.0,  0.0,  0.0 ]
}
molecule test {
    units Angstrom
    0 1
    --
    0 1
    C               -2.959845020573038     0.317470234095066     1.175861423205066
    C               -2.600845020573038     1.769470234095066     0.857861423205066
    C               -1.912845020573038    -0.397529765904933     2.021861423205066
    H               -3.919845020573038     0.282470234095067     1.692861423205066
    H               -3.068845020573038    -0.220529765904934     0.232861423205066
    H               -1.684845020573038     1.770470234095066     0.263861423205066
    H               -0.938845020573038    -0.298529765904933     1.545861423205066
    H               -1.868845020573038     0.059470234095066     3.010861423205066
    H               -2.441565020573038     2.338638234095067     1.785591423205066
    H               -3.388055020573038     2.226632234095067     0.240371423205066
    H               -2.161085020573038    -1.463375265904933     2.132991423205066
    C                2.413154979426962     2.325470234095067    -0.269138576794934
    C               -0.180845020573038    -0.270529765904933    -1.262138576794934
    C                0.347154979426962    -1.421529765904934    -0.690138576794934
    C                0.489154979426962     0.940470234095067    -1.124138576794934
    C                1.684154979426962     1.014470234095066    -0.414138576794934
    C                1.544154979426962    -1.361529765904933     0.012861423205066
    C                2.207154979426962    -0.146529765904933     0.145861423205066
    O               -0.301845020573038    -2.611529765904934    -0.823138576794934
    H               -1.116845020573038    -0.321529765904933    -1.802138576794934
    H                0.064154979426962     1.836470234095066    -1.563138576794934
    H                1.955154979426962    -2.256529765904933     0.457861423205066
    H                0.178154979426962    -3.340529765904933    -0.413138576794934
    H                2.914154979426962     2.333470234095067     0.696861423205066
    H                1.694154979426962     3.146470234095066    -0.274138576794934
    H                3.138154979426962    -0.103529765904934     0.700861423205066
    H                3.164764979426962     2.478963234095067    -1.057498576794934

}
e, wfn = energy('scf', return_wfn=True)
gdma(wfn)
dmavals = variable('DMA DISTRIBUTED MULTIPOLES')
charges = np.array(dmavals)
print(charges)
np.save('SSI-128LYS-183TYR-1-dimer.npy', np.array(charges))--------------------------------------------------------------------------

*** tstart() called on ds3
*** at Tue Apr 28 15:34:22 2020

   => Loading Basis Set <=

    Name: CC-PVDZ
    Role: ORBITAL
    Keyword: BASIS
    atoms 1-3, 12-18  entry C          line   138 file /theoryfs2/ds/metcalf/miniconda2/envs/tf2gpu/share/psi4/basis/cc-pvdz.gbs
    atoms 4-11, 20-27 entry H          line    22 file /theoryfs2/ds/metcalf/miniconda2/envs/tf2gpu/share/psi4/basis/cc-pvdz.gbs
    atoms 19          entry O          line   198 file /theoryfs2/ds/metcalf/miniconda2/envs/tf2gpu/share/psi4/basis/cc-pvdz.gbs

         ---------------------------------------------------------
                                   SCF
               by Justin Turney, Rob Parrish, Andy Simmonett
                          and Daniel G. A. Smith
                              RHF Reference
                        1 Threads,    500 MiB Core
         ---------------------------------------------------------

  ==> Geometry <==

    Molecular point group: c1
    Full point group: C1

    Geometry (in Angstrom), charge = 0, multiplicity = 1:

       Center              X                  Y                   Z               Mass
    ------------   -----------------  -----------------  -----------------  -----------------
         C           -2.959845020573     0.317470234095     1.175861423205    12.000000000000
         C           -2.600845020573     1.769470234095     0.857861423205    12.000000000000
         C           -1.912845020573    -0.397529765905     2.021861423205    12.000000000000
         H           -3.919845020573     0.282470234095     1.692861423205     1.007825032230
         H           -3.068845020573    -0.220529765905     0.232861423205     1.007825032230
         H           -1.684845020573     1.770470234095     0.263861423205     1.007825032230
         H           -0.938845020573    -0.298529765905     1.545861423205     1.007825032230
         H           -1.868845020573     0.059470234095     3.010861423205     1.007825032230
         H           -2.441565020573     2.338638234095     1.785591423205     1.007825032230
         H           -3.388055020573     2.226632234095     0.240371423205     1.007825032230
         H           -2.161085020573    -1.463375265905     2.132991423205     1.007825032230
         C            2.413154979427     2.325470234095    -0.269138576795    12.000000000000
         C           -0.180845020573    -0.270529765905    -1.262138576795    12.000000000000
         C            0.347154979427    -1.421529765905    -0.690138576795    12.000000000000
         C            0.489154979427     0.940470234095    -1.124138576795    12.000000000000
         C            1.684154979427     1.014470234095    -0.414138576795    12.000000000000
         C            1.544154979427    -1.361529765905     0.012861423205    12.000000000000
         C            2.207154979427    -0.146529765905     0.145861423205    12.000000000000
         O           -0.301845020573    -2.611529765905    -0.823138576795    15.994914619570
         H           -1.116845020573    -0.321529765905    -1.802138576795     1.007825032230
         H            0.064154979427     1.836470234095    -1.563138576795     1.007825032230
         H            1.955154979427    -2.256529765905     0.457861423205     1.007825032230
         H            0.178154979427    -3.340529765905    -0.413138576795     1.007825032230
         H            2.914154979427     2.333470234095     0.696861423205     1.007825032230
         H            1.694154979427     3.146470234095    -0.274138576795     1.007825032230
         H            3.138154979427    -0.103529765905     0.700861423205     1.007825032230
         H            3.164764979427     2.478963234095    -1.057498576795     1.007825032230

  Running in c1 symmetry.

  Rotational constants: A =      0.03774  B =      0.02510  C =      0.01827 [cm^-1]
  Rotational constants: A =   1131.30898  B =    752.62457  C =    547.57138 [MHz]
  Nuclear repulsion =  601.624973764033939

  Charge       = 0
  Multiplicity = 1
  Electrons    = 84
  Nalpha       = 42
  Nbeta        = 42

  ==> Algorithm <==

  SCF Algorithm Type is PK.
  DIIS enabled.
  MOM disabled.
  Fractional occupation disabled.
  Guess Type is SAD.
  Energy threshold   = 1.00e-06
  Density threshold  = 1.00e-10
  Integral threshold = 0.00e+00

  ==> Primary Basis <==

  Basis Set: CC-PVDZ
    Blend: CC-PVDZ
    Number of shells: 114
    Number of basis function: 234
    Number of Cartesian functions: 245
    Spherical Harmonics?: true
    Max angular momentum: 2

  ==> Pre-Iterations <==

   -------------------------------------------------------
    Irrep   Nso     Nmo     Nalpha   Nbeta   Ndocc  Nsocc
   -------------------------------------------------------
     A        234     234       0       0       0       0
   -------------------------------------------------------
    Total     234     234      42      42      42       0
   -------------------------------------------------------

  ==> Integral Setup <==

  Using integral reordering PK algorithm.
  Sizing the integral batches needed.
  Building batch lookup table.
   Calculation information:
      Number of atoms:                  27
      Number of AO shells:             114
      Number of primitives:            322
      Number of atomic orbitals:       245
      Number of basis functions:       234

      Integral cutoff                 1.00e-12
      Number of threads:                 1

	Batch   1 pq = [       0,    9405] index = [             0,44231715] size =     44231715
	Batch   2 pq = [    9405,   13301] index = [      44231715,88464951] size =     44233236
	Batch   3 pq = [   13301,   16290] index = [      88464951,132690195] size =     44225244
	Batch   4 pq = [   16290,   18810] index = [     132690195,176917455] size =     44227260
	Batch   5 pq = [   18810,   21030] index = [     176917455,221140965] size =     44223510
	Batch   6 pq = [   21030,   23037] index = [     221140965,265363203] size =     44222238
	Batch   7 pq = [   23037,   24883] index = [     265363203,309594286] size =     44231083
	Batch   8 pq = [   24883,   26601] index = [     309594286,353819901] size =     44225615
	Batch   9 pq = [   26601,   27495] index = [     353819901,378001260] size =     24181359
  Task number: 35
  Buffer size: 11059200
  Buffer per thread: 2
  We computed 22662078 shell quartets total.
  Whereas there are 21487290 unique shell quartets.
     5.47 percent of shell quartets recomputed by reordering.

  ==> DiskJK: Disk-Based J/K Matrices <==

    J tasked:                  Yes
    K tasked:                  Yes
    wK tasked:                  No
    Memory [MiB]:              375
    Schwarz Cutoff:          1E-12

    OpenMP threads:              1

  Minimum eigenvalue in the overlap matrix is 3.1501983075E-04.
  Using Symmetric Orthogonalization.

  SCF Guess: Superposition of Atomic Densities via on-the-fly atomic UHF.

  ==> Iterations <==

                        Total Energy        Delta E     RMS |[F,P]|

   @RHF iter SAD:  -461.75178923705681   -4.61752e+02   0.00000e+00
   @RHF iter   1:  -462.60428907735002   -8.52500e-01   2.83297e-03 DIIS
   @RHF iter   2:  -462.84763012890181   -2.43341e-01   1.21874e-03 DIIS
   @RHF iter   3:  -462.88862056417952   -4.09904e-02   2.70639e-04 DIIS
   @RHF iter   4:  -462.89192774515197   -3.30718e-03   1.03190e-04 DIIS
   @RHF iter   5:  -462.89226946035558   -3.41715e-04   2.10169e-05 DIIS
   @RHF iter   6:  -462.89228980035642   -2.03400e-05   6.66280e-06 DIIS
   @RHF iter   7:  -462.89229197099257   -2.17064e-06   1.93016e-06 DIIS
   @RHF iter   8:  -462.89229223933091   -2.68338e-07   7.65075e-07 DIIS
   @RHF iter   9:  -462.89229228725338   -4.79225e-08   3.41147e-07 DIIS
   @RHF iter  10:  -462.89229229749162   -1.02382e-08   1.47000e-07 DIIS
   @RHF iter  11:  -462.89229230083924   -3.34762e-09   6.26330e-08 DIIS
   @RHF iter  12:  -462.89229230143428   -5.95037e-10   2.85665e-08 DIIS
   @RHF iter  13:  -462.89229230151676   -8.24798e-11   8.31555e-09 DIIS
   @RHF iter  14:  -462.89229230152648   -9.72022e-12   2.09101e-09 DIIS
   @RHF iter  15:  -462.89229230152586    6.25278e-13   6.82799e-10 DIIS
   @RHF iter  16:  -462.89229230152790   -2.04636e-12   2.13332e-10 DIIS
   @RHF iter  17:  -462.89229230152534    2.55795e-12   8.10010e-11 DIIS
  Energy and wave function converged.

  ==> Post-Iterations <==

    Orbital Energies [Eh]
    ---------------------

    Doubly Occupied:

       1A    -20.583982     2A    -11.300042     3A    -11.240289
       4A    -11.239401     5A    -11.234199     6A    -11.233897
       7A    -11.231101     8A    -11.228573     9A    -11.209925
      10A    -11.208825    11A    -11.203578    12A     -1.400548
      13A     -1.154183    14A     -1.044449    15A     -1.039310
      16A     -1.020280    17A     -0.927738    18A     -0.914710
      19A     -0.846236    20A     -0.804140    21A     -0.785863
      22A     -0.733813    23A     -0.670154    24A     -0.642445
      25A     -0.619652    26A     -0.607999    27A     -0.588841
      28A     -0.587249    29A     -0.585404    30A     -0.571734
      31A     -0.568510    32A     -0.538548    33A     -0.527434
      34A     -0.522469    35A     -0.498934    36A     -0.486227
      37A     -0.474637    38A     -0.463249    39A     -0.458193
      40A     -0.452380    41A     -0.340644    42A     -0.303340

    Virtual:

      43A      0.126911    44A      0.153637    45A      0.174460
      46A      0.181886    47A      0.195591    48A      0.213129
      49A      0.221080    50A      0.236722    51A      0.248387
      52A      0.257959    53A      0.263159    54A      0.268594
      55A      0.280142    56A      0.288125    57A      0.296646
      58A      0.304882    59A      0.320483    60A      0.341735
      61A      0.368178    62A      0.373008    63A      0.388003
      64A      0.426913    65A      0.442364    66A      0.455542
      67A      0.486251    68A      0.496285    69A      0.504299
      70A      0.576503    71A      0.600232    72A      0.607605
      73A      0.614330    74A      0.622203    75A      0.628363
      76A      0.649446    77A      0.663763    78A      0.669715
      79A      0.687805    80A      0.694374    81A      0.726391
      82A      0.733696    83A      0.750298    84A      0.759351
      85A      0.769788    86A      0.772048    87A      0.799557
      88A      0.809004    89A      0.817994    90A      0.845190
      91A      0.851391    92A      0.855279    93A      0.867482
      94A      0.874269    95A      0.877282    96A      0.883317
      97A      0.888106    98A      0.890103    99A      0.897165
     100A      0.915297   101A      0.918261   102A      0.923252
     103A      0.927160   104A      0.933506   105A      0.941283
     106A      0.949524   107A      0.959117   108A      0.974873
     109A      0.994935   110A      1.008463   111A      1.021566
     112A      1.030051   113A      1.069628   114A      1.097769
     115A      1.127406   116A      1.133829   117A      1.138012
     118A      1.151336   119A      1.164768   120A      1.193615
     121A      1.205949   122A      1.239745   123A      1.250743
     124A      1.262928   125A      1.287603   126A      1.293231
     127A      1.303227   128A      1.309634   129A      1.327290
     130A      1.359215   131A      1.361902   132A      1.381472
     133A      1.393720   134A      1.472335   135A      1.483531
     136A      1.494165   137A      1.519488   138A      1.534052
     139A      1.557698   140A      1.567404   141A      1.619114
     142A      1.621096   143A      1.630850   144A      1.678040
     145A      1.686851   146A      1.701163   147A      1.704094
     148A      1.716213   149A      1.736666   150A      1.753593
     151A      1.782246   152A      1.821761   153A      1.822845
     154A      1.859327   155A      1.862546   156A      1.885616
     157A      1.891530   158A      1.897929   159A      1.902359
     160A      1.910997   161A      1.921437   162A      1.925523
     163A      1.934061   164A      1.940447   165A      1.955685
     166A      1.962874   167A      1.967012   168A      1.974878
     169A      1.977872   170A      1.984042   171A      1.991502
     172A      2.016545   173A      2.017251   174A      2.019413
     175A      2.040472   176A      2.056367   177A      2.059350
     178A      2.070005   179A      2.079026   180A      2.094417
     181A      2.134356   182A      2.149385   183A      2.151880
     184A      2.156478   185A      2.178334   186A      2.204891
     187A      2.230284   188A      2.264696   189A      2.278805
     190A      2.288591   191A      2.307705   192A      2.320902
     193A      2.324591   194A      2.337587   195A      2.352908
     196A      2.411488   197A      2.425740   198A      2.455982
     199A      2.475345   200A      2.485253   201A      2.507421
     202A      2.537961   203A      2.547238   204A      2.577348
     205A      2.596247   206A      2.604145   207A      2.628385
     208A      2.638899   209A      2.651737   210A      2.753861
     211A      2.760911   212A      2.771826   213A      2.789107
     214A      2.796698   215A      2.814494   216A      2.820532
     217A      2.839450   218A      2.844015   219A      2.909751
     220A      2.924713   221A      2.963222   222A      2.991237
     223A      3.005049   224A      3.021319   225A      3.075073
     226A      3.093924   227A      3.113416   228A      3.249103
     229A      3.282714   230A      3.348831   231A      3.579989
     232A      3.673823   233A      3.983205   234A      4.191693

    Final Occupation by Irrep:
              A
    DOCC [    42 ]

  @RHF Final Energy:  -462.89229230152534

   => Energetics <=

    Nuclear Repulsion Energy =            601.6249737640339390
    One-Electron Energy =               -1820.8482788333185454
    Two-Electron Energy =                 756.3310127677592618
    Total Energy =                       -462.8922923015253446

Computation Completed

Properties will be evaluated at   0.000000,   0.000000,   0.000000 [a0]

Properties computed using the SCF density matrix

  Nuclear Dipole Moment: [e a0]
     X:    -7.0138      Y:     7.9264      Z:     7.1684

  Electronic Dipole Moment: [e a0]
     X:     7.5909      Y:    -8.0706      Z:    -6.9457

  Dipole Moment: [e a0]
     X:     0.5772      Y:    -0.1442      Z:     0.2227     Total:     0.6352

  Dipole Moment: [D]
     X:     1.4670      Y:    -0.3665      Z:     0.5660     Total:     1.6145

*** tstop() called on ds3 at Tue Apr 28 15:39:47 2020
Module time:
	user time   =     161.97 seconds =       2.70 minutes
	system time =      50.61 seconds =       0.84 minutes
	total time  =        325 seconds =       5.42 minutes
Total time:
	user time   =     161.97 seconds =       2.70 minutes
	system time =      50.61 seconds =       0.84 minutes
	total time  =        325 seconds =       5.42 minutes
                                     G D M A

                                 by Anthony Stone

                           version 2.2.06, 22 June 2011

               Distributed Multipoles from Gaussian wavefunctions

Starting at 15:39:47 on 28 Apr 2020

Using SCF density matrix from file ./SSI/SSI-128LYS-183TYR-1-dimer.test.2714.fchk

                         Distributed Multipole Analysis

Standard DMA

Positions and radii in angstrom
Multipole moments in atomic units, ea_0^k for rank k

C          x = -2.959845  y =  0.317470  z =  1.175861 angstrom
           Maximum rank =  0   Radius =  0.650 angstrom
                   Q00  =  -0.078354

C          x = -2.600845  y =  1.769470  z =  0.857861 angstrom
           Maximum rank =  0   Radius =  0.650 angstrom
                   Q00  =  -0.243966

C          x = -1.912845  y = -0.397530  z =  2.021861 angstrom
           Maximum rank =  0   Radius =  0.650 angstrom
                   Q00  =  -0.245279

H          x = -3.919845  y =  0.282470  z =  1.692861 angstrom
           Maximum rank =  0   Radius =  0.325 angstrom
                   Q00  =   0.041717

H          x = -3.068845  y = -0.220530  z =  0.232861 angstrom
           Maximum rank =  0   Radius =  0.325 angstrom
                   Q00  =   0.045015

H          x = -1.684845  y =  1.770470  z =  0.263861 angstrom
           Maximum rank =  0   Radius =  0.325 angstrom
                   Q00  =   0.087283

H          x = -0.938845  y = -0.298530  z =  1.545861 angstrom
           Maximum rank =  0   Radius =  0.325 angstrom
                   Q00  =   0.087884

H          x = -1.868845  y =  0.059470  z =  3.010861 angstrom
           Maximum rank =  0   Radius =  0.325 angstrom
                   Q00  =   0.068645

H          x = -2.441565  y =  2.338638  z =  1.785591 angstrom
           Maximum rank =  0   Radius =  0.325 angstrom
                   Q00  =   0.074175

H          x = -3.388055  y =  2.226632  z =  0.240371 angstrom
           Maximum rank =  0   Radius =  0.325 angstrom
                   Q00  =   0.078038

H          x = -2.161085  y = -1.463375  z =  2.132991 angstrom
           Maximum rank =  0   Radius =  0.325 angstrom
                   Q00  =   0.079242

C          x =  2.413155  y =  2.325470  z = -0.269139 angstrom
           Maximum rank =  0   Radius =  0.650 angstrom
                   Q00  =  -0.191319

C          x = -0.180845  y = -0.270530  z = -1.262139 angstrom
           Maximum rank =  0   Radius =  0.650 angstrom
                   Q00  =  -0.124614

C          x =  0.347155  y = -1.421530  z = -0.690139 angstrom
           Maximum rank =  0   Radius =  0.650 angstrom
                   Q00  =   0.322600

C          x =  0.489155  y =  0.940470  z = -1.124139 angstrom
           Maximum rank =  0   Radius =  0.650 angstrom
                   Q00  =  -0.021987

C          x =  1.684155  y =  1.014470  z = -0.414139 angstrom
           Maximum rank =  0   Radius =  0.650 angstrom
                   Q00  =  -0.139124

C          x =  1.544155  y = -1.361530  z =  0.012861 angstrom
           Maximum rank =  0   Radius =  0.650 angstrom
                   Q00  =  -0.178440

C          x =  2.207155  y = -0.146530  z =  0.145861 angstrom
           Maximum rank =  0   Radius =  0.650 angstrom
                   Q00  =   0.026613

O          x = -0.301845  y = -2.611530  z = -0.823139 angstrom
           Maximum rank =  0   Radius =  0.650 angstrom
                   Q00  =  -0.677629

H          x = -1.116845  y = -0.321530  z = -1.802139 angstrom
           Maximum rank =  0   Radius =  0.325 angstrom
                   Q00  =   0.082550

H          x =  0.064155  y =  1.836470  z = -1.563139 angstrom
           Maximum rank =  0   Radius =  0.325 angstrom
                   Q00  =   0.065280

H          x =  1.955155  y = -2.256530  z =  0.457861 angstrom
           Maximum rank =  0   Radius =  0.325 angstrom
                   Q00  =   0.071836

H          x =  0.178155  y = -3.340530  z = -0.413139 angstrom
           Maximum rank =  0   Radius =  0.325 angstrom
                   Q00  =   0.408118

H          x =  2.914155  y =  2.333470  z =  0.696861 angstrom
           Maximum rank =  0   Radius =  0.325 angstrom
                   Q00  =   0.095495

H          x =  1.694155  y =  3.146470  z = -0.274139 angstrom
           Maximum rank =  0   Radius =  0.325 angstrom
                   Q00  =   0.097820

H          x =  3.138155  y = -0.103530  z =  0.700861 angstrom
           Maximum rank =  0   Radius =  0.325 angstrom
                   Q00  =   0.068373

H          x =  3.164765  y =  2.478963  z = -1.057499 angstrom
           Maximum rank =  0   Radius =  0.325 angstrom
                   Q00  =   0.100030

Total multipoles referred to origin at
           x =   0.000000,  y =    0.000000,  z =    0.000000 angstrom
                   Q00  =  -0.000000

Finished at 15:39:47 on 28 Apr 2020

  DMA results are available in the Python driver through the
	  variable('DMA DISTRIBUTED MULTIPOLES')
  and
	  variable('DMA TOTAL MULTIPOLES')
  commands.

    Psi4 stopped on: Tuesday, 28 April 2020 03:39PM
    Psi4 wall time for execution: 0:05:25.39

*** Psi4 exiting successfully. Buy a developer a beer!
