                               Psi4 1.3.2 release

  ==> Input File <==

--------------------------------------------------------------------------
import numpy as np
set {scf_type pk
basis cc-pvdz
d_convergence 10
gdma_switch   0
gdma_limit    0
gdma_origin   [ 0.0,  0.0,  0.0 ]
}
molecule test {
    units Angstrom
    0 1
    --
    0 1
    C                1.366464231533803     0.472342181889448     1.152709127851614
    C                2.290464231533803     0.116342181889448     2.327709127851614
    C                1.598464231533803     1.864342181889447     0.573709127851614
    H                1.486464231533803    -0.266657818110552     0.358709127851614
    H                0.328464231533803     0.430342181889448     1.480709127851614
    H                2.360464231533803     0.973342181889448     2.997709127851614
    H                2.592464231533803     1.947342181889448     0.138709127851614
    H                0.862464231533803     2.059342181889448    -0.204290872148386
    H                1.484464231533803     2.608342181889448     1.362709127851614
    H                1.881684231533803    -0.739539818110552     2.884809127851613
    H                3.295874231533803    -0.106683818110552     1.941179127851614
    C               -1.322535768466197    -0.712657818110552    -1.053290872148386
    C               -1.491535768466197    -0.132657818110552    -2.470290872148386
    C               -2.433535768466197    -1.630657818110552    -0.527290872148386
    H               -0.379535768466197    -1.259657818110552    -1.027290872148386
    H               -1.227535768466197     0.120342181889448    -0.355290872148386
    H               -2.479535768466197     0.306342181889448    -2.539290872148386
    H               -2.608535768466197    -2.433657818110552    -1.240290872148386
    H               -1.391443768466197    -0.907248818110552    -3.244880872148386
    H               -0.787332768466197     0.699778181889448    -2.615720872148386
    H               -2.135165768466197    -2.082167818110552     0.430369127851614
    H               -3.375957768466197    -1.076334818110553    -0.406600872148386

}
e, wfn = energy('scf', return_wfn=True)
gdma(wfn)
dmavals = variable('DMA DISTRIBUTED MULTIPOLES')
charges = np.array(dmavals)
print(charges)
np.save('SSI-015ILE-030LEU-1-dimer.npy', np.array(charges))--------------------------------------------------------------------------

*** tstart() called on ds3
*** at Tue Apr 28 00:22:39 2020

   => Loading Basis Set <=

    Name: CC-PVDZ
    Role: ORBITAL
    Keyword: BASIS
    atoms 1-3, 12-14  entry C          line   138 file /theoryfs2/ds/metcalf/miniconda2/envs/tf2gpu/share/psi4/basis/cc-pvdz.gbs
    atoms 4-11, 15-22 entry H          line    22 file /theoryfs2/ds/metcalf/miniconda2/envs/tf2gpu/share/psi4/basis/cc-pvdz.gbs

         ---------------------------------------------------------
                                   SCF
               by Justin Turney, Rob Parrish, Andy Simmonett
                          and Daniel G. A. Smith
                              RHF Reference
                        1 Threads,    500 MiB Core
         ---------------------------------------------------------

  ==> Geometry <==

    Molecular point group: c1
    Full point group: C1

    Geometry (in Angstrom), charge = 0, multiplicity = 1:

       Center              X                  Y                   Z               Mass
    ------------   -----------------  -----------------  -----------------  -----------------
         C            1.366464231534     0.472342181889     1.152709127852    12.000000000000
         C            2.290464231534     0.116342181889     2.327709127852    12.000000000000
         C            1.598464231534     1.864342181889     0.573709127852    12.000000000000
         H            1.486464231534    -0.266657818111     0.358709127852     1.007825032230
         H            0.328464231534     0.430342181889     1.480709127852     1.007825032230
         H            2.360464231534     0.973342181889     2.997709127852     1.007825032230
         H            2.592464231534     1.947342181889     0.138709127852     1.007825032230
         H            0.862464231534     2.059342181889    -0.204290872148     1.007825032230
         H            1.484464231534     2.608342181889     1.362709127852     1.007825032230
         H            1.881684231534    -0.739539818111     2.884809127852     1.007825032230
         H            3.295874231534    -0.106683818111     1.941179127852     1.007825032230
         C           -1.322535768466    -0.712657818111    -1.053290872148    12.000000000000
         C           -1.491535768466    -0.132657818111    -2.470290872148    12.000000000000
         C           -2.433535768466    -1.630657818111    -0.527290872148    12.000000000000
         H           -0.379535768466    -1.259657818111    -1.027290872148     1.007825032230
         H           -1.227535768466     0.120342181889    -0.355290872148     1.007825032230
         H           -2.479535768466     0.306342181889    -2.539290872148     1.007825032230
         H           -2.608535768466    -2.433657818111    -1.240290872148     1.007825032230
         H           -1.391443768466    -0.907248818111    -3.244880872148     1.007825032230
         H           -0.787332768466     0.699778181889    -2.615720872148     1.007825032230
         H           -2.135165768466    -2.082167818111     0.430369127852     1.007825032230
         H           -3.375957768466    -1.076334818111    -0.406600872148     1.007825032230

  Running in c1 symmetry.

  Rotational constants: A =      0.14283  B =      0.03123  C =      0.02694 [cm^-1]
  Rotational constants: A =   4282.01127  B =    936.23409  C =    807.62254 [MHz]
  Nuclear repulsion =  238.116276896329339

  Charge       = 0
  Multiplicity = 1
  Electrons    = 52
  Nalpha       = 26
  Nbeta        = 26

  ==> Algorithm <==

  SCF Algorithm Type is PK.
  DIIS enabled.
  MOM disabled.
  Fractional occupation disabled.
  Guess Type is SAD.
  Energy threshold   = 1.00e-06
  Density threshold  = 1.00e-10
  Integral threshold = 0.00e+00

  ==> Primary Basis <==

  Basis Set: CC-PVDZ
    Blend: CC-PVDZ
    Number of shells: 84
    Number of basis function: 164
    Number of Cartesian functions: 170
    Spherical Harmonics?: true
    Max angular momentum: 2

  ==> Pre-Iterations <==

   -------------------------------------------------------
    Irrep   Nso     Nmo     Nalpha   Nbeta   Ndocc  Nsocc
   -------------------------------------------------------
     A        164     164       0       0       0       0
   -------------------------------------------------------
    Total     164     164      26      26      26       0
   -------------------------------------------------------

  ==> Integral Setup <==

  Using integral reordering PK algorithm.
  Sizing the integral batches needed.
  Building batch lookup table.
   Calculation information:
      Number of atoms:                  22
      Number of AO shells:              84
      Number of primitives:            212
      Number of atomic orbitals:       170
      Number of basis functions:       164

      Integral cutoff                 1.00e-12
      Number of threads:                 1

	Batch   1 pq = [       0,    9405] index = [             0,44231715] size =     44231715
	Batch   2 pq = [    9405,   13530] index = [      44231715,91537215] size =     47305500
  Task number: 9
  Buffer size: 11059200
  Buffer per thread: 2
  We computed 5414246 shell quartets total.
  Whereas there are 6374235 unique shell quartets.

  ==> DiskJK: Disk-Based J/K Matrices <==

    J tasked:                  Yes
    K tasked:                  Yes
    wK tasked:                  No
    Memory [MiB]:              375
    Schwarz Cutoff:          1E-12

    OpenMP threads:              1

  Minimum eigenvalue in the overlap matrix is 5.3006806893E-03.
  Using Symmetric Orthogonalization.

  SCF Guess: Superposition of Atomic Densities via on-the-fly atomic UHF.

  ==> Iterations <==

                        Total Energy        Delta E     RMS |[F,P]|

   @RHF iter SAD:  -235.32514469630021   -2.35325e+02   0.00000e+00
   @RHF iter   1:  -236.31762265282418   -9.92478e-01   3.46725e-03 DIIS
   @RHF iter   2:  -236.50286600601368   -1.85243e-01   1.49334e-03 DIIS
   @RHF iter   3:  -236.53528663254090   -3.24206e-02   3.04155e-04 DIIS
   @RHF iter   4:  -236.53788564858300   -2.59902e-03   5.06176e-05 DIIS
   @RHF iter   5:  -236.53793925636074   -5.36078e-05   1.39447e-05 DIIS
   @RHF iter   6:  -236.53794359221581   -4.33586e-06   2.26831e-06 DIIS
   @RHF iter   7:  -236.53794372090130   -1.28685e-07   4.41630e-07 DIIS
   @RHF iter   8:  -236.53794372724738   -6.34608e-09   8.48017e-08 DIIS
   @RHF iter   9:  -236.53794372752216   -2.74781e-10   1.87635e-08 DIIS
   @RHF iter  10:  -236.53794372753367   -1.15108e-11   5.73387e-09 DIIS
   @RHF iter  11:  -236.53794372753418   -5.11591e-13   1.17280e-09 DIIS
   @RHF iter  12:  -236.53794372753401    1.70530e-13   1.76609e-10 DIIS
   @RHF iter  13:  -236.53794372753487   -8.52651e-13   4.79688e-11 DIIS
  Energy and wave function converged.

  ==> Post-Iterations <==

    Orbital Energies [Eh]
    ---------------------

    Doubly Occupied:

       1A    -11.219959     2A    -11.218364     3A    -11.218311
       4A    -11.218246     5A    -11.217571     6A    -11.214549
       7A     -1.052372     8A     -1.048006     9A     -0.926490
      10A     -0.925057    11A     -0.800169    12A     -0.791562
      13A     -0.626468    14A     -0.621656    15A     -0.596903
      16A     -0.588638    17A     -0.550638    18A     -0.548535
      19A     -0.534860    20A     -0.533163    21A     -0.475411
      22A     -0.474220    23A     -0.471199    24A     -0.470492
      25A     -0.461683    26A     -0.457497

    Virtual:

      27A      0.165272    28A      0.193785    29A      0.205396
      30A      0.216399    31A      0.223093    32A      0.242513
      33A      0.247487    34A      0.259395    35A      0.265145
      36A      0.277496    37A      0.282078    38A      0.293198
      39A      0.301625    40A      0.315553    41A      0.339491
      42A      0.354784    43A      0.369139    44A      0.388886
      45A      0.421472    46A      0.435825    47A      0.566321
      48A      0.578903    49A      0.590086    50A      0.599106
      51A      0.603338    52A      0.611316    53A      0.622060
      54A      0.627410    55A      0.656559    56A      0.755725
      57A      0.772857    58A      0.788602    59A      0.803729
      60A      0.813609    61A      0.834350    62A      0.867375
      63A      0.881585    64A      0.888407    65A      0.888933
      66A      0.893499    67A      0.896831    68A      0.899207
      69A      0.903984    70A      0.906243    71A      0.914171
      72A      0.915836    73A      0.918538    74A      0.930716
      75A      0.940796    76A      0.954573    77A      0.972733
      78A      0.987217    79A      1.001665    80A      1.005852
      81A      1.113027    82A      1.121555    83A      1.123164
      84A      1.159465    85A      1.194216    86A      1.236808
      87A      1.368473    88A      1.387703    89A      1.456621
      90A      1.470376    91A      1.478983    92A      1.488046
      93A      1.534805    94A      1.549405    95A      1.599342
      96A      1.650282    97A      1.668860    98A      1.688435
      99A      1.691336   100A      1.698329   101A      1.703507
     102A      1.709335   103A      1.847785   104A      1.857514
     105A      1.865740   106A      1.875091   107A      1.889746
     108A      1.898989   109A      1.908910   110A      1.914379
     111A      1.920406   112A      1.930985   113A      1.934082
     114A      1.949189   115A      1.958775   116A      1.960805
     117A      1.972253   118A      1.982019   119A      1.990390
     120A      1.995101   121A      2.003761   122A      2.007059
     123A      2.009697   124A      2.022673   125A      2.053834
     126A      2.063752   127A      2.127134   128A      2.136636
     129A      2.162288   130A      2.172721   131A      2.270317
     132A      2.279616   133A      2.286927   134A      2.302179
     135A      2.325295   136A      2.341151   137A      2.347671
     138A      2.360203   139A      2.478889   140A      2.494749
     141A      2.526592   142A      2.541558   143A      2.579256
     144A      2.596781   145A      2.601327   146A      2.622169
     147A      2.635976   148A      2.641733   149A      2.748837
     150A      2.755192   151A      2.756364   152A      2.772199
     153A      2.783015   154A      2.787264   155A      2.805482
     156A      2.829813   157A      2.908147   158A      2.923413
     159A      2.952653   160A      2.958196   161A      2.968229
     162A      2.972838   163A      3.054211   164A      3.095396

    Final Occupation by Irrep:
              A
    DOCC [    26 ]

  @RHF Final Energy:  -236.53794372753487

   => Energetics <=

    Nuclear Repulsion Energy =            238.1162768963293388
    One-Electron Energy =                -788.7844061340684902
    Two-Electron Energy =                 314.1301855102042282
    Total Energy =                       -236.5379437275348664

Computation Completed

Properties will be evaluated at   0.000000,   0.000000,   0.000000 [a0]

Properties computed using the SCF density matrix

  Nuclear Dipole Moment: [e a0]
     X:    -0.0869      Y:     0.2561      Z:    -0.0363

  Electronic Dipole Moment: [e a0]
     X:     0.0754      Y:    -0.2608      Z:     0.0417

  Dipole Moment: [e a0]
     X:    -0.0115      Y:    -0.0046      Z:     0.0053     Total:     0.0135

  Dipole Moment: [D]
     X:    -0.0292      Y:    -0.0118      Z:     0.0136     Total:     0.0343

*** tstop() called on ds3 at Tue Apr 28 00:23:55 2020
Module time:
	user time   =      28.91 seconds =       0.48 minutes
	system time =      10.95 seconds =       0.18 minutes
	total time  =         76 seconds =       1.27 minutes
Total time:
	user time   =      28.91 seconds =       0.48 minutes
	system time =      10.95 seconds =       0.18 minutes
	total time  =         76 seconds =       1.27 minutes
                                     G D M A

                                 by Anthony Stone

                           version 2.2.06, 22 June 2011

               Distributed Multipoles from Gaussian wavefunctions

Starting at 0:23:55 on 28 Apr 2020

Using SCF density matrix from file ./SSI/SSI-015ILE-030LEU-1-dimer.test.5219.fchk

                         Distributed Multipole Analysis

Standard DMA

Positions and radii in angstrom
Multipole moments in atomic units, ea_0^k for rank k

C          x =  1.366464  y =  0.472342  z =  1.152709 angstrom
           Maximum rank =  0   Radius =  0.650 angstrom
                   Q00  =  -0.092015

C          x =  2.290464  y =  0.116342  z =  2.327709 angstrom
           Maximum rank =  0   Radius =  0.650 angstrom
                   Q00  =  -0.231066

C          x =  1.598464  y =  1.864342  z =  0.573709 angstrom
           Maximum rank =  0   Radius =  0.650 angstrom
                   Q00  =  -0.242205

H          x =  1.486464  y = -0.266658  z =  0.358709 angstrom
           Maximum rank =  0   Radius =  0.325 angstrom
                   Q00  =   0.048108

H          x =  0.328464  y =  0.430342  z =  1.480709 angstrom
           Maximum rank =  0   Radius =  0.325 angstrom
                   Q00  =   0.042207

H          x =  2.360464  y =  0.973342  z =  2.997709 angstrom
           Maximum rank =  0   Radius =  0.325 angstrom
                   Q00  =   0.075938

H          x =  2.592464  y =  1.947342  z =  0.138709 angstrom
           Maximum rank =  0   Radius =  0.325 angstrom
                   Q00  =   0.077068

H          x =  0.862464  y =  2.059342  z = -0.204291 angstrom
           Maximum rank =  0   Radius =  0.325 angstrom
                   Q00  =   0.083704

H          x =  1.484464  y =  2.608342  z =  1.362709 angstrom
           Maximum rank =  0   Radius =  0.325 angstrom
                   Q00  =   0.076108

H          x =  1.881684  y = -0.739540  z =  2.884809 angstrom
           Maximum rank =  0   Radius =  0.325 angstrom
                   Q00  =   0.085461

H          x =  3.295874  y = -0.106684  z =  1.941179 angstrom
           Maximum rank =  0   Radius =  0.325 angstrom
                   Q00  =   0.078338

C          x = -1.322536  y = -0.712658  z = -1.053291 angstrom
           Maximum rank =  0   Radius =  0.650 angstrom
                   Q00  =  -0.071259

C          x = -1.491536  y = -0.132658  z = -2.470291 angstrom
           Maximum rank =  0   Radius =  0.650 angstrom
                   Q00  =  -0.254409

C          x = -2.433536  y = -1.630658  z = -0.527291 angstrom
           Maximum rank =  0   Radius =  0.650 angstrom
                   Q00  =  -0.246762

H          x = -0.379536  y = -1.259658  z = -1.027291 angstrom
           Maximum rank =  0   Radius =  0.325 angstrom
                   Q00  =   0.044076

H          x = -1.227536  y =  0.120342  z = -0.355291 angstrom
           Maximum rank =  0   Radius =  0.325 angstrom
                   Q00  =   0.043392

H          x = -2.479536  y =  0.306342  z = -2.539291 angstrom
           Maximum rank =  0   Radius =  0.325 angstrom
                   Q00  =   0.075412

H          x = -2.608536  y = -2.433658  z = -1.240291 angstrom
           Maximum rank =  0   Radius =  0.325 angstrom
                   Q00  =   0.075972

H          x = -1.391444  y = -0.907249  z = -3.244881 angstrom
           Maximum rank =  0   Radius =  0.325 angstrom
                   Q00  =   0.082551

H          x = -0.787333  y =  0.699778  z = -2.615721 angstrom
           Maximum rank =  0   Radius =  0.325 angstrom
                   Q00  =   0.085501

H          x = -2.135166  y = -2.082168  z =  0.430369 angstrom
           Maximum rank =  0   Radius =  0.325 angstrom
                   Q00  =   0.086423

H          x = -3.375958  y = -1.076335  z = -0.406601 angstrom
           Maximum rank =  0   Radius =  0.325 angstrom
                   Q00  =   0.077456

Total multipoles referred to origin at
           x =   0.000000,  y =    0.000000,  z =    0.000000 angstrom
                   Q00  =  -0.000000

Finished at 0:23:55 on 28 Apr 2020

  DMA results are available in the Python driver through the
	  variable('DMA DISTRIBUTED MULTIPOLES')
  and
	  variable('DMA TOTAL MULTIPOLES')
  commands.

    Psi4 stopped on: Tuesday, 28 April 2020 12:23AM
    Psi4 wall time for execution: 0:01:15.36

*** Psi4 exiting successfully. Buy a developer a beer!
