                               Psi4 1.3.2 release

  ==> Input File <==

--------------------------------------------------------------------------
import numpy as np
set {scf_type pk
basis cc-pvdz
d_convergence 10
gdma_switch   0
gdma_limit    0
gdma_origin   [ 0.0,  0.0,  0.0 ]
}
molecule test {
    units Angstrom
    0 1
    --
    0 1
    C               -1.057107800218133    -0.067297257833863    -0.191107043640712
    C               -1.579107800218133     1.209702742166137    -0.825107043640712
    C               -1.857107800218132    -0.715297257833863     0.935892956359288
    C               -0.935107800218133    -0.988297257833863    -1.368107043640712
    H               -0.064107800218133     0.136702742166137     0.189892956359288
    H               -2.506107800218133     0.950702742166137    -1.345107043640712
    H               -0.866107800218133     1.545702742166137    -1.581107043640712
    H               -2.759107800218132    -1.172297257833863     0.524892956359288
    H               -1.259107800218132    -1.487297257833863     1.419892956359288
    H               -2.172107800218133     0.026702742166137     1.659892956359288
    H               -0.279107800218133    -0.564297257833863    -2.130107043640712
    H               -0.497107800218133    -1.930297257833863    -1.038107043640712
    H               -1.914107800218133    -1.199297257833863    -1.803107043640712
    H               -1.809867800218132     2.077397742166137    -0.189607043640712
    C                2.694892199781867     0.414702742166137    -0.013107043640712
    C                2.591892199781868     0.141702742166137     1.460892956359288
    H                3.740892199781868     0.394702742166137    -0.318107043640712
    H                2.151892199781867    -0.348297257833863    -0.571107043640712
    H                2.261892199781868     1.390702742166137    -0.238107043640712
    H                1.540892199781867     0.199702742166137     1.724892956359288
    H                3.171544199781867     0.907075742166137     1.997742956359288
    H                2.946289199781867    -0.870652257833863     1.704902956359288

}
e, wfn = energy('scf', return_wfn=True)
gdma(wfn)
dmavals = variable('DMA DISTRIBUTED MULTIPOLES')
charges = np.array(dmavals)
print(charges)
np.save('SSI-120LEU-124LEU-1-dimer.npy', np.array(charges))--------------------------------------------------------------------------

*** tstart() called on ds3
*** at Tue Apr 28 03:50:47 2020

   => Loading Basis Set <=

    Name: CC-PVDZ
    Role: ORBITAL
    Keyword: BASIS
    atoms 1-4, 15-16  entry C          line   138 file /theoryfs2/ds/metcalf/miniconda2/envs/tf2gpu/share/psi4/basis/cc-pvdz.gbs
    atoms 5-14, 17-22 entry H          line    22 file /theoryfs2/ds/metcalf/miniconda2/envs/tf2gpu/share/psi4/basis/cc-pvdz.gbs

         ---------------------------------------------------------
                                   SCF
               by Justin Turney, Rob Parrish, Andy Simmonett
                          and Daniel G. A. Smith
                              RHF Reference
                        1 Threads,    500 MiB Core
         ---------------------------------------------------------

  ==> Geometry <==

    Molecular point group: c1
    Full point group: C1

    Geometry (in Angstrom), charge = 0, multiplicity = 1:

       Center              X                  Y                   Z               Mass
    ------------   -----------------  -----------------  -----------------  -----------------
         C           -1.057107800218    -0.067297257834    -0.191107043641    12.000000000000
         C           -1.579107800218     1.209702742166    -0.825107043641    12.000000000000
         C           -1.857107800218    -0.715297257834     0.935892956359    12.000000000000
         C           -0.935107800218    -0.988297257834    -1.368107043641    12.000000000000
         H           -0.064107800218     0.136702742166     0.189892956359     1.007825032230
         H           -2.506107800218     0.950702742166    -1.345107043641     1.007825032230
         H           -0.866107800218     1.545702742166    -1.581107043641     1.007825032230
         H           -2.759107800218    -1.172297257834     0.524892956359     1.007825032230
         H           -1.259107800218    -1.487297257834     1.419892956359     1.007825032230
         H           -2.172107800218     0.026702742166     1.659892956359     1.007825032230
         H           -0.279107800218    -0.564297257834    -2.130107043641     1.007825032230
         H           -0.497107800218    -1.930297257834    -1.038107043641     1.007825032230
         H           -1.914107800218    -1.199297257834    -1.803107043641     1.007825032230
         H           -1.809867800218     2.077397742166    -0.189607043641     1.007825032230
         C            2.694892199782     0.414702742166    -0.013107043641    12.000000000000
         C            2.591892199782     0.141702742166     1.460892956359    12.000000000000
         H            3.740892199782     0.394702742166    -0.318107043641     1.007825032230
         H            2.151892199782    -0.348297257834    -0.571107043641     1.007825032230
         H            2.261892199782     1.390702742166    -0.238107043641     1.007825032230
         H            1.540892199782     0.199702742166     1.724892956359     1.007825032230
         H            3.171544199782     0.907075742166     1.997742956359     1.007825032230
         H            2.946289199782    -0.870652257834     1.704902956359     1.007825032230

  Running in c1 symmetry.

  Rotational constants: A =      0.12723  B =      0.04102  C =      0.03841 [cm^-1]
  Rotational constants: A =   3814.18741  B =   1229.81709  C =   1151.54032 [MHz]
  Nuclear repulsion =  251.954192856876432

  Charge       = 0
  Multiplicity = 1
  Electrons    = 52
  Nalpha       = 26
  Nbeta        = 26

  ==> Algorithm <==

  SCF Algorithm Type is PK.
  DIIS enabled.
  MOM disabled.
  Fractional occupation disabled.
  Guess Type is SAD.
  Energy threshold   = 1.00e-06
  Density threshold  = 1.00e-10
  Integral threshold = 0.00e+00

  ==> Primary Basis <==

  Basis Set: CC-PVDZ
    Blend: CC-PVDZ
    Number of shells: 84
    Number of basis function: 164
    Number of Cartesian functions: 170
    Spherical Harmonics?: true
    Max angular momentum: 2

  ==> Pre-Iterations <==

   -------------------------------------------------------
    Irrep   Nso     Nmo     Nalpha   Nbeta   Ndocc  Nsocc
   -------------------------------------------------------
     A        164     164       0       0       0       0
   -------------------------------------------------------
    Total     164     164      26      26      26       0
   -------------------------------------------------------

  ==> Integral Setup <==

  Using integral reordering PK algorithm.
  Sizing the integral batches needed.
  Building batch lookup table.
   Calculation information:
      Number of atoms:                  22
      Number of AO shells:              84
      Number of primitives:            212
      Number of atomic orbitals:       170
      Number of basis functions:       164

      Integral cutoff                 1.00e-12
      Number of threads:                 1

	Batch   1 pq = [       0,    9405] index = [             0,44231715] size =     44231715
	Batch   2 pq = [    9405,   13530] index = [      44231715,91537215] size =     47305500
  Task number: 9
  Buffer size: 11059200
  Buffer per thread: 2
  We computed 6147540 shell quartets total.
  Whereas there are 6374235 unique shell quartets.

  ==> DiskJK: Disk-Based J/K Matrices <==

    J tasked:                  Yes
    K tasked:                  Yes
    wK tasked:                  No
    Memory [MiB]:              375
    Schwarz Cutoff:          1E-12

    OpenMP threads:              1

  Minimum eigenvalue in the overlap matrix is 4.2939246676E-03.
  Using Symmetric Orthogonalization.

  SCF Guess: Superposition of Atomic Densities via on-the-fly atomic UHF.

  ==> Iterations <==

                        Total Energy        Delta E     RMS |[F,P]|

   @RHF iter SAD:  -235.60083170767643   -2.35601e+02   0.00000e+00
   @RHF iter   1:  -236.29755366448788   -6.96722e-01   3.59414e-03 DIIS
   @RHF iter   2:  -236.49221612312178   -1.94662e-01   1.58160e-03 DIIS
   @RHF iter   3:  -236.52809916422481   -3.58830e-02   3.19468e-04 DIIS
   @RHF iter   4:  -236.53079596659808   -2.69680e-03   7.19668e-05 DIIS
   @RHF iter   5:  -236.53088718164469   -9.12150e-05   1.58949e-05 DIIS
   @RHF iter   6:  -236.53089298179196   -5.80015e-06   2.63505e-06 DIIS
   @RHF iter   7:  -236.53089315888244   -1.77090e-07   6.90803e-07 DIIS
   @RHF iter   8:  -236.53089317126498   -1.23825e-08   1.61019e-07 DIIS
   @RHF iter   9:  -236.53089317203529   -7.70314e-10   4.24151e-08 DIIS
   @RHF iter  10:  -236.53089317209611   -6.08225e-11   1.00451e-08 DIIS
   @RHF iter  11:  -236.53089317209952   -3.41061e-12   2.08299e-09 DIIS
   @RHF iter  12:  -236.53089317209964   -1.13687e-13   4.23284e-10 DIIS
   @RHF iter  13:  -236.53089317209961    2.84217e-14   6.39565e-11 DIIS
  Energy and wave function converged.

  ==> Post-Iterations <==

    Orbital Energies [Eh]
    ---------------------

    Doubly Occupied:

       1A    -11.219183     2A    -11.217585     3A    -11.215411
       4A    -11.215385     5A    -11.213393     6A    -11.210384
       7A     -1.090944     8A     -1.027304     9A     -0.937273
      10A     -0.917576    11A     -0.833937    12A     -0.768025
      13A     -0.639620    14A     -0.604075    15A     -0.602512
      16A     -0.598789    17A     -0.584020    18A     -0.539716
      19A     -0.524275    20A     -0.505069    21A     -0.504122
      22A     -0.485502    23A     -0.483847    24A     -0.469490
      25A     -0.457369    26A     -0.450457

    Virtual:

      27A      0.163497    28A      0.200322    29A      0.208688
      30A      0.217291    31A      0.234901    32A      0.250809
      33A      0.257445    34A      0.262305    35A      0.267964
      36A      0.273353    37A      0.285078    38A      0.294867
      39A      0.306991    40A      0.315799    41A      0.330375
      42A      0.355104    43A      0.380671    44A      0.397497
      45A      0.416542    46A      0.417056    47A      0.568071
      48A      0.582842    49A      0.591675    50A      0.600888
      51A      0.614281    52A      0.617763    53A      0.637104
      54A      0.664691    55A      0.689000    56A      0.728702
      57A      0.750689    58A      0.791650    59A      0.804855
      60A      0.847220    61A      0.852751    62A      0.866916
      63A      0.875937    64A      0.878866    65A      0.888022
      66A      0.900452    67A      0.903141    68A      0.906837
      69A      0.909389    70A      0.912944    71A      0.920779
      72A      0.928820    73A      0.944476    74A      0.956997
      75A      0.965445    76A      0.977738    77A      0.987634
      78A      0.997885    79A      1.023767    80A      1.084011
      81A      1.120283    82A      1.129527    83A      1.138411
      84A      1.145708    85A      1.226991    86A      1.304842
      87A      1.344028    88A      1.398961    89A      1.419960
      90A      1.482386    91A      1.503994    92A      1.522035
      93A      1.578313    94A      1.606359    95A      1.646180
      96A      1.659416    97A      1.685365    98A      1.686000
      99A      1.697728   100A      1.700501   101A      1.719418
     102A      1.742763   103A      1.743536   104A      1.826390
     105A      1.846298   106A      1.850448   107A      1.872834
     108A      1.892448   109A      1.920302   110A      1.926448
     111A      1.934675   112A      1.941990   113A      1.945966
     114A      1.954651   115A      1.963967   116A      1.966435
     117A      1.975062   118A      1.990489   119A      2.012057
     120A      2.017391   121A      2.039285   122A      2.045264
     123A      2.051767   124A      2.094493   125A      2.110575
     126A      2.123441   127A      2.139731   128A      2.154985
     129A      2.179987   130A      2.239068   131A      2.270802
     132A      2.284867   133A      2.299005   134A      2.315763
     135A      2.323812   136A      2.355677   137A      2.385078
     138A      2.394952   139A      2.461004   140A      2.469379
     141A      2.485893   142A      2.566461   143A      2.577378
     144A      2.595026   145A      2.607085   146A      2.666309
     147A      2.718704   148A      2.730353   149A      2.756699
     150A      2.768628   151A      2.788586   152A      2.795353
     153A      2.802124   154A      2.809536   155A      2.829450
     156A      2.852082   157A      2.856909   158A      2.864661
     159A      2.919858   160A      2.966120   161A      2.988590
     162A      3.016831   163A      3.028743   164A      3.195853

    Final Occupation by Irrep:
              A
    DOCC [    26 ]

  @RHF Final Energy:  -236.53089317209961

   => Energetics <=

    Nuclear Repulsion Energy =            251.9541928568764320
    One-Electron Energy =                -816.3396471633043348
    Two-Electron Energy =                 327.8545611343282644
    Total Energy =                       -236.5308931720995815

Computation Completed

Properties will be evaluated at   0.000000,   0.000000,   0.000000 [a0]

Properties computed using the SCF density matrix

  Nuclear Dipole Moment: [e a0]
     X:     1.5811      Y:     0.0534      Z:     0.0072

  Electronic Dipole Moment: [e a0]
     X:    -1.5358      Y:    -0.0526      Z:     0.0087

  Dipole Moment: [e a0]
     X:     0.0453      Y:     0.0008      Z:     0.0159     Total:     0.0480

  Dipole Moment: [D]
     X:     0.1151      Y:     0.0021      Z:     0.0404     Total:     0.1220

*** tstop() called on ds3 at Tue Apr 28 03:51:28 2020
Module time:
	user time   =      31.39 seconds =       0.52 minutes
	system time =      10.69 seconds =       0.18 minutes
	total time  =         41 seconds =       0.68 minutes
Total time:
	user time   =      31.39 seconds =       0.52 minutes
	system time =      10.69 seconds =       0.18 minutes
	total time  =         41 seconds =       0.68 minutes
                                     G D M A

                                 by Anthony Stone

                           version 2.2.06, 22 June 2011

               Distributed Multipoles from Gaussian wavefunctions

Starting at 3:51:28 on 28 Apr 2020

Using SCF density matrix from file ./SSI/SSI-120LEU-124LEU-1-dimer.test.25840.fchk

                         Distributed Multipole Analysis

Standard DMA

Positions and radii in angstrom
Multipole moments in atomic units, ea_0^k for rank k

C          x = -1.057108  y = -0.067297  z = -0.191107 angstrom
           Maximum rank =  0   Radius =  0.650 angstrom
                   Q00  =   0.017827

C          x = -1.579108  y =  1.209703  z = -0.825107 angstrom
           Maximum rank =  0   Radius =  0.650 angstrom
                   Q00  =  -0.235929

C          x = -1.857108  y = -0.715297  z =  0.935893 angstrom
           Maximum rank =  0   Radius =  0.650 angstrom
                   Q00  =  -0.245820

C          x = -0.935108  y = -0.988297  z = -1.368107 angstrom
           Maximum rank =  0   Radius =  0.650 angstrom
                   Q00  =  -0.239109

H          x = -0.064108  y =  0.136703  z =  0.189893 angstrom
           Maximum rank =  0   Radius =  0.325 angstrom
                   Q00  =   0.008489

H          x = -2.506108  y =  0.950703  z = -1.345107 angstrom
           Maximum rank =  0   Radius =  0.325 angstrom
                   Q00  =   0.065499

H          x = -0.866108  y =  1.545703  z = -1.581107 angstrom
           Maximum rank =  0   Radius =  0.325 angstrom
                   Q00  =   0.078837

H          x = -2.759108  y = -1.172297  z =  0.524893 angstrom
           Maximum rank =  0   Radius =  0.325 angstrom
                   Q00  =   0.075280

H          x = -1.259108  y = -1.487297  z =  1.419893 angstrom
           Maximum rank =  0   Radius =  0.325 angstrom
                   Q00  =   0.086319

H          x = -2.172108  y =  0.026703  z =  1.659893 angstrom
           Maximum rank =  0   Radius =  0.325 angstrom
                   Q00  =   0.085820

H          x = -0.279108  y = -0.564297  z = -2.130107 angstrom
           Maximum rank =  0   Radius =  0.325 angstrom
                   Q00  =   0.077239

H          x = -0.497108  y = -1.930297  z = -1.038107 angstrom
           Maximum rank =  0   Radius =  0.325 angstrom
                   Q00  =   0.068805

H          x = -1.914108  y = -1.199297  z = -1.803107 angstrom
           Maximum rank =  0   Radius =  0.325 angstrom
                   Q00  =   0.075540

H          x = -1.809868  y =  2.077398  z = -0.189607 angstrom
           Maximum rank =  0   Radius =  0.325 angstrom
                   Q00  =   0.079053

C          x =  2.694892  y =  0.414703  z = -0.013107 angstrom
           Maximum rank =  0   Radius =  0.650 angstrom
                   Q00  =  -0.233717

C          x =  2.591892  y =  0.141703  z =  1.460893 angstrom
           Maximum rank =  0   Radius =  0.650 angstrom
                   Q00  =  -0.222760

H          x =  3.740892  y =  0.394703  z = -0.318107 angstrom
           Maximum rank =  0   Radius =  0.325 angstrom
                   Q00  =   0.077436

H          x =  2.151892  y = -0.348297  z = -0.571107 angstrom
           Maximum rank =  0   Radius =  0.325 angstrom
                   Q00  =   0.076260

H          x =  2.261892  y =  1.390703  z = -0.238107 angstrom
           Maximum rank =  0   Radius =  0.325 angstrom
                   Q00  =   0.075952

H          x =  1.540892  y =  0.199703  z =  1.724893 angstrom
           Maximum rank =  0   Radius =  0.325 angstrom
                   Q00  =   0.074202

H          x =  3.171544  y =  0.907076  z =  1.997743 angstrom
           Maximum rank =  0   Radius =  0.325 angstrom
                   Q00  =   0.076998

H          x =  2.946289  y = -0.870652  z =  1.704903 angstrom
           Maximum rank =  0   Radius =  0.325 angstrom
                   Q00  =   0.077782

Total multipoles referred to origin at
           x =   0.000000,  y =    0.000000,  z =    0.000000 angstrom
                   Q00  =  -0.000000

Finished at 3:51:28 on 28 Apr 2020

  DMA results are available in the Python driver through the
	  variable('DMA DISTRIBUTED MULTIPOLES')
  and
	  variable('DMA TOTAL MULTIPOLES')
  commands.

    Psi4 stopped on: Tuesday, 28 April 2020 03:51AM
    Psi4 wall time for execution: 0:00:41.09

*** Psi4 exiting successfully. Buy a developer a beer!
