                               Psi4 1.3.2 release

  ==> Input File <==

--------------------------------------------------------------------------
import numpy as np
set {scf_type pk
basis cc-pvdz
d_convergence 10
gdma_switch   0
gdma_limit    0
gdma_origin   [ 0.0,  0.0,  0.0 ]
}
molecule test {
    units Angstrom
    0 1
    --
    0 1
    C                0.469026312197503    -2.221645210581860     2.233646408869748
    C                0.291026312197503    -3.511645210581861     1.438646408869748
    H                0.940026312197503    -1.448645210581860     1.655646408869748
    H               -0.526973687802497    -1.832645210581860     2.443646408869748
    H                0.931026312197503    -2.365645210581860     3.205646408869748
    H               -0.220973687802497    -3.270645210581860     0.505646408869748
    H                1.262606312197503    -3.972396110581860     1.206840408869748
    H               -0.336017687802497    -4.212925910581861     2.008752408869748
    C                1.143026312197504     0.397354789418140    -2.356353591130252
    C               -1.090973687802496     0.749354789418140     0.488646408869748
    C                0.292026312197503     0.881354789418140    -1.219353591130252
    C                0.053026312197503     2.143354789418140    -0.775353591130252
    N               -0.435973687802497     0.026354789418140    -0.413353591130252
    N               -0.812973687802497     2.034354789418140     0.291646408869748
    H               -1.749973687802497     0.358354789418140     1.257646408869748
    H               -1.194973687802496     2.802354789418140     0.834646408869748
    H                0.467026312197503     3.054354789418139    -1.190353591130252
    H                1.615026312197504     1.249354789418140    -2.848353591130252
    H                0.475026312197503    -0.072645210581860    -3.078353591130252
    H                1.913406312197504    -0.324158210581860    -2.046623591130252

}
e, wfn = energy('scf', return_wfn=True)
gdma(wfn)
dmavals = variable('DMA DISTRIBUTED MULTIPOLES')
charges = np.array(dmavals)
print(charges)
np.save('SSI-146VAL-165HIE-1-dimer.npy', np.array(charges))--------------------------------------------------------------------------

*** tstart() called on ds3
*** at Sun Apr 26 22:22:33 2020

   => Loading Basis Set <=

    Name: CC-PVDZ
    Role: ORBITAL
    Keyword: BASIS
    atoms 1-2, 9-12  entry C          line   138 file /theoryfs2/ds/metcalf/miniconda2/envs/tf2gpu/share/psi4/basis/cc-pvdz.gbs
    atoms 3-8, 15-20 entry H          line    22 file /theoryfs2/ds/metcalf/miniconda2/envs/tf2gpu/share/psi4/basis/cc-pvdz.gbs
    atoms 13-14      entry N          line   168 file /theoryfs2/ds/metcalf/miniconda2/envs/tf2gpu/share/psi4/basis/cc-pvdz.gbs

         ---------------------------------------------------------
                                   SCF
               by Justin Turney, Rob Parrish, Andy Simmonett
                          and Daniel G. A. Smith
                              RHF Reference
                        1 Threads,    500 MiB Core
         ---------------------------------------------------------

  ==> Geometry <==

    Molecular point group: c1
    Full point group: C1

    Geometry (in Angstrom), charge = 0, multiplicity = 1:

       Center              X                  Y                   Z               Mass
    ------------   -----------------  -----------------  -----------------  -----------------
         C            0.469026312198    -2.221645210582     2.233646408870    12.000000000000
         C            0.291026312198    -3.511645210582     1.438646408870    12.000000000000
         H            0.940026312198    -1.448645210582     1.655646408870     1.007825032230
         H           -0.526973687802    -1.832645210582     2.443646408870     1.007825032230
         H            0.931026312198    -2.365645210582     3.205646408870     1.007825032230
         H           -0.220973687802    -3.270645210582     0.505646408870     1.007825032230
         H            1.262606312198    -3.972396110582     1.206840408870     1.007825032230
         H           -0.336017687802    -4.212925910582     2.008752408870     1.007825032230
         C            1.143026312198     0.397354789418    -2.356353591130    12.000000000000
         C           -1.090973687802     0.749354789418     0.488646408870    12.000000000000
         C            0.292026312198     0.881354789418    -1.219353591130    12.000000000000
         C            0.053026312198     2.143354789418    -0.775353591130    12.000000000000
         N           -0.435973687802     0.026354789418    -0.413353591130    14.003074004430
         N           -0.812973687802     2.034354789418     0.291646408870    14.003074004430
         H           -1.749973687802     0.358354789418     1.257646408870     1.007825032230
         H           -1.194973687802     2.802354789418     0.834646408870     1.007825032230
         H            0.467026312198     3.054354789418    -1.190353591130     1.007825032230
         H            1.615026312198     1.249354789418    -2.848353591130     1.007825032230
         H            0.475026312198    -0.072645210582    -3.078353591130     1.007825032230
         H            1.913406312198    -0.324158210582    -2.046623591130     1.007825032230

  Running in c1 symmetry.

  Rotational constants: A =      0.09478  B =      0.03049  C =      0.02458 [cm^-1]
  Rotational constants: A =   2841.35933  B =    914.10133  C =    736.99176 [MHz]
  Nuclear repulsion =  353.725113247943966

  Charge       = 0
  Multiplicity = 1
  Electrons    = 62
  Nalpha       = 31
  Nbeta        = 31

  ==> Algorithm <==

  SCF Algorithm Type is PK.
  DIIS enabled.
  MOM disabled.
  Fractional occupation disabled.
  Guess Type is SAD.
  Energy threshold   = 1.00e-06
  Density threshold  = 1.00e-10
  Integral threshold = 0.00e+00

  ==> Primary Basis <==

  Basis Set: CC-PVDZ
    Blend: CC-PVDZ
    Number of shells: 84
    Number of basis function: 172
    Number of Cartesian functions: 180
    Spherical Harmonics?: true
    Max angular momentum: 2

  ==> Pre-Iterations <==

   -------------------------------------------------------
    Irrep   Nso     Nmo     Nalpha   Nbeta   Ndocc  Nsocc
   -------------------------------------------------------
     A        172     172       0       0       0       0
   -------------------------------------------------------
    Total     172     172      31      31      31       0
   -------------------------------------------------------

  ==> Integral Setup <==

  Using integral reordering PK algorithm.
  Sizing the integral batches needed.
  Building batch lookup table.
   Calculation information:
      Number of atoms:                  20
      Number of AO shells:              84
      Number of primitives:            236
      Number of atomic orbitals:       180
      Number of basis functions:       172

      Integral cutoff                 1.00e-12
      Number of threads:                 1

	Batch   1 pq = [       0,    9405] index = [             0,44231715] size =     44231715
	Batch   2 pq = [    9405,   13301] index = [      44231715,88464951] size =     44233236
	Batch   3 pq = [   13301,   14878] index = [      88464951,110684881] size =     22219930
  Task number: 11
  Buffer size: 11059200
  Buffer per thread: 2
  We computed 5301930 shell quartets total.
  Whereas there are 6374235 unique shell quartets.

  ==> DiskJK: Disk-Based J/K Matrices <==

    J tasked:                  Yes
    K tasked:                  Yes
    wK tasked:                  No
    Memory [MiB]:              375
    Schwarz Cutoff:          1E-12

    OpenMP threads:              1

  Minimum eigenvalue in the overlap matrix is 1.2034628731E-03.
  Using Symmetric Orthogonalization.

  SCF Guess: Superposition of Atomic Densities via on-the-fly atomic UHF.

  ==> Iterations <==

                        Total Energy        Delta E     RMS |[F,P]|

   @RHF iter SAD:  -342.19279647689825   -3.42193e+02   0.00000e+00
   @RHF iter   1:  -342.88762940382645   -6.94833e-01   3.37470e-03 DIIS
   @RHF iter   2:  -343.05981829174453   -1.72189e-01   1.72938e-03 DIIS
   @RHF iter   3:  -343.10172787640829   -4.19096e-02   4.39547e-04 DIIS
   @RHF iter   4:  -343.10525215136698   -3.52427e-03   1.83403e-04 DIIS
   @RHF iter   5:  -343.10582480467605   -5.72653e-04   2.65585e-05 DIIS
   @RHF iter   6:  -343.10584541592988   -2.06113e-05   1.15474e-05 DIIS
   @RHF iter   7:  -343.10584878959281   -3.37366e-06   3.94322e-06 DIIS
   @RHF iter   8:  -343.10584950504256   -7.15450e-07   1.59400e-06 DIIS
   @RHF iter   9:  -343.10584965721620   -1.52174e-07   5.60755e-07 DIIS
   @RHF iter  10:  -343.10584967231568   -1.50995e-08   1.73555e-07 DIIS
   @RHF iter  11:  -343.10584967396625   -1.65056e-09   7.73266e-08 DIIS
   @RHF iter  12:  -343.10584967420289   -2.36639e-10   3.07824e-08 DIIS
   @RHF iter  13:  -343.10584967424546   -4.25757e-11   8.81202e-09 DIIS
   @RHF iter  14:  -343.10584967424853   -3.06954e-12   3.28271e-09 DIIS
   @RHF iter  15:  -343.10584967425041   -1.87583e-12   1.30937e-09 DIIS
   @RHF iter  16:  -343.10584967425200   -1.59162e-12   4.21325e-10 DIIS
   @RHF iter  17:  -343.10584967425274   -7.38964e-13   1.22980e-10 DIIS
   @RHF iter  18:  -343.10584967424973    3.01270e-12   4.59512e-11 DIIS
  Energy and wave function converged.

  ==> Post-Iterations <==

    Orbital Energies [Eh]
    ---------------------

    Doubly Occupied:

       1A    -15.622518     2A    -15.530659     3A    -11.295374
       4A    -11.252324     5A    -11.243837     6A    -11.225829
       7A    -11.203760     8A    -11.197789     9A     -1.342173
      10A     -1.154303    11A     -1.032246    12A     -1.002930
      13A     -0.942064    14A     -0.823607    15A     -0.818681
      16A     -0.762766    17A     -0.741942    18A     -0.611335
      19A     -0.605105    20A     -0.596980    21A     -0.585029
      22A     -0.577226    23A     -0.554085    24A     -0.541091
      25A     -0.524273    26A     -0.488139    27A     -0.474453
      28A     -0.463588    29A     -0.411806    30A     -0.378879
      31A     -0.311463

    Virtual:

      32A      0.171933    33A      0.187146    34A      0.193311
      35A      0.200778    36A      0.219151    37A      0.229831
      38A      0.233671    39A      0.257601    40A      0.272310
      41A      0.278965    42A      0.287616    43A      0.295264
      44A      0.313300    45A      0.322766    46A      0.378088
      47A      0.398899    48A      0.410936    49A      0.422150
      50A      0.476879    51A      0.495033    52A      0.599664
      53A      0.608481    54A      0.612925    55A      0.615794
      56A      0.627035    57A      0.634084    58A      0.661132
      59A      0.672985    60A      0.696317    61A      0.702908
      62A      0.742341    63A      0.748074    64A      0.782146
      65A      0.795970    66A      0.828055    67A      0.830415
      68A      0.854163    69A      0.864930    70A      0.881930
      71A      0.890945    72A      0.901053    73A      0.905945
      74A      0.912264    75A      0.921731    76A      0.931296
      77A      0.943311    78A      0.956884    79A      0.966493
      80A      0.984139    81A      1.000803    82A      1.027655
      83A      1.056745    84A      1.096438    85A      1.124224
      86A      1.131245    87A      1.138651    88A      1.148222
      89A      1.169552    90A      1.213815    91A      1.250946
      92A      1.254199    93A      1.280018    94A      1.318116
      95A      1.325955    96A      1.329877    97A      1.420972
      98A      1.439894    99A      1.480386   100A      1.484936
     101A      1.493385   102A      1.516944   103A      1.568487
     104A      1.590669   105A      1.603411   106A      1.642004
     107A      1.685415   108A      1.696965   109A      1.700195
     110A      1.727529   111A      1.783392   112A      1.805926
     113A      1.813780   114A      1.852165   115A      1.880038
     116A      1.890513   117A      1.898199   118A      1.915941
     119A      1.923152   120A      1.939162   121A      1.957131
     122A      1.961789   123A      1.972058   124A      1.976654
     125A      1.983905   126A      1.984830   127A      1.999867
     128A      2.009620   129A      2.030607   130A      2.084749
     131A      2.101030   132A      2.115515   133A      2.131283
     134A      2.145469   135A      2.159321   136A      2.203254
     137A      2.227055   138A      2.297854   139A      2.313158
     140A      2.344794   141A      2.355038   142A      2.399106
     143A      2.440629   144A      2.442408   145A      2.470883
     146A      2.483119   147A      2.490164   148A      2.537634
     149A      2.575501   150A      2.589642   151A      2.607538
     152A      2.685099   153A      2.739828   154A      2.745144
     155A      2.777136   156A      2.780908   157A      2.792074
     158A      2.813067   159A      2.824273   160A      2.857094
     161A      2.864049   162A      2.887459   163A      2.902405
     164A      2.912301   165A      2.954184   166A      2.975022
     167A      3.009567   168A      3.072552   169A      3.162104
     170A      3.240910   171A      3.469058   172A      3.789171

    Final Occupation by Irrep:
              A
    DOCC [    31 ]

  @RHF Final Energy:  -343.10584967424973

   => Energetics <=

    Nuclear Repulsion Energy =            353.7251132479439661
    One-Electron Energy =               -1165.0294215692879334
    Two-Electron Energy =                 468.1984586470942986
    Total Energy =                       -343.1058496742497255

Computation Completed

Properties will be evaluated at   0.000000,   0.000000,   0.000000 [a0]

Properties computed using the SCF density matrix

  Nuclear Dipole Moment: [e a0]
     X:     3.3553      Y:    -9.4138      Z:     3.7078

  Electronic Dipole Moment: [e a0]
     X:    -3.6716      Y:    10.7899      Z:    -3.3626

  Dipole Moment: [e a0]
     X:    -0.3163      Y:     1.3761      Z:     0.3452     Total:     1.4536

  Dipole Moment: [D]
     X:    -0.8040      Y:     3.4977      Z:     0.8775     Total:     3.6946

*** tstop() called on ds3 at Sun Apr 26 22:23:30 2020
Module time:
	user time   =      40.37 seconds =       0.67 minutes
	system time =      18.69 seconds =       0.31 minutes
	total time  =         57 seconds =       0.95 minutes
Total time:
	user time   =      40.37 seconds =       0.67 minutes
	system time =      18.69 seconds =       0.31 minutes
	total time  =         57 seconds =       0.95 minutes
                                     G D M A

                                 by Anthony Stone

                           version 2.2.06, 22 June 2011

               Distributed Multipoles from Gaussian wavefunctions

Starting at 22:23:30 on 26 Apr 2020

Using SCF density matrix from file ./SSI/SSI-146VAL-165HIE-1-dimer.test.12751.fchk

                         Distributed Multipole Analysis

Standard DMA

Positions and radii in angstrom
Multipole moments in atomic units, ea_0^k for rank k

C          x =  0.469026  y = -2.221645  z =  2.233646 angstrom
           Maximum rank =  0   Radius =  0.650 angstrom
                   Q00  =  -0.236066

C          x =  0.291026  y = -3.511645  z =  1.438646 angstrom
           Maximum rank =  0   Radius =  0.650 angstrom
                   Q00  =  -0.225857

H          x =  0.940026  y = -1.448645  z =  1.655646 angstrom
           Maximum rank =  0   Radius =  0.325 angstrom
                   Q00  =   0.099603

H          x = -0.526974  y = -1.832645  z =  2.443646 angstrom
           Maximum rank =  0   Radius =  0.325 angstrom
                   Q00  =   0.058771

H          x =  0.931026  y = -2.365645  z =  3.205646 angstrom
           Maximum rank =  0   Radius =  0.325 angstrom
                   Q00  =   0.067972

H          x = -0.220974  y = -3.270645  z =  0.505646 angstrom
           Maximum rank =  0   Radius =  0.325 angstrom
                   Q00  =   0.090370

H          x =  1.262606  y = -3.972396  z =  1.206840 angstrom
           Maximum rank =  0   Radius =  0.325 angstrom
                   Q00  =   0.073393

H          x = -0.336018  y = -4.212926  z =  2.008752 angstrom
           Maximum rank =  0   Radius =  0.325 angstrom
                   Q00  =   0.068545

C          x =  1.143026  y =  0.397355  z = -2.356354 angstrom
           Maximum rank =  0   Radius =  0.650 angstrom
                   Q00  =  -0.191002

C          x = -1.090974  y =  0.749355  z =  0.488646 angstrom
           Maximum rank =  0   Radius =  0.650 angstrom
                   Q00  =   0.463721

C          x =  0.292026  y =  0.881355  z = -1.219354 angstrom
           Maximum rank =  0   Radius =  0.650 angstrom
                   Q00  =   0.225455

C          x =  0.053026  y =  2.143355  z = -0.775354 angstrom
           Maximum rank =  0   Radius =  0.650 angstrom
                   Q00  =  -0.002471

N          x = -0.435974  y =  0.026355  z = -0.413354 angstrom
           Maximum rank =  0   Radius =  0.650 angstrom
                   Q00  =  -0.777134

N          x = -0.812974  y =  2.034355  z =  0.291646 angstrom
           Maximum rank =  0   Radius =  0.650 angstrom
                   Q00  =  -0.479022

H          x = -1.749974  y =  0.358355  z =  1.257646 angstrom
           Maximum rank =  0   Radius =  0.325 angstrom
                   Q00  =   0.125308

H          x = -1.194974  y =  2.802355  z =  0.834646 angstrom
           Maximum rank =  0   Radius =  0.325 angstrom
                   Q00  =   0.220452

H          x =  0.467026  y =  3.054355  z = -1.190354 angstrom
           Maximum rank =  0   Radius =  0.325 angstrom
                   Q00  =   0.104022

H          x =  1.615026  y =  1.249355  z = -2.848354 angstrom
           Maximum rank =  0   Radius =  0.325 angstrom
                   Q00  =   0.091320

H          x =  0.475026  y = -0.072645  z = -3.078354 angstrom
           Maximum rank =  0   Radius =  0.325 angstrom
                   Q00  =   0.109888

H          x =  1.913406  y = -0.324158  z = -2.046624 angstrom
           Maximum rank =  0   Radius =  0.325 angstrom
                   Q00  =   0.112733

Total multipoles referred to origin at
           x =   0.000000,  y =    0.000000,  z =    0.000000 angstrom
                   Q00  =  -0.000000

Finished at 22:23:30 on 26 Apr 2020

  DMA results are available in the Python driver through the
	  variable('DMA DISTRIBUTED MULTIPOLES')
  and
	  variable('DMA TOTAL MULTIPOLES')
  commands.

    Psi4 stopped on: Sunday, 26 April 2020 10:23PM
    Psi4 wall time for execution: 0:00:57.56

*** Psi4 exiting successfully. Buy a developer a beer!
