                               Psi4 1.3.2 release

  ==> Input File <==

--------------------------------------------------------------------------
import numpy as np
set {scf_type pk
basis cc-pvdz
d_convergence 10
gdma_switch   0
gdma_limit    0
gdma_origin   [ 0.0,  0.0,  0.0 ]
}
molecule test {
    units Angstrom
    0 1
    --
    0 1
    C                1.474776489303646    -1.076627891064817     0.306746994678896
    C                2.933776489303646    -0.532627891064817     0.445746994678896
    H                1.462776489303646    -2.163627891064817     0.343746994678896
    H                0.864776489303646    -0.683627891064817     1.117746994678896
    H                1.049776489303647    -0.753627891064817    -0.643253005321104
    H                3.254776489303647    -0.774627891064817     1.459746994678896
    H                3.640792489303646    -1.023931891064817    -0.238905005321104
    H                2.977111489303646     0.562312108935183     0.349686994678896
    C               -1.507223510696354     0.554372108935183    -0.330253005321104
    C               -2.904223510696354     1.061372108935183    -0.429253005321104
    H               -1.283223510696354     0.172372108935183     0.662746994678896
    H               -1.367223510696354    -0.242627891064817    -1.060253005321104
    H               -0.800223510696354     1.348372108935183    -0.570253005321104
    H               -3.115223510696354     1.378372108935183    -1.450253005321104
    H               -3.099513510696353     1.889263108935183     0.268211994678896
    H               -3.550143510696353     0.214123108935183    -0.155479005321104

}
e, wfn = energy('scf', return_wfn=True)
gdma(wfn)
dmavals = variable('DMA DISTRIBUTED MULTIPOLES')
charges = np.array(dmavals)
print(charges)
np.save('SSI-048VAL-093THR-1-dimer.npy', np.array(charges))--------------------------------------------------------------------------

*** tstart() called on ds3
*** at Tue Apr 28 16:03:23 2020

   => Loading Basis Set <=

    Name: CC-PVDZ
    Role: ORBITAL
    Keyword: BASIS
    atoms 1-2, 9-10  entry C          line   138 file /theoryfs2/ds/metcalf/miniconda2/envs/tf2gpu/share/psi4/basis/cc-pvdz.gbs
    atoms 3-8, 11-16 entry H          line    22 file /theoryfs2/ds/metcalf/miniconda2/envs/tf2gpu/share/psi4/basis/cc-pvdz.gbs

         ---------------------------------------------------------
                                   SCF
               by Justin Turney, Rob Parrish, Andy Simmonett
                          and Daniel G. A. Smith
                              RHF Reference
                        1 Threads,    500 MiB Core
         ---------------------------------------------------------

  ==> Geometry <==

    Molecular point group: c1
    Full point group: C1

    Geometry (in Angstrom), charge = 0, multiplicity = 1:

       Center              X                  Y                   Z               Mass
    ------------   -----------------  -----------------  -----------------  -----------------
         C            1.474776489304    -1.076627891065     0.306746994679    12.000000000000
         C            2.933776489304    -0.532627891065     0.445746994679    12.000000000000
         H            1.462776489304    -2.163627891065     0.343746994679     1.007825032230
         H            0.864776489304    -0.683627891065     1.117746994679     1.007825032230
         H            1.049776489304    -0.753627891065    -0.643253005321     1.007825032230
         H            3.254776489304    -0.774627891065     1.459746994679     1.007825032230
         H            3.640792489304    -1.023931891065    -0.238905005321     1.007825032230
         H            2.977111489304     0.562312108935     0.349686994679     1.007825032230
         C           -1.507223510696     0.554372108935    -0.330253005321    12.000000000000
         C           -2.904223510696     1.061372108935    -0.429253005321    12.000000000000
         H           -1.283223510696     0.172372108935     0.662746994679     1.007825032230
         H           -1.367223510696    -0.242627891065    -1.060253005321     1.007825032230
         H           -0.800223510696     1.348372108935    -0.570253005321     1.007825032230
         H           -3.115223510696     1.378372108935    -1.450253005321     1.007825032230
         H           -3.099513510696     1.889263108935     0.268211994679     1.007825032230
         H           -3.550143510696     0.214123108935    -0.155479005321     1.007825032230

  Running in c1 symmetry.

  Rotational constants: A =      0.80992  B =      0.04414  C =      0.04326 [cm^-1]
  Rotational constants: A =  24280.72041  B =   1323.29590  C =   1296.78942 [MHz]
  Nuclear repulsion =  122.059947861065481

  Charge       = 0
  Multiplicity = 1
  Electrons    = 36
  Nalpha       = 18
  Nbeta        = 18

  ==> Algorithm <==

  SCF Algorithm Type is PK.
  DIIS enabled.
  MOM disabled.
  Fractional occupation disabled.
  Guess Type is SAD.
  Energy threshold   = 1.00e-06
  Density threshold  = 1.00e-10
  Integral threshold = 0.00e+00

  ==> Primary Basis <==

  Basis Set: CC-PVDZ
    Blend: CC-PVDZ
    Number of shells: 60
    Number of basis function: 116
    Number of Cartesian functions: 120
    Spherical Harmonics?: true
    Max angular momentum: 2

  ==> Pre-Iterations <==

   -------------------------------------------------------
    Irrep   Nso     Nmo     Nalpha   Nbeta   Ndocc  Nsocc
   -------------------------------------------------------
     A        116     116       0       0       0       0
   -------------------------------------------------------
    Total     116     116      18      18      18       0
   -------------------------------------------------------

  ==> Integral Setup <==

  Using integral reordering PK algorithm.
  Sizing the integral batches needed.
  Building batch lookup table.
   Calculation information:
      Number of atoms:                  16
      Number of AO shells:              60
      Number of primitives:            148
      Number of atomic orbitals:       120
      Number of basis functions:       116

      Integral cutoff                 1.00e-12
      Number of threads:                 1

	Batch   1 pq = [       0,    6786] index = [             0,23028291] size =     23028291
  Task number: 3
  Buffer size: 11059200
  Buffer per thread: 2
  We computed 1409324 shell quartets total.
  Whereas there are 1675365 unique shell quartets.

  ==> DiskJK: Disk-Based J/K Matrices <==

    J tasked:                  Yes
    K tasked:                  Yes
    wK tasked:                  No
    Memory [MiB]:              375
    Schwarz Cutoff:          1E-12

    OpenMP threads:              1

  Minimum eigenvalue in the overlap matrix is 5.7486338826E-03.
  Using Symmetric Orthogonalization.

  SCF Guess: Superposition of Atomic Densities via on-the-fly atomic UHF.

  ==> Iterations <==

                        Total Energy        Delta E     RMS |[F,P]|

   @RHF iter SAD:  -157.37799220972249   -1.57378e+02   0.00000e+00
   @RHF iter   1:  -158.30259250930649   -9.24600e-01   4.22759e-03 DIIS
   @RHF iter   2:  -158.43713515782619   -1.34543e-01   1.79830e-03 DIIS
   @RHF iter   3:  -158.46060074337717   -2.34656e-02   3.51893e-04 DIIS
   @RHF iter   4:  -158.46244974029261   -1.84900e-03   3.97984e-05 DIIS
   @RHF iter   5:  -158.46247386995859   -2.41297e-05   8.22800e-06 DIIS
   @RHF iter   6:  -158.46247470101628   -8.31058e-07   2.03597e-06 DIIS
   @RHF iter   7:  -158.46247473996414   -3.89479e-08   3.22903e-07 DIIS
   @RHF iter   8:  -158.46247474130618   -1.34204e-09   5.12900e-08 DIIS
   @RHF iter   9:  -158.46247474135188   -4.57021e-11   1.32163e-08 DIIS
   @RHF iter  10:  -158.46247474135484   -2.95586e-12   3.71647e-09 DIIS
   @RHF iter  11:  -158.46247474135453    3.12639e-13   9.02203e-10 DIIS
   @RHF iter  12:  -158.46247474135495   -4.26326e-13   1.73714e-10 DIIS
   @RHF iter  13:  -158.46247474135470    2.55795e-13   2.93830e-11 DIIS
  Energy and wave function converged.

  ==> Post-Iterations <==

    Orbital Energies [Eh]
    ---------------------

    Doubly Occupied:

       1A    -11.220719     2A    -11.217555     3A    -11.215639
       4A    -11.212350     5A     -1.028379     6A     -1.008452
       7A     -0.842268     8A     -0.830154     9A     -0.605786
      10A     -0.600405    11A     -0.593840    12A     -0.589976
      13A     -0.513180    14A     -0.494994    15A     -0.492303
      16A     -0.482743    17A     -0.477657    18A     -0.476243

    Virtual:

      19A      0.177309    20A      0.194465    21A      0.226077
      22A      0.233366    23A      0.242953    24A      0.258408
      25A      0.267413    26A      0.279182    27A      0.281124
      28A      0.292536    29A      0.311000    30A      0.344874
      31A      0.383803    32A      0.410754    33A      0.566983
      34A      0.586869    35A      0.594282    36A      0.605833
      37A      0.613366    38A      0.634574    39A      0.678142
      40A      0.691158    41A      0.704968    42A      0.786200
      43A      0.840989    44A      0.883403    45A      0.887612
      46A      0.890742    47A      0.894427    48A      0.897817
      49A      0.903876    50A      0.911475    51A      0.918684
      52A      0.923449    53A      0.941317    54A      0.950149
      55A      0.967690    56A      0.996593    57A      1.119593
      58A      1.126299    59A      1.146130    60A      1.162777
      61A      1.224313    62A      1.274816    63A      1.453661
      64A      1.473215    65A      1.482690    66A      1.493131
      67A      1.581475    68A      1.596995    69A      1.677949
      70A      1.685653    71A      1.695330    72A      1.697285
      73A      1.842903    74A      1.861024    75A      1.865877
      76A      1.876789    77A      1.906685    78A      1.926739
      79A      1.931376    80A      1.938478    81A      1.942881
      82A      1.946253    83A      1.950123    84A      1.962667
      85A      1.972581    86A      1.997162    87A      2.005688
      88A      2.061086    89A      2.078006    90A      2.090769
      91A      2.129955    92A      2.140575    93A      2.294719
      94A      2.311332    95A      2.321609    96A      2.351997
      97A      2.437257    98A      2.457435    99A      2.480306
     100A      2.497881   101A      2.552858   102A      2.561516
     103A      2.579142   104A      2.587736   105A      2.757534
     106A      2.762224   107A      2.790945   108A      2.793496
     109A      2.836291   110A      2.843958   111A      2.869656
     112A      2.887802   113A      2.946238   114A      2.958133
     115A      2.966163   116A      2.973113

    Final Occupation by Irrep:
              A
    DOCC [    18 ]

  @RHF Final Energy:  -158.46247474135470

   => Energetics <=

    Nuclear Repulsion Energy =            122.0599478610654813
    One-Electron Energy =                -453.2395598080956916
    Two-Electron Energy =                 172.7171372056754990
    Total Energy =                       -158.4624747413546970

Computation Completed

Properties will be evaluated at   0.000000,   0.000000,   0.000000 [a0]

Properties computed using the SCF density matrix

  Nuclear Dipole Moment: [e a0]
     X:     0.0323      Y:    -0.0724      Z:     0.0783

  Electronic Dipole Moment: [e a0]
     X:    -0.0394      Y:     0.0588      Z:    -0.0715

  Dipole Moment: [e a0]
     X:    -0.0071      Y:    -0.0136      Z:     0.0068     Total:     0.0168

  Dipole Moment: [D]
     X:    -0.0179      Y:    -0.0346      Z:     0.0173     Total:     0.0426

*** tstop() called on ds3 at Tue Apr 28 16:03:58 2020
Module time:
	user time   =       7.14 seconds =       0.12 minutes
	system time =       2.52 seconds =       0.04 minutes
	total time  =         35 seconds =       0.58 minutes
Total time:
	user time   =       7.14 seconds =       0.12 minutes
	system time =       2.52 seconds =       0.04 minutes
	total time  =         35 seconds =       0.58 minutes
                                     G D M A

                                 by Anthony Stone

                           version 2.2.06, 22 June 2011

               Distributed Multipoles from Gaussian wavefunctions

Starting at 16:3:58 on 28 Apr 2020

Using SCF density matrix from file ./SSI/SSI-048VAL-093THR-1-dimer.test.30296.fchk

                         Distributed Multipole Analysis

Standard DMA

Positions and radii in angstrom
Multipole moments in atomic units, ea_0^k for rank k

C          x =  1.474776  y = -1.076628  z =  0.306747 angstrom
           Maximum rank =  0   Radius =  0.650 angstrom
                   Q00  =  -0.241335

C          x =  2.933776  y = -0.532628  z =  0.445747 angstrom
           Maximum rank =  0   Radius =  0.650 angstrom
                   Q00  =  -0.250062

H          x =  1.462776  y = -2.163628  z =  0.343747 angstrom
           Maximum rank =  0   Radius =  0.325 angstrom
                   Q00  =   0.083449

H          x =  0.864776  y = -0.683628  z =  1.117747 angstrom
           Maximum rank =  0   Radius =  0.325 angstrom
                   Q00  =   0.081523

H          x =  1.049776  y = -0.753628  z = -0.643253 angstrom
           Maximum rank =  0   Radius =  0.325 angstrom
                   Q00  =   0.082921

H          x =  3.254776  y = -0.774628  z =  1.459747 angstrom
           Maximum rank =  0   Radius =  0.325 angstrom
                   Q00  =   0.075171

H          x =  3.640792  y = -1.023932  z = -0.238905 angstrom
           Maximum rank =  0   Radius =  0.325 angstrom
                   Q00  =   0.084187

H          x =  2.977111  y =  0.562312  z =  0.349687 angstrom
           Maximum rank =  0   Radius =  0.325 angstrom
                   Q00  =   0.083624

C          x = -1.507224  y =  0.554372  z = -0.330253 angstrom
           Maximum rank =  0   Radius =  0.650 angstrom
                   Q00  =  -0.233950

C          x = -2.904224  y =  1.061372  z = -0.429253 angstrom
           Maximum rank =  0   Radius =  0.650 angstrom
                   Q00  =  -0.213376

H          x = -1.283224  y =  0.172372  z =  0.662747 angstrom
           Maximum rank =  0   Radius =  0.325 angstrom
                   Q00  =   0.077329

H          x = -1.367224  y = -0.242628  z = -1.060253 angstrom
           Maximum rank =  0   Radius =  0.325 angstrom
                   Q00  =   0.073284

H          x = -0.800224  y =  1.348372  z = -0.570253 angstrom
           Maximum rank =  0   Radius =  0.325 angstrom
                   Q00  =   0.070976

H          x = -3.115224  y =  1.378372  z = -1.450253 angstrom
           Maximum rank =  0   Radius =  0.325 angstrom
                   Q00  =   0.078988

H          x = -3.099514  y =  1.889263  z =  0.268212 angstrom
           Maximum rank =  0   Radius =  0.325 angstrom
                   Q00  =   0.077116

H          x = -3.550144  y =  0.214123  z = -0.155479 angstrom
           Maximum rank =  0   Radius =  0.325 angstrom
                   Q00  =   0.070157

Total multipoles referred to origin at
           x =   0.000000,  y =    0.000000,  z =    0.000000 angstrom
                   Q00  =  -0.000000

Finished at 16:3:58 on 28 Apr 2020

  DMA results are available in the Python driver through the
	  variable('DMA DISTRIBUTED MULTIPOLES')
  and
	  variable('DMA TOTAL MULTIPOLES')
  commands.

    Psi4 stopped on: Tuesday, 28 April 2020 04:03PM
    Psi4 wall time for execution: 0:00:35.32

*** Psi4 exiting successfully. Buy a developer a beer!
