                               Psi4 1.3.2 release

  ==> Input File <==

--------------------------------------------------------------------------
import numpy as np
set {scf_type pk
basis cc-pvdz
d_convergence 10
gdma_switch   0
gdma_limit    0
gdma_origin   [ 0.0,  0.0,  0.0 ]
}
molecule test {
    units Angstrom
    0 1
    --
    0 1
    C                2.412340854112721     1.970131308810078     0.013432896477507
    C               -0.087659145887279     1.364131308810078    -0.479567103522493
    C                1.188340854112721     1.914131308810078    -0.841567103522493
    C               -0.951659145887279     1.523131308810078    -1.590567103522492
    C                1.061340854112721     2.370131308810079    -2.107567103522493
    C               -0.593659145887279     0.762131308810078     0.678432896477507
    C               -2.268659145887280     1.095131308810078    -1.574567103522493
    C               -1.902659145887279     0.316131308810078     0.688432896477507
    C               -2.727659145887279     0.480131308810078    -0.427567103522493
    N               -0.224659145887279     2.136131308810078    -2.570567103522493
    H                0.035340854112721     0.650131308810078     1.550432896477507
    H                3.288340854112721     1.912131308810078    -0.630567103522493
    H                2.415340854112721     1.099131308810078     0.669432896477507
    H                1.851340854112721     2.839131308810078    -2.685567103522493
    H               -0.550659145887279     2.378131308810078    -3.499567103522493
    H               -2.908659145887279     1.229131308810078    -2.435567103522493
    H               -2.299659145887279    -0.164868691189922     1.574432896477507
    H               -3.749659145887279     0.126131308810078    -0.387567103522493
    H                2.481990854112721     2.886411308810078     0.618062896477507
    C                1.339340854112721    -1.994868691189922     0.804432896477507
    C                2.377340854112721    -3.101868691189921     0.617432896477507
    C                0.185340854112721    -2.416868691189922     1.707432896477507
    O               -0.692659145887279    -3.168868691189922     1.281432896477507
    N                0.164340854112721    -1.931868691189922     2.950432896477507
    H                1.820340854112721    -1.103868691189922     1.205432896477507
    H                0.931340854112721    -1.727868691189921    -0.170567103522493
    H                3.119340854112721    -2.809868691189922    -0.117567103522493
    H                1.867340854112721    -3.985868691189922     0.246432896477507
    H               -0.602659145887279    -2.178868691189922     3.556432896477507
    H                0.874340854112721    -1.269868691189922     3.248432896477507
    H                2.875230854112721    -3.405088691189922     1.550252896477507

}
e, wfn = energy('scf', return_wfn=True)
gdma(wfn)
dmavals = variable('DMA DISTRIBUTED MULTIPOLES')
charges = np.array(dmavals)
print(charges)
np.save('SSI-181TRP-185GLN-1-dimer.npy', np.array(charges))--------------------------------------------------------------------------

*** tstart() called on ds3
*** at Tue Apr 28 00:23:36 2020

   => Loading Basis Set <=

    Name: CC-PVDZ
    Role: ORBITAL
    Keyword: BASIS
    atoms 1-9, 20-22   entry C          line   138 file /theoryfs2/ds/metcalf/miniconda2/envs/tf2gpu/share/psi4/basis/cc-pvdz.gbs
    atoms 10, 24       entry N          line   168 file /theoryfs2/ds/metcalf/miniconda2/envs/tf2gpu/share/psi4/basis/cc-pvdz.gbs
    atoms 11-19, 25-31 entry H          line    22 file /theoryfs2/ds/metcalf/miniconda2/envs/tf2gpu/share/psi4/basis/cc-pvdz.gbs
    atoms 23           entry O          line   198 file /theoryfs2/ds/metcalf/miniconda2/envs/tf2gpu/share/psi4/basis/cc-pvdz.gbs

         ---------------------------------------------------------
                                   SCF
               by Justin Turney, Rob Parrish, Andy Simmonett
                          and Daniel G. A. Smith
                              RHF Reference
                        1 Threads,    500 MiB Core
         ---------------------------------------------------------

  ==> Geometry <==

    Molecular point group: c1
    Full point group: C1

    Geometry (in Angstrom), charge = 0, multiplicity = 1:

       Center              X                  Y                   Z               Mass
    ------------   -----------------  -----------------  -----------------  -----------------
         C            2.412340854113     1.970131308810     0.013432896478    12.000000000000
         C           -0.087659145887     1.364131308810    -0.479567103522    12.000000000000
         C            1.188340854113     1.914131308810    -0.841567103522    12.000000000000
         C           -0.951659145887     1.523131308810    -1.590567103522    12.000000000000
         C            1.061340854113     2.370131308810    -2.107567103522    12.000000000000
         C           -0.593659145887     0.762131308810     0.678432896478    12.000000000000
         C           -2.268659145887     1.095131308810    -1.574567103522    12.000000000000
         C           -1.902659145887     0.316131308810     0.688432896478    12.000000000000
         C           -2.727659145887     0.480131308810    -0.427567103522    12.000000000000
         N           -0.224659145887     2.136131308810    -2.570567103522    14.003074004430
         H            0.035340854113     0.650131308810     1.550432896478     1.007825032230
         H            3.288340854113     1.912131308810    -0.630567103522     1.007825032230
         H            2.415340854113     1.099131308810     0.669432896478     1.007825032230
         H            1.851340854113     2.839131308810    -2.685567103522     1.007825032230
         H           -0.550659145887     2.378131308810    -3.499567103522     1.007825032230
         H           -2.908659145887     1.229131308810    -2.435567103522     1.007825032230
         H           -2.299659145887    -0.164868691190     1.574432896478     1.007825032230
         H           -3.749659145887     0.126131308810    -0.387567103522     1.007825032230
         H            2.481990854113     2.886411308810     0.618062896478     1.007825032230
         C            1.339340854113    -1.994868691190     0.804432896478    12.000000000000
         C            2.377340854113    -3.101868691190     0.617432896478    12.000000000000
         C            0.185340854113    -2.416868691190     1.707432896478    12.000000000000
         O           -0.692659145887    -3.168868691190     1.281432896478    15.994914619570
         N            0.164340854113    -1.931868691190     2.950432896478    14.003074004430
         H            1.820340854113    -1.103868691190     1.205432896478     1.007825032230
         H            0.931340854113    -1.727868691190    -0.170567103522     1.007825032230
         H            3.119340854113    -2.809868691190    -0.117567103522     1.007825032230
         H            1.867340854113    -3.985868691190     0.246432896478     1.007825032230
         H           -0.602659145887    -2.178868691190     3.556432896478     1.007825032230
         H            0.874340854113    -1.269868691190     3.248432896478     1.007825032230
         H            2.875230854113    -3.405088691190     1.550252896478     1.007825032230

  Running in c1 symmetry.

  Rotational constants: A =      0.02718  B =      0.01278  C =      0.01021 [cm^-1]
  Rotational constants: A =    814.85100  B =    383.27421  C =    306.22302 [MHz]
  Nuclear repulsion =  957.096585645036726

  Charge       = 0
  Multiplicity = 1
  Electrons    = 110
  Nalpha       = 55
  Nbeta        = 55

  ==> Algorithm <==

  SCF Algorithm Type is PK.
  DIIS enabled.
  MOM disabled.
  Fractional occupation disabled.
  Guess Type is SAD.
  Energy threshold   = 1.00e-06
  Density threshold  = 1.00e-10
  Integral threshold = 0.00e+00

  ==> Primary Basis <==

  Basis Set: CC-PVDZ
    Blend: CC-PVDZ
    Number of shells: 138
    Number of basis function: 290
    Number of Cartesian functions: 305
    Spherical Harmonics?: true
    Max angular momentum: 2

  ==> Pre-Iterations <==

   -------------------------------------------------------
    Irrep   Nso     Nmo     Nalpha   Nbeta   Ndocc  Nsocc
   -------------------------------------------------------
     A        290     290       0       0       0       0
   -------------------------------------------------------
    Total     290     290      55      55      55       0
   -------------------------------------------------------

  ==> Integral Setup <==

  Using integral reordering PK algorithm.
  Sizing the integral batches needed.
  Building batch lookup table.
   Calculation information:
      Number of atoms:                  31
      Number of AO shells:             138
      Number of primitives:            410
      Number of atomic orbitals:       305
      Number of basis functions:       290

      Integral cutoff                 1.00e-12
      Number of threads:                 1

	Batch   1 pq = [       0,    9405] index = [             0,44231715] size =     44231715
	Batch   2 pq = [    9405,   13301] index = [      44231715,88464951] size =     44233236
	Batch   3 pq = [   13301,   16290] index = [      88464951,132690195] size =     44225244
	Batch   4 pq = [   16290,   18810] index = [     132690195,176917455] size =     44227260
	Batch   5 pq = [   18810,   21030] index = [     176917455,221140965] size =     44223510
	Batch   6 pq = [   21030,   23037] index = [     221140965,265363203] size =     44222238
	Batch   7 pq = [   23037,   24883] index = [     265363203,309594286] size =     44231083
	Batch   8 pq = [   24883,   26601] index = [     309594286,353819901] size =     44225615
	Batch   9 pq = [   26601,   28214] index = [     353819901,398029005] size =     44209104
	Batch  10 pq = [   28214,   29740] index = [     398029005,442248670] size =     44219665
	Batch  11 pq = [   29740,   31191] index = [     442248670,486454836] size =     44206166
	Batch  12 pq = [   31191,   32578] index = [     486454836,530679331] size =     44224495
	Batch  13 pq = [   32578,   33908] index = [     530679331,574893186] size =     44213855
	Batch  14 pq = [   33908,   35188] index = [     574893186,619115266] size =     44222080
	Batch  15 pq = [   35188,   36423] index = [     619115266,663335676] size =     44220410
	Batch  16 pq = [   36423,   37617] index = [     663335676,707538153] size =     44202477
	Batch  17 pq = [   37617,   38775] index = [     707538153,751769700] size =     44231547
	Batch  18 pq = [   38775,   39899] index = [     751769700,795985050] size =     44215350
	Batch  19 pq = [   39899,   40992] index = [     795985050,840192528] size =     44207478
	Batch  20 pq = [   40992,   42057] index = [     840192528,884416653] size =     44224125
	Batch  21 pq = [   42057,   42195] index = [     884416653,890230110] size =      5813457
  Task number: 81
  Buffer size: 11059200
  Buffer per thread: 2
  We computed 49063209 shell quartets total.
  Whereas there are 45998436 unique shell quartets.
     6.66 percent of shell quartets recomputed by reordering.

  ==> DiskJK: Disk-Based J/K Matrices <==

    J tasked:                  Yes
    K tasked:                  Yes
    wK tasked:                  No
    Memory [MiB]:              375
    Schwarz Cutoff:          1E-12

    OpenMP threads:              1

  Minimum eigenvalue in the overlap matrix is 2.2868394574E-04.
  Using Symmetric Orthogonalization.

  SCF Guess: Superposition of Atomic Densities via on-the-fly atomic UHF.

  ==> Iterations <==

                        Total Energy        Delta E     RMS |[F,P]|

   @RHF iter SAD:  -646.67691201200307   -6.46677e+02   0.00000e+00
   @RHF iter   1:  -647.18407155610487   -5.07160e-01   2.70845e-03 DIIS
   @RHF iter   2:  -647.48216098864259   -2.98089e-01   1.44061e-03 DIIS
   @RHF iter   3:  -647.55573035262103   -7.35694e-02   3.42065e-04 DIIS
   @RHF iter   4:  -647.56159750079496   -5.86715e-03   1.33738e-04 DIIS
   @RHF iter   5:  -647.56248683183310   -8.89331e-04   2.12810e-05 DIIS
   @RHF iter   6:  -647.56254069055876   -5.38587e-05   1.02939e-05 DIIS
   @RHF iter   7:  -647.56255099594523   -1.03054e-05   4.40320e-06 DIIS
   @RHF iter   8:  -647.56255354837799   -2.55243e-06   1.65297e-06 DIIS
   @RHF iter   9:  -647.56255391557147   -3.67193e-07   7.35137e-07 DIIS
   @RHF iter  10:  -647.56255398955318   -7.39817e-08   3.00767e-07 DIIS
   @RHF iter  11:  -647.56255400805276   -1.84996e-08   1.34930e-07 DIIS
   @RHF iter  12:  -647.56255401184899   -3.79623e-09   6.21901e-08 DIIS
   @RHF iter  13:  -647.56255401263252   -7.83530e-10   2.47467e-08 DIIS
   @RHF iter  14:  -647.56255401274927   -1.16756e-10   8.81310e-09 DIIS
   @RHF iter  15:  -647.56255401275951   -1.02318e-11   2.97821e-09 DIIS
   @RHF iter  16:  -647.56255401276394   -4.43379e-12   1.09749e-09 DIIS
   @RHF iter  17:  -647.56255401276428   -3.41061e-13   5.14045e-10 DIIS
   @RHF iter  18:  -647.56255401275791    6.36646e-12   1.94931e-10 DIIS
   @RHF iter  19:  -647.56255401276474   -6.82121e-12   9.82190e-11 DIIS
  Energy and wave function converged.

  ==> Post-Iterations <==

    Orbital Energies [Eh]
    ---------------------

    Doubly Occupied:

       1A    -20.496085     2A    -15.600726     3A    -15.585817
       4A    -11.338843     5A    -11.264388     6A    -11.262363
       7A    -11.232463     8A    -11.231815     9A    -11.229328
      10A    -11.227762    11A    -11.225896    12A    -11.224448
      13A    -11.219955    14A    -11.218742    15A    -11.217938
      16A     -1.357038    17A     -1.294328    18A     -1.208158
      19A     -1.129698    20A     -1.077693    21A     -1.042498
      22A     -0.999020    23A     -0.988027    24A     -0.935880
      25A     -0.883845    26A     -0.839308    27A     -0.804540
      28A     -0.782385    29A     -0.753982    30A     -0.720407
      31A     -0.718726    32A     -0.662026    33A     -0.658378
      34A     -0.642103    35A     -0.606637    36A     -0.604704
      37A     -0.594318    38A     -0.592821    39A     -0.581555
      40A     -0.570936    41A     -0.562702    42A     -0.555627
      43A     -0.541216    44A     -0.528250    45A     -0.521623
      46A     -0.496454    47A     -0.494936    48A     -0.490390
      49A     -0.472306    50A     -0.460725    51A     -0.398523
      52A     -0.396275    53A     -0.375030    54A     -0.293847
      55A     -0.277911

    Virtual:

      56A      0.125326    57A      0.152773    58A      0.172893
      59A      0.181406    60A      0.189860    61A      0.197338
      62A      0.209217    63A      0.215449    64A      0.217847
      65A      0.232181    66A      0.240218    67A      0.254024
      68A      0.258188    69A      0.264229    70A      0.277172
      71A      0.281670    72A      0.290911    73A      0.292626
      74A      0.301036    75A      0.365380    76A      0.368837
      77A      0.374848    78A      0.394853    79A      0.406494
      80A      0.420846    81A      0.430822    82A      0.451493
      83A      0.474472    84A      0.476780    85A      0.489074
      86A      0.502025    87A      0.518044    88A      0.579414
      89A      0.593420    90A      0.601330    91A      0.617271
      92A      0.624899    93A      0.636895    94A      0.641178
      95A      0.651036    96A      0.669594    97A      0.683084
      98A      0.693186    99A      0.698479   100A      0.712944
     101A      0.724312   102A      0.730369   103A      0.735925
     104A      0.739057   105A      0.744752   106A      0.759106
     107A      0.762946   108A      0.769578   109A      0.775626
     110A      0.791048   111A      0.798277   112A      0.803179
     113A      0.824582   114A      0.832918   115A      0.859736
     116A      0.870286   117A      0.874548   118A      0.879606
     119A      0.892104   120A      0.894023   121A      0.897281
     122A      0.898626   123A      0.907865   124A      0.914942
     125A      0.921646   126A      0.937296   127A      0.944172
     128A      0.952734   129A      0.959600   130A      0.967427
     131A      0.983066   132A      0.988474   133A      0.998311
     134A      1.003604   135A      1.014389   136A      1.023583
     137A      1.043008   138A      1.060648   139A      1.067694
     140A      1.076216   141A      1.094180   142A      1.105410
     143A      1.121086   144A      1.131683   145A      1.144100
     146A      1.149841   147A      1.156962   148A      1.170928
     149A      1.195183   150A      1.217261   151A      1.233266
     152A      1.236952   153A      1.253925   154A      1.267317
     155A      1.277789   156A      1.292601   157A      1.303230
     158A      1.322253   159A      1.329374   160A      1.333623
     161A      1.347200   162A      1.361855   163A      1.366680
     164A      1.390760   165A      1.399120   166A      1.419810
     167A      1.448280   168A      1.458263   169A      1.469688
     170A      1.490014   171A      1.490494   172A      1.504766
     173A      1.538651   174A      1.556731   175A      1.578624
     176A      1.601003   177A      1.628165   178A      1.640181
     179A      1.651704   180A      1.665720   181A      1.684182
     182A      1.693475   183A      1.713405   184A      1.741941
     185A      1.755143   186A      1.773701   187A      1.778428
     188A      1.789836   189A      1.807808   190A      1.816675
     191A      1.823754   192A      1.843922   193A      1.847395
     194A      1.870391   195A      1.884277   196A      1.889719
     197A      1.898492   198A      1.900570   199A      1.909165
     200A      1.914246   201A      1.923450   202A      1.930892
     203A      1.933515   204A      1.944400   205A      1.952819
     206A      1.957386   207A      1.962238   208A      1.982242
     209A      1.986632   210A      1.993101   211A      2.006639
     212A      2.011849   213A      2.018740   214A      2.034059
     215A      2.052187   216A      2.057335   217A      2.078387
     218A      2.084188   219A      2.090590   220A      2.098653
     221A      2.112102   222A      2.116555   223A      2.119073
     224A      2.131106   225A      2.147776   226A      2.167648
     227A      2.179742   228A      2.184362   229A      2.194473
     230A      2.213308   231A      2.243484   232A      2.267225
     233A      2.282684   234A      2.306494   235A      2.316569
     236A      2.325277   237A      2.344214   238A      2.352107
     239A      2.389973   240A      2.406086   241A      2.424803
     242A      2.428197   243A      2.453049   244A      2.468716
     245A      2.491075   246A      2.501938   247A      2.527270
     248A      2.541003   249A      2.575730   250A      2.589712
     251A      2.594721   252A      2.603819   253A      2.607495
     254A      2.635103   255A      2.644030   256A      2.669910
     257A      2.688957   258A      2.710155   259A      2.760035
     260A      2.775409   261A      2.779862   262A      2.784148
     263A      2.790371   264A      2.814291   265A      2.839702
     266A      2.847054   267A      2.864917   268A      2.871847
     269A      2.880385   270A      2.917103   271A      2.926947
     272A      2.980338   273A      2.994000   274A      3.006638
     275A      3.045269   276A      3.059012   277A      3.082774
     278A      3.108323   279A      3.128002   280A      3.145379
     281A      3.213530   282A      3.299707   283A      3.315444
     284A      3.384331   285A      3.515454   286A      3.537873
     287A      3.742754   288A      3.866582   289A      3.911298
     290A      3.971008

    Final Occupation by Irrep:
              A
    DOCC [    55 ]

  @RHF Final Energy:  -647.56255401276474

   => Energetics <=

    Nuclear Repulsion Energy =            957.0965856450367255
    One-Electron Energy =               -2780.3354882544181237
    Two-Electron Energy =                1175.6763485966166627
    Total Energy =                       -647.5625540127648492

Computation Completed

Properties will be evaluated at   0.000000,   0.000000,   0.000000 [a0]

Properties computed using the SCF density matrix

  Nuclear Dipole Moment: [e a0]
     X:    10.7299      Y:    -3.3212      Z:     4.0290

  Electronic Dipole Moment: [e a0]
     X:    -9.6903      Y:     4.6151      Z:    -4.0484

  Dipole Moment: [e a0]
     X:     1.0396      Y:     1.2940      Z:    -0.0194     Total:     1.6600

  Dipole Moment: [D]
     X:     2.6424      Y:     3.2889      Z:    -0.0492     Total:     4.2192

*** tstop() called on ds3 at Tue Apr 28 00:42:35 2020
Module time:
	user time   =     421.86 seconds =       7.03 minutes
	system time =     148.42 seconds =       2.47 minutes
	total time  =       1139 seconds =      18.98 minutes
Total time:
	user time   =     421.86 seconds =       7.03 minutes
	system time =     148.42 seconds =       2.47 minutes
	total time  =       1139 seconds =      18.98 minutes
                                     G D M A

                                 by Anthony Stone

                           version 2.2.06, 22 June 2011

               Distributed Multipoles from Gaussian wavefunctions

Starting at 0:42:35 on 28 Apr 2020

Using SCF density matrix from file ./SSI/SSI-181TRP-185GLN-1-dimer.test.5233.fchk

                         Distributed Multipole Analysis

Standard DMA

Positions and radii in angstrom
Multipole moments in atomic units, ea_0^k for rank k

C          x =  2.412341  y =  1.970131  z =  0.013433 angstrom
           Maximum rank =  0   Radius =  0.650 angstrom
                   Q00  =  -0.212211

C          x = -0.087659  y =  1.364131  z = -0.479567 angstrom
           Maximum rank =  0   Radius =  0.650 angstrom
                   Q00  =  -0.059549

C          x =  1.188341  y =  1.914131  z = -0.841567 angstrom
           Maximum rank =  0   Radius =  0.650 angstrom
                   Q00  =  -0.118640

C          x = -0.951659  y =  1.523131  z = -1.590567 angstrom
           Maximum rank =  0   Radius =  0.650 angstrom
                   Q00  =   0.248462

C          x =  1.061341  y =  2.370131  z = -2.107567 angstrom
           Maximum rank =  0   Radius =  0.650 angstrom
                   Q00  =   0.073507

C          x = -0.593659  y =  0.762131  z =  0.678433 angstrom
           Maximum rank =  0   Radius =  0.650 angstrom
                   Q00  =  -0.088248

C          x = -2.268659  y =  1.095131  z = -1.574567 angstrom
           Maximum rank =  0   Radius =  0.650 angstrom
                   Q00  =  -0.120452

C          x = -1.902659  y =  0.316131  z =  0.688433 angstrom
           Maximum rank =  0   Radius =  0.650 angstrom
                   Q00  =  -0.099214

C          x = -2.727659  y =  0.480131  z = -0.427567 angstrom
           Maximum rank =  0   Radius =  0.650 angstrom
                   Q00  =   0.015367

N          x = -0.224659  y =  2.136131  z = -2.570567 angstrom
           Maximum rank =  0   Radius =  0.650 angstrom
                   Q00  =  -0.501616

H          x =  0.035341  y =  0.650131  z =  1.550433 angstrom
           Maximum rank =  0   Radius =  0.325 angstrom
                   Q00  =   0.041469

H          x =  3.288341  y =  1.912131  z = -0.630567 angstrom
           Maximum rank =  0   Radius =  0.325 angstrom
                   Q00  =   0.104524

H          x =  2.415341  y =  1.099131  z =  0.669433 angstrom
           Maximum rank =  0   Radius =  0.325 angstrom
                   Q00  =   0.093250

H          x =  1.851341  y =  2.839131  z = -2.685567 angstrom
           Maximum rank =  0   Radius =  0.325 angstrom
                   Q00  =   0.099323

H          x = -0.550659  y =  2.378131  z = -3.499567 angstrom
           Maximum rank =  0   Radius =  0.325 angstrom
                   Q00  =   0.217748

H          x = -2.908659  y =  1.229131  z = -2.435567 angstrom
           Maximum rank =  0   Radius =  0.325 angstrom
                   Q00  =   0.073546

H          x = -2.299659  y = -0.164869  z =  1.574433 angstrom
           Maximum rank =  0   Radius =  0.325 angstrom
                   Q00  =   0.063086

H          x = -3.749659  y =  0.126131  z = -0.387567 angstrom
           Maximum rank =  0   Radius =  0.325 angstrom
                   Q00  =   0.066747

H          x =  2.481991  y =  2.886411  z =  0.618063 angstrom
           Maximum rank =  0   Radius =  0.325 angstrom
                   Q00  =   0.101086

C          x =  1.339341  y = -1.994869  z =  0.804433 angstrom
           Maximum rank =  0   Radius =  0.650 angstrom
                   Q00  =  -0.110895

C          x =  2.377341  y = -3.101869  z =  0.617433 angstrom
           Maximum rank =  0   Radius =  0.650 angstrom
                   Q00  =  -0.214759

C          x =  0.185341  y = -2.416869  z =  1.707433 angstrom
           Maximum rank =  0   Radius =  0.650 angstrom
                   Q00  =   0.809541

O          x = -0.692659  y = -3.168869  z =  1.281433 angstrom
           Maximum rank =  0   Radius =  0.650 angstrom
                   Q00  =  -0.795279

N          x =  0.164341  y = -1.931869  z =  2.950433 angstrom
           Maximum rank =  0   Radius =  0.650 angstrom
                   Q00  =  -0.527680

H          x =  1.820341  y = -1.103869  z =  1.205433 angstrom
           Maximum rank =  0   Radius =  0.325 angstrom
                   Q00  =   0.029056

H          x =  0.931341  y = -1.727869  z = -0.170567 angstrom
           Maximum rank =  0   Radius =  0.325 angstrom
                   Q00  =   0.116911

H          x =  3.119341  y = -2.809869  z = -0.117567 angstrom
           Maximum rank =  0   Radius =  0.325 angstrom
                   Q00  =   0.091468

H          x =  1.867341  y = -3.985869  z =  0.246433 angstrom
           Maximum rank =  0   Radius =  0.325 angstrom
                   Q00  =   0.102804

H          x = -0.602659  y = -2.178869  z =  3.556433 angstrom
           Maximum rank =  0   Radius =  0.325 angstrom
                   Q00  =   0.219828

H          x =  0.874341  y = -1.269869  z =  3.248433 angstrom
           Maximum rank =  0   Radius =  0.325 angstrom
                   Q00  =   0.205886

H          x =  2.875231  y = -3.405089  z =  1.550253 angstrom
           Maximum rank =  0   Radius =  0.325 angstrom
                   Q00  =   0.074933

Total multipoles referred to origin at
           x =   0.000000,  y =    0.000000,  z =    0.000000 angstrom
                   Q00  =  -0.000000

Finished at 0:42:35 on 28 Apr 2020

  DMA results are available in the Python driver through the
	  variable('DMA DISTRIBUTED MULTIPOLES')
  and
	  variable('DMA TOTAL MULTIPOLES')
  commands.

    Psi4 stopped on: Tuesday, 28 April 2020 12:42AM
    Psi4 wall time for execution: 0:18:59.23

*** Psi4 exiting successfully. Buy a developer a beer!
