                               Psi4 1.3.2 release

  ==> Input File <==

--------------------------------------------------------------------------
import numpy as np
set {scf_type pk
basis cc-pvdz
d_convergence 10
gdma_switch   0
gdma_limit    0
gdma_origin   [ 0.0,  0.0,  0.0 ]
}
molecule test {
    units Angstrom
    0 1
    --
    0 1
    C                0.854865141887182     0.835529957993839    -1.547180702899855
    C                1.579865141887183    -0.248470042006161    -2.317180702899856
    H                1.035865141887182     0.721529957993839    -0.481180702899856
    H                1.242865141887182     1.808529957993839    -1.853180702899855
    H               -0.213134858112818     0.831529957993839    -1.753180702899856
    H                1.464865141887183    -0.050470042006161    -3.381180702899856
    H                1.176795141887182    -1.244322042006161    -2.080925702899856
    H                2.657065141887182    -0.188505042006161    -2.102607702899855
    C               -0.999134858112818    -0.348470042006161     1.204819297100145
    C               -1.449134858112818    -0.242470042006161     2.659819297100144
    H               -1.351134858112818     0.504529957993839     0.627819297100144
    H                0.089865141887182    -0.370470042006161     1.184819297100145
    H               -1.373134858112818    -1.273470042006161     0.763819297100144
    H               -1.190134858112817     0.729529957993839     3.069819297100144
    H               -0.857134858112818    -0.986470042006161     3.191819297100144
    H               -2.521434858112818    -0.435742042006161     2.810859297100144

}
e, wfn = energy('scf', return_wfn=True)
gdma(wfn)
dmavals = variable('DMA DISTRIBUTED MULTIPOLES')
charges = np.array(dmavals)
print(charges)
np.save('SSI-076LEU-117ILE-2-dimer.npy', np.array(charges))--------------------------------------------------------------------------

*** tstart() called on ds3
*** at Sun Apr 26 17:38:44 2020

   => Loading Basis Set <=

    Name: CC-PVDZ
    Role: ORBITAL
    Keyword: BASIS
    atoms 1-2, 9-10  entry C          line   138 file /theoryfs2/ds/metcalf/miniconda2/envs/tf2gpu/share/psi4/basis/cc-pvdz.gbs
    atoms 3-8, 11-16 entry H          line    22 file /theoryfs2/ds/metcalf/miniconda2/envs/tf2gpu/share/psi4/basis/cc-pvdz.gbs

         ---------------------------------------------------------
                                   SCF
               by Justin Turney, Rob Parrish, Andy Simmonett
                          and Daniel G. A. Smith
                              RHF Reference
                        1 Threads,    500 MiB Core
         ---------------------------------------------------------

  ==> Geometry <==

    Molecular point group: c1
    Full point group: C1

    Geometry (in Angstrom), charge = 0, multiplicity = 1:

       Center              X                  Y                   Z               Mass
    ------------   -----------------  -----------------  -----------------  -----------------
         C            0.854865141887     0.835529957994    -1.547180702900    12.000000000000
         C            1.579865141887    -0.248470042006    -2.317180702900    12.000000000000
         H            1.035865141887     0.721529957994    -0.481180702900     1.007825032230
         H            1.242865141887     1.808529957994    -1.853180702900     1.007825032230
         H           -0.213134858113     0.831529957994    -1.753180702900     1.007825032230
         H            1.464865141887    -0.050470042006    -3.381180702900     1.007825032230
         H            1.176795141887    -1.244322042006    -2.080925702900     1.007825032230
         H            2.657065141887    -0.188505042006    -2.102607702900     1.007825032230
         C           -0.999134858113    -0.348470042006     1.204819297100    12.000000000000
         C           -1.449134858113    -0.242470042006     2.659819297100    12.000000000000
         H           -1.351134858113     0.504529957994     0.627819297100     1.007825032230
         H            0.089865141887    -0.370470042006     1.184819297100     1.007825032230
         H           -1.373134858113    -1.273470042006     0.763819297100     1.007825032230
         H           -1.190134858113     0.729529957994     3.069819297100     1.007825032230
         H           -0.857134858113    -0.986470042006     3.191819297100     1.007825032230
         H           -2.521434858113    -0.435742042006     2.810859297100     1.007825032230

  Running in c1 symmetry.

  Rotational constants: A =      0.64356  B =      0.04721  C =      0.04585 [cm^-1]
  Rotational constants: A =  19293.41591  B =   1415.39902  C =   1374.62642 [MHz]
  Nuclear repulsion =  122.881107216425505

  Charge       = 0
  Multiplicity = 1
  Electrons    = 36
  Nalpha       = 18
  Nbeta        = 18

  ==> Algorithm <==

  SCF Algorithm Type is PK.
  DIIS enabled.
  MOM disabled.
  Fractional occupation disabled.
  Guess Type is SAD.
  Energy threshold   = 1.00e-06
  Density threshold  = 1.00e-10
  Integral threshold = 0.00e+00

  ==> Primary Basis <==

  Basis Set: CC-PVDZ
    Blend: CC-PVDZ
    Number of shells: 60
    Number of basis function: 116
    Number of Cartesian functions: 120
    Spherical Harmonics?: true
    Max angular momentum: 2

  ==> Pre-Iterations <==

   -------------------------------------------------------
    Irrep   Nso     Nmo     Nalpha   Nbeta   Ndocc  Nsocc
   -------------------------------------------------------
     A        116     116       0       0       0       0
   -------------------------------------------------------
    Total     116     116      18      18      18       0
   -------------------------------------------------------

  ==> Integral Setup <==

  Using integral reordering PK algorithm.
  Sizing the integral batches needed.
  Building batch lookup table.
   Calculation information:
      Number of atoms:                  16
      Number of AO shells:              60
      Number of primitives:            148
      Number of atomic orbitals:       120
      Number of basis functions:       116

      Integral cutoff                 1.00e-12
      Number of threads:                 1

	Batch   1 pq = [       0,    6786] index = [             0,23028291] size =     23028291
  Task number: 3
  Buffer size: 11059200
  Buffer per thread: 2
  We computed 1424401 shell quartets total.
  Whereas there are 1675365 unique shell quartets.

  ==> DiskJK: Disk-Based J/K Matrices <==

    J tasked:                  Yes
    K tasked:                  Yes
    wK tasked:                  No
    Memory [MiB]:              375
    Schwarz Cutoff:          1E-12

    OpenMP threads:              1

  Minimum eigenvalue in the overlap matrix is 6.8167016522E-03.
  Using Symmetric Orthogonalization.

  SCF Guess: Superposition of Atomic Densities via on-the-fly atomic UHF.

  ==> Iterations <==

                        Total Energy        Delta E     RMS |[F,P]|

   @RHF iter SAD:  -157.40315854751472   -1.57403e+02   0.00000e+00
   @RHF iter   1:  -158.30228591611473   -8.99127e-01   4.24631e-03 DIIS
   @RHF iter   2:  -158.43762692615857   -1.35341e-01   1.80603e-03 DIIS
   @RHF iter   3:  -158.46126548781069   -2.36386e-02   3.51368e-04 DIIS
   @RHF iter   4:  -158.46310788220143   -1.84239e-03   3.87492e-05 DIIS
   @RHF iter   5:  -158.46313132169797   -2.34395e-05   6.69718e-06 DIIS
   @RHF iter   6:  -158.46313196679017   -6.45092e-07   1.23991e-06 DIIS
   @RHF iter   7:  -158.46313198179979   -1.50096e-08   3.31313e-07 DIIS
   @RHF iter   8:  -158.46313198286254   -1.06274e-09   4.81115e-08 DIIS
   @RHF iter   9:  -158.46313198289928   -3.67493e-11   1.20114e-08 DIIS
   @RHF iter  10:  -158.46313198290161   -2.33058e-12   3.31991e-09 DIIS
   @RHF iter  11:  -158.46313198290150    1.13687e-13   9.70200e-10 DIIS
   @RHF iter  12:  -158.46313198290113    3.69482e-13   2.04023e-10 DIIS
   @RHF iter  13:  -158.46313198290127   -1.42109e-13   2.77538e-11 DIIS
  Energy and wave function converged.

  ==> Post-Iterations <==

    Orbital Energies [Eh]
    ---------------------

    Doubly Occupied:

       1A    -11.217207     2A    -11.216758     3A    -11.215800
       4A    -11.212934     5A     -1.021934     6A     -1.018427
       7A     -0.840038     8A     -0.831722     9A     -0.603982
      10A     -0.600948    11A     -0.597341    12A     -0.594105
      13A     -0.506959    14A     -0.499570    15A     -0.490167
      16A     -0.486551    17A     -0.479048    18A     -0.475340

    Virtual:

      19A      0.176266    20A      0.194983    21A      0.226946
      22A      0.236721    23A      0.242383    24A      0.259604
      25A      0.262790    26A      0.277333    27A      0.280339
      28A      0.291708    29A      0.306208    30A      0.353063
      31A      0.396929    32A      0.408258    33A      0.564991
      34A      0.592385    35A      0.601189    36A      0.603490
      37A      0.608597    38A      0.635945    39A      0.673891
      40A      0.682612    41A      0.700531    42A      0.796759
      43A      0.855935    44A      0.868308    45A      0.882161
      46A      0.893184    47A      0.893529    48A      0.895033
      49A      0.906321    50A      0.915582    51A      0.916579
      52A      0.924835    53A      0.950959    54A      0.956158
      55A      0.978471    56A      0.983400    57A      1.118089
      58A      1.128600    59A      1.132629    60A      1.172357
      61A      1.224649    62A      1.263448    63A      1.460089
      64A      1.475765    65A      1.489393    66A      1.500920
      67A      1.571873    68A      1.600653    69A      1.677192
      70A      1.683913    71A      1.690677    72A      1.710459
      73A      1.855625    74A      1.863157    75A      1.866606
      76A      1.875997    77A      1.901504    78A      1.924988
      79A      1.940564    80A      1.944336    81A      1.948549
      82A      1.949287    83A      1.959963    84A      1.961788
      85A      1.964827    86A      1.976690    87A      1.993238
      88A      2.058483    89A      2.099508    90A      2.103433
      91A      2.123352    92A      2.152841    93A      2.299032
      94A      2.305324    95A      2.308334    96A      2.344457
      97A      2.442661    98A      2.452855    99A      2.470134
     100A      2.490336   101A      2.561557   102A      2.577806
     103A      2.579541   104A      2.590867   105A      2.763521
     106A      2.773236   107A      2.787478   108A      2.799574
     109A      2.838844   110A      2.860604   111A      2.862969
     112A      2.867998   113A      2.944107   114A      2.957167
     115A      2.970397   116A      2.990622

    Final Occupation by Irrep:
              A
    DOCC [    18 ]

  @RHF Final Energy:  -158.46313198290127

   => Energetics <=

    Nuclear Repulsion Energy =            122.8811072164255052
    One-Electron Energy =                -454.8708171737778798
    Two-Electron Energy =                 173.5265779744511008
    Total Energy =                       -158.4631319829012739

Computation Completed

Properties will be evaluated at   0.000000,   0.000000,   0.000000 [a0]

Properties computed using the SCF density matrix

  Nuclear Dipole Moment: [e a0]
     X:     0.1511      Y:     0.0433      Z:    -0.0031

  Electronic Dipole Moment: [e a0]
     X:    -0.1435      Y:    -0.0304      Z:     0.0052

  Dipole Moment: [e a0]
     X:     0.0076      Y:     0.0129      Z:     0.0021     Total:     0.0151

  Dipole Moment: [D]
     X:     0.0193      Y:     0.0327      Z:     0.0054     Total:     0.0384

*** tstop() called on ds3 at Sun Apr 26 17:38:56 2020
Module time:
	user time   =       7.35 seconds =       0.12 minutes
	system time =       2.60 seconds =       0.04 minutes
	total time  =         12 seconds =       0.20 minutes
Total time:
	user time   =       7.35 seconds =       0.12 minutes
	system time =       2.60 seconds =       0.04 minutes
	total time  =         12 seconds =       0.20 minutes
                                     G D M A

                                 by Anthony Stone

                           version 2.2.06, 22 June 2011

               Distributed Multipoles from Gaussian wavefunctions

Starting at 17:38:56 on 26 Apr 2020

Using SCF density matrix from file ./SSI/SSI-076LEU-117ILE-2-dimer.test.27075.fchk

                         Distributed Multipole Analysis

Standard DMA

Positions and radii in angstrom
Multipole moments in atomic units, ea_0^k for rank k

C          x =  0.854865  y =  0.835530  z = -1.547181 angstrom
           Maximum rank =  0   Radius =  0.650 angstrom
                   Q00  =  -0.230377

C          x =  1.579865  y = -0.248470  z = -2.317181 angstrom
           Maximum rank =  0   Radius =  0.650 angstrom
                   Q00  =  -0.233931

H          x =  1.035865  y =  0.721530  z = -0.481181 angstrom
           Maximum rank =  0   Radius =  0.325 angstrom
                   Q00  =   0.079380

H          x =  1.242865  y =  1.808530  z = -1.853181 angstrom
           Maximum rank =  0   Radius =  0.325 angstrom
                   Q00  =   0.073345

H          x = -0.213135  y =  0.831530  z = -1.753181 angstrom
           Maximum rank =  0   Radius =  0.325 angstrom
                   Q00  =   0.079148

H          x =  1.464865  y = -0.050470  z = -3.381181 angstrom
           Maximum rank =  0   Radius =  0.325 angstrom
                   Q00  =   0.076240

H          x =  1.176795  y = -1.244322  z = -2.080926 angstrom
           Maximum rank =  0   Radius =  0.325 angstrom
                   Q00  =   0.079152

H          x =  2.657065  y = -0.188505  z = -2.102608 angstrom
           Maximum rank =  0   Radius =  0.325 angstrom
                   Q00  =   0.075830

C          x = -0.999135  y = -0.348470  z =  1.204819 angstrom
           Maximum rank =  0   Radius =  0.650 angstrom
                   Q00  =  -0.223988

C          x = -1.449135  y = -0.242470  z =  2.659819 angstrom
           Maximum rank =  0   Radius =  0.650 angstrom
                   Q00  =  -0.247256

H          x = -1.351135  y =  0.504530  z =  0.627819 angstrom
           Maximum rank =  0   Radius =  0.325 angstrom
                   Q00  =   0.078642

H          x =  0.089865  y = -0.370470  z =  1.184819 angstrom
           Maximum rank =  0   Radius =  0.325 angstrom
                   Q00  =   0.074521

H          x = -1.373135  y = -1.273470  z =  0.763819 angstrom
           Maximum rank =  0   Radius =  0.325 angstrom
                   Q00  =   0.080018

H          x = -1.190135  y =  0.729530  z =  3.069819 angstrom
           Maximum rank =  0   Radius =  0.325 angstrom
                   Q00  =   0.080028

H          x = -0.857135  y = -0.986470  z =  3.191819 angstrom
           Maximum rank =  0   Radius =  0.325 angstrom
                   Q00  =   0.077436

H          x = -2.521435  y = -0.435742  z =  2.810859 angstrom
           Maximum rank =  0   Radius =  0.325 angstrom
                   Q00  =   0.081813

Total multipoles referred to origin at
           x =   0.000000,  y =    0.000000,  z =    0.000000 angstrom
                   Q00  =  -0.000000

Finished at 17:38:56 on 26 Apr 2020

  DMA results are available in the Python driver through the
	  variable('DMA DISTRIBUTED MULTIPOLES')
  and
	  variable('DMA TOTAL MULTIPOLES')
  commands.

    Psi4 stopped on: Sunday, 26 April 2020 05:38PM
    Psi4 wall time for execution: 0:00:11.85

*** Psi4 exiting successfully. Buy a developer a beer!
