                               Psi4 1.3.2 release

  ==> Input File <==

--------------------------------------------------------------------------
import numpy as np
set {scf_type pk
basis cc-pvdz
d_convergence 10
gdma_switch   0
gdma_limit    0
gdma_origin   [ 0.0,  0.0,  0.0 ]
}
molecule test {
    units Angstrom
    0 1
    --
    0 1
    C               -0.925252375391666    -2.026846620243762    -2.519919982808470
    C               -1.983252375391666    -2.716846620243762    -3.391919982808470
    H               -0.037252375391666    -1.810846620243762    -3.113919982808470
    H               -1.323252375391666    -1.092846620243761    -2.120919982808469
    H               -0.657252375391666    -2.683846620243762    -1.693919982808470
    H               -2.874252375391666    -2.914846620243762    -2.798919982808470
    H               -1.640377375391666    -3.661896620243762    -3.838369982808470
    H               -2.278971375391666    -2.035046620243762    -4.202909982808470
    C                1.847747624608334     2.052153379756238    -0.583919982808470
    C               -0.080252375391666    -0.821846620243762     0.988080017191530
    C                0.731747624608334    -0.083846620243762     0.126080017191530
    C               -0.602252375391666    -0.195846620243762     2.126080017191530
    C                1.033747624608334     1.258153379756239     0.383080017191530
    C               -0.301252375391666     1.165153379756239     2.392080017191530
    C                0.526747624608334     1.883153379756239     1.520080017191530
    H               -0.304252375391666    -1.858846620243761     0.780080017191530
    H                1.137747624608334    -0.548846620243762    -0.759919982808470
    H               -1.236252375391666    -0.758846620243762     2.802080017191530
    H               -0.706252375391666     1.659153379756239     3.267080017191530
    H                2.587747624608334     1.376153379756238    -1.003919982808470
    H                2.354747624608334     2.825153379756238    -0.007919982808470
    H                0.768747624608334     2.917153379756238     1.723080017191530
    H                1.259462624608334     2.475523379756238    -1.411369982808470

}
e, wfn = energy('scf', return_wfn=True)
gdma(wfn)
dmavals = variable('DMA DISTRIBUTED MULTIPOLES')
charges = np.array(dmavals)
print(charges)
np.save('SSI-012VAL-088PHE-1-dimer.npy', np.array(charges))--------------------------------------------------------------------------

*** tstart() called on ds3
*** at Mon Apr 27 21:41:53 2020

   => Loading Basis Set <=

    Name: CC-PVDZ
    Role: ORBITAL
    Keyword: BASIS
    atoms 1-2, 9-15  entry C          line   138 file /theoryfs2/ds/metcalf/miniconda2/envs/tf2gpu/share/psi4/basis/cc-pvdz.gbs
    atoms 3-8, 16-23 entry H          line    22 file /theoryfs2/ds/metcalf/miniconda2/envs/tf2gpu/share/psi4/basis/cc-pvdz.gbs

         ---------------------------------------------------------
                                   SCF
               by Justin Turney, Rob Parrish, Andy Simmonett
                          and Daniel G. A. Smith
                              RHF Reference
                        1 Threads,    500 MiB Core
         ---------------------------------------------------------

  ==> Geometry <==

    Molecular point group: c1
    Full point group: C1

    Geometry (in Angstrom), charge = 0, multiplicity = 1:

       Center              X                  Y                   Z               Mass
    ------------   -----------------  -----------------  -----------------  -----------------
         C           -0.925252375392    -2.026846620244    -2.519919982808    12.000000000000
         C           -1.983252375392    -2.716846620244    -3.391919982808    12.000000000000
         H           -0.037252375392    -1.810846620244    -3.113919982808     1.007825032230
         H           -1.323252375392    -1.092846620244    -2.120919982808     1.007825032230
         H           -0.657252375392    -2.683846620244    -1.693919982808     1.007825032230
         H           -2.874252375392    -2.914846620244    -2.798919982808     1.007825032230
         H           -1.640377375392    -3.661896620244    -3.838369982808     1.007825032230
         H           -2.278971375392    -2.035046620244    -4.202909982808     1.007825032230
         C            1.847747624608     2.052153379756    -0.583919982808    12.000000000000
         C           -0.080252375392    -0.821846620244     0.988080017192    12.000000000000
         C            0.731747624608    -0.083846620244     0.126080017192    12.000000000000
         C           -0.602252375392    -0.195846620244     2.126080017192    12.000000000000
         C            1.033747624608     1.258153379756     0.383080017192    12.000000000000
         C           -0.301252375392     1.165153379756     2.392080017192    12.000000000000
         C            0.526747624608     1.883153379756     1.520080017192    12.000000000000
         H           -0.304252375392    -1.858846620244     0.780080017192     1.007825032230
         H            1.137747624608    -0.548846620244    -0.759919982808     1.007825032230
         H           -1.236252375392    -0.758846620244     2.802080017192     1.007825032230
         H           -0.706252375392     1.659153379756     3.267080017192     1.007825032230
         H            2.587747624608     1.376153379756    -1.003919982808     1.007825032230
         H            2.354747624608     2.825153379756    -0.007919982808     1.007825032230
         H            0.768747624608     2.917153379756     1.723080017192     1.007825032230
         H            1.259462624608     2.475523379756    -1.411369982808     1.007825032230

  Running in c1 symmetry.

  Rotational constants: A =      0.07425  B =      0.02176  C =      0.01782 [cm^-1]
  Rotational constants: A =   2226.08013  B =    652.22470  C =    534.12497 [MHz]
  Nuclear repulsion =  399.962569394498246

  Charge       = 0
  Multiplicity = 1
  Electrons    = 68
  Nalpha       = 34
  Nbeta        = 34

  ==> Algorithm <==

  SCF Algorithm Type is PK.
  DIIS enabled.
  MOM disabled.
  Fractional occupation disabled.
  Guess Type is SAD.
  Energy threshold   = 1.00e-06
  Density threshold  = 1.00e-10
  Integral threshold = 0.00e+00

  ==> Primary Basis <==

  Basis Set: CC-PVDZ
    Blend: CC-PVDZ
    Number of shells: 96
    Number of basis function: 196
    Number of Cartesian functions: 205
    Spherical Harmonics?: true
    Max angular momentum: 2

  ==> Pre-Iterations <==

   -------------------------------------------------------
    Irrep   Nso     Nmo     Nalpha   Nbeta   Ndocc  Nsocc
   -------------------------------------------------------
     A        196     196       0       0       0       0
   -------------------------------------------------------
    Total     196     196      34      34      34       0
   -------------------------------------------------------

  ==> Integral Setup <==

  Using integral reordering PK algorithm.
  Sizing the integral batches needed.
  Building batch lookup table.
   Calculation information:
      Number of atoms:                  23
      Number of AO shells:              96
      Number of primitives:            268
      Number of atomic orbitals:       205
      Number of basis functions:       196

      Integral cutoff                 1.00e-12
      Number of threads:                 1

	Batch   1 pq = [       0,    9405] index = [             0,44231715] size =     44231715
	Batch   2 pq = [    9405,   13301] index = [      44231715,88464951] size =     44233236
	Batch   3 pq = [   13301,   16290] index = [      88464951,132690195] size =     44225244
	Batch   4 pq = [   16290,   18810] index = [     132690195,176917455] size =     44227260
	Batch   5 pq = [   18810,   19306] index = [     176917455,186370471] size =      9453016
  Task number: 17
  Buffer size: 11059200
  Buffer per thread: 2
  We computed 8737714 shell quartets total.
  Whereas there are 10841496 unique shell quartets.

  ==> DiskJK: Disk-Based J/K Matrices <==

    J tasked:                  Yes
    K tasked:                  Yes
    wK tasked:                  No
    Memory [MiB]:              375
    Schwarz Cutoff:          1E-12

    OpenMP threads:              1

  Minimum eigenvalue in the overlap matrix is 3.2731945801E-04.
  Using Symmetric Orthogonalization.

  SCF Guess: Superposition of Atomic Densities via on-the-fly atomic UHF.

  ==> Iterations <==

                        Total Energy        Delta E     RMS |[F,P]|

   @RHF iter SAD:  -347.79426612560974   -3.47794e+02   0.00000e+00
   @RHF iter   1:  -348.76746829939390   -9.73202e-01   2.87236e-03 DIIS
   @RHF iter   2:  -348.95828889457022   -1.90821e-01   1.18603e-03 DIIS
   @RHF iter   3:  -348.98787816727264   -2.95893e-02   2.61339e-04 DIIS
   @RHF iter   4:  -348.99035624021087   -2.47807e-03   6.40510e-05 DIIS
   @RHF iter   5:  -348.99045583997457   -9.95998e-05   2.07058e-05 DIIS
   @RHF iter   6:  -348.99046641909064   -1.05791e-05   5.02227e-06 DIIS
   @RHF iter   7:  -348.99046714685710   -7.27766e-07   1.15256e-06 DIIS
   @RHF iter   8:  -348.99046719003064   -4.31735e-08   2.78803e-07 DIIS
   @RHF iter   9:  -348.99046719324252   -3.21188e-09   9.86074e-08 DIIS
   @RHF iter  10:  -348.99046719363241   -3.89889e-10   3.60172e-08 DIIS
   @RHF iter  11:  -348.99046719371125   -7.88418e-11   1.25070e-08 DIIS
   @RHF iter  12:  -348.99046719372359   -1.23350e-11   6.96671e-09 DIIS
   @RHF iter  13:  -348.99046719372774   -4.14957e-12   3.20521e-09 DIIS
   @RHF iter  14:  -348.99046719372910   -1.36424e-12   1.16430e-09 DIIS
   @RHF iter  15:  -348.99046719373018   -1.08002e-12   3.84994e-10 DIIS
   @RHF iter  16:  -348.99046719372780    2.38742e-12   9.33954e-11 DIIS
  Energy and wave function converged.

  ==> Post-Iterations <==

    Orbital Energies [Eh]
    ---------------------

    Doubly Occupied:

       1A    -11.239580     2A    -11.238135     3A    -11.237209
       4A    -11.235113     5A    -11.230920     6A    -11.229649
       7A    -11.226778     8A    -11.219192     9A    -11.218015
      10A     -1.147858    11A     -1.042829    12A     -1.016642
      13A     -1.009039    14A     -0.927900    15A     -0.838716
      16A     -0.823273    17A     -0.792499    18A     -0.686691
      19A     -0.631375    20A     -0.629304    21A     -0.597079
      22A     -0.595935    23A     -0.583339    24A     -0.578498
      25A     -0.557131    26A     -0.535492    27A     -0.502108
      28A     -0.487961    29A     -0.486537    30A     -0.483282
      31A     -0.481934    32A     -0.477493    33A     -0.331098
      34A     -0.317392

    Virtual:

      35A      0.133983    36A      0.139081    37A      0.175611
      38A      0.192752    39A      0.202695    40A      0.213054
      41A      0.237177    42A      0.239510    43A      0.253074
      44A      0.259168    45A      0.265494    46A      0.277632
      47A      0.286991    48A      0.288910    49A      0.306761
      50A      0.327198    51A      0.361772    52A      0.374487
      53A      0.407724    54A      0.454187    55A      0.456210
      56A      0.484584    57A      0.490638    58A      0.564066
      59A      0.586128    60A      0.596851    61A      0.599014
      62A      0.634111    63A      0.641281    64A      0.661573
      65A      0.684966    66A      0.688799    67A      0.692838
      68A      0.706926    69A      0.719923    70A      0.735567
      71A      0.744200    72A      0.748454    73A      0.764723
      74A      0.770314    75A      0.777929    76A      0.796974
      77A      0.834561    78A      0.853197    79A      0.866342
      80A      0.868958    81A      0.878977    82A      0.887051
      83A      0.892439    84A      0.893713    85A      0.897347
      86A      0.907781    87A      0.918210    88A      0.918428
      89A      0.923549    90A      0.929189    91A      0.941794
      92A      0.970025    93A      0.991465    94A      1.003765
      95A      1.019203    96A      1.053961    97A      1.110194
      98A      1.124192    99A      1.134253   100A      1.142870
     101A      1.152494   102A      1.159513   103A      1.196536
     104A      1.227861   105A      1.244311   106A      1.244341
     107A      1.249807   108A      1.268120   109A      1.302390
     110A      1.307385   111A      1.317299   112A      1.319458
     113A      1.411422   114A      1.462413   115A      1.478340
     116A      1.506231   117A      1.525058   118A      1.571768
     119A      1.585141   120A      1.612475   121A      1.682691
     122A      1.685546   123A      1.695941   124A      1.700885
     125A      1.730045   126A      1.740681   127A      1.752478
     128A      1.787237   129A      1.803793   130A      1.846885
     131A      1.864959   132A      1.871484   133A      1.886188
     134A      1.893466   135A      1.900157   136A      1.911159
     137A      1.916969   138A      1.921200   139A      1.937210
     140A      1.940191   141A      1.944141   142A      1.946764
     143A      1.956155   144A      1.958836   145A      1.975672
     146A      1.983001   147A      1.987124   148A      2.028591
     149A      2.051281   150A      2.064668   151A      2.068918
     152A      2.079718   153A      2.110329   154A      2.117503
     155A      2.141846   156A      2.144004   157A      2.152644
     158A      2.174781   159A      2.184271   160A      2.248564
     161A      2.271645   162A      2.285194   163A      2.299535
     164A      2.308098   165A      2.310086   166A      2.321464
     167A      2.353405   168A      2.449748   169A      2.467504
     170A      2.475729   171A      2.486302   172A      2.500218
     173A      2.541327   174A      2.549049   175A      2.572883
     176A      2.618742   177A      2.738020   178A      2.746664
     179A      2.758252   180A      2.773157   181A      2.778765
     182A      2.790304   183A      2.808530   184A      2.843358
     185A      2.850574   186A      2.871170   187A      2.877754
     188A      2.949150   189A      2.951299   190A      2.966765
     191A      2.989632   192A      3.010577   193A      3.135389
     194A      3.188855   195A      3.281698   196A      3.940880

    Final Occupation by Irrep:
              A
    DOCC [    34 ]

  @RHF Final Energy:  -348.99046719372780

   => Energetics <=

    Nuclear Repulsion Energy =            399.9625693944982459
    One-Electron Energy =               -1262.6340768363502320
    Two-Electron Energy =                 513.6810402481241908
    Total Energy =                       -348.9904671937277953

Computation Completed

Properties will be evaluated at   0.000000,   0.000000,   0.000000 [a0]

Properties computed using the SCF density matrix

  Nuclear Dipole Moment: [e a0]
     X:    -2.7652      Y:    -5.7305      Z:   -11.6057

  Electronic Dipole Moment: [e a0]
     X:     2.8074      Y:     5.8112      Z:    11.5183

  Dipole Moment: [e a0]
     X:     0.0422      Y:     0.0807      Z:    -0.0874     Total:     0.1262

  Dipole Moment: [D]
     X:     0.1072      Y:     0.2050      Z:    -0.2221     Total:     0.3207

*** tstop() called on ds3 at Mon Apr 27 21:43:19 2020
Module time:
	user time   =      61.67 seconds =       1.03 minutes
	system time =      27.79 seconds =       0.46 minutes
	total time  =         86 seconds =       1.43 minutes
Total time:
	user time   =      61.67 seconds =       1.03 minutes
	system time =      27.79 seconds =       0.46 minutes
	total time  =         86 seconds =       1.43 minutes
                                     G D M A

                                 by Anthony Stone

                           version 2.2.06, 22 June 2011

               Distributed Multipoles from Gaussian wavefunctions

Starting at 21:43:19 on 27 Apr 2020

Using SCF density matrix from file ./SSI/SSI-012VAL-088PHE-1-dimer.test.24703.fchk

                         Distributed Multipole Analysis

Standard DMA

Positions and radii in angstrom
Multipole moments in atomic units, ea_0^k for rank k

C          x = -0.925252  y = -2.026847  z = -2.519920 angstrom
           Maximum rank =  0   Radius =  0.650 angstrom
                   Q00  =  -0.243601

C          x = -1.983252  y = -2.716847  z = -3.391920 angstrom
           Maximum rank =  0   Radius =  0.650 angstrom
                   Q00  =  -0.236708

H          x = -0.037252  y = -1.810847  z = -3.113920 angstrom
           Maximum rank =  0   Radius =  0.325 angstrom
                   Q00  =   0.077976

H          x = -1.323252  y = -1.092847  z = -2.120920 angstrom
           Maximum rank =  0   Radius =  0.325 angstrom
                   Q00  =   0.089665

H          x = -0.657252  y = -2.683847  z = -1.693920 angstrom
           Maximum rank =  0   Radius =  0.325 angstrom
                   Q00  =   0.075230

H          x = -2.874252  y = -2.914847  z = -2.798920 angstrom
           Maximum rank =  0   Radius =  0.325 angstrom
                   Q00  =   0.080716

H          x = -1.640377  y = -3.661897  z = -3.838370 angstrom
           Maximum rank =  0   Radius =  0.325 angstrom
                   Q00  =   0.081222

H          x = -2.278971  y = -2.035047  z = -4.202910 angstrom
           Maximum rank =  0   Radius =  0.325 angstrom
                   Q00  =   0.077044

C          x =  1.847748  y =  2.052153  z = -0.583920 angstrom
           Maximum rank =  0   Radius =  0.650 angstrom
                   Q00  =  -0.183991

C          x = -0.080252  y = -0.821847  z =  0.988080 angstrom
           Maximum rank =  0   Radius =  0.650 angstrom
                   Q00  =  -0.072862

C          x =  0.731748  y = -0.083847  z =  0.126080 angstrom
           Maximum rank =  0   Radius =  0.650 angstrom
                   Q00  =  -0.000135

C          x = -0.602252  y = -0.195847  z =  2.126080 angstrom
           Maximum rank =  0   Radius =  0.650 angstrom
                   Q00  =  -0.102450

C          x =  1.033748  y =  1.258153  z =  0.383080 angstrom
           Maximum rank =  0   Radius =  0.650 angstrom
                   Q00  =  -0.108698

C          x = -0.301252  y =  1.165153  z =  2.392080 angstrom
           Maximum rank =  0   Radius =  0.650 angstrom
                   Q00  =  -0.064472

C          x =  0.526748  y =  1.883153  z =  1.520080 angstrom
           Maximum rank =  0   Radius =  0.650 angstrom
                   Q00  =  -0.082495

H          x = -0.304252  y = -1.858847  z =  0.780080 angstrom
           Maximum rank =  0   Radius =  0.325 angstrom
                   Q00  =   0.068433

H          x =  1.137748  y = -0.548847  z = -0.759920 angstrom
           Maximum rank =  0   Radius =  0.325 angstrom
                   Q00  =   0.057944

H          x = -1.236252  y = -0.758847  z =  2.802080 angstrom
           Maximum rank =  0   Radius =  0.325 angstrom
                   Q00  =   0.064299

H          x = -0.706252  y =  1.659153  z =  3.267080 angstrom
           Maximum rank =  0   Radius =  0.325 angstrom
                   Q00  =   0.068626

H          x =  2.587748  y =  1.376153  z = -1.003920 angstrom
           Maximum rank =  0   Radius =  0.325 angstrom
                   Q00  =   0.094822

H          x =  2.354748  y =  2.825153  z = -0.007920 angstrom
           Maximum rank =  0   Radius =  0.325 angstrom
                   Q00  =   0.094981

H          x =  0.768748  y =  2.917153  z =  1.723080 angstrom
           Maximum rank =  0   Radius =  0.325 angstrom
                   Q00  =   0.059456

H          x =  1.259463  y =  2.475523  z = -1.411370 angstrom
           Maximum rank =  0   Radius =  0.325 angstrom
                   Q00  =   0.104998

Total multipoles referred to origin at
           x =   0.000000,  y =    0.000000,  z =    0.000000 angstrom
                   Q00  =  -0.000000

Finished at 21:43:19 on 27 Apr 2020

  DMA results are available in the Python driver through the
	  variable('DMA DISTRIBUTED MULTIPOLES')
  and
	  variable('DMA TOTAL MULTIPOLES')
  commands.

    Psi4 stopped on: Monday, 27 April 2020 09:43PM
    Psi4 wall time for execution: 0:01:26.04

*** Psi4 exiting successfully. Buy a developer a beer!
