                               Psi4 1.3.2 release

  ==> Input File <==

--------------------------------------------------------------------------
import numpy as np
set {scf_type pk
basis cc-pvdz
d_convergence 10
gdma_switch   0
gdma_limit    0
gdma_origin   [ 0.0,  0.0,  0.0 ]
}
molecule test {
    units Angstrom
    0 1
    --
    0 1
    C                0.336522922861579     0.776392695372124     1.803721228926347
    C               -1.062477077138421     1.113392695372123     2.314721228926348
    H                0.702522922861579     1.543392695372124     1.121721228926347
    H                1.013522922861579     0.696392695372124     2.644721228926348
    H                0.320522922861579    -0.191607304627876     1.307721228926347
    H               -1.399477077138421     0.300392695372124     2.959721228926348
    H               -1.763507077138421     1.222232695372124     1.474059228926347
    H               -1.027707077138421     2.045292695372123     2.898123228926348
    C                0.178522922861579    -0.472607304627876    -1.487278771073653
    C                0.546522922861579    -1.407607304627876    -2.640278771073652
    H               -0.579477077138421     0.244392695372124    -1.799278771073653
    H               -0.236477077138421    -1.069607304627876    -0.679278771073653
    H                1.053522922861579     0.046392695372124    -1.096278771073653
    H                1.316522922861579    -2.087607304627876    -2.279278771073652
    H                0.939172922861579    -0.857887304627876    -3.508400771073652
    H               -0.328327077138421    -2.005737304627877    -2.935019771073653

}
e, wfn = energy('scf', return_wfn=True)
gdma(wfn)
dmavals = variable('DMA DISTRIBUTED MULTIPOLES')
charges = np.array(dmavals)
print(charges)
np.save('SSI-161THR-194VAL-2-dimer.npy', np.array(charges))--------------------------------------------------------------------------

*** tstart() called on ds3
*** at Sun Apr 26 17:31:35 2020

   => Loading Basis Set <=

    Name: CC-PVDZ
    Role: ORBITAL
    Keyword: BASIS
    atoms 1-2, 9-10  entry C          line   138 file /theoryfs2/ds/metcalf/miniconda2/envs/tf2gpu/share/psi4/basis/cc-pvdz.gbs
    atoms 3-8, 11-16 entry H          line    22 file /theoryfs2/ds/metcalf/miniconda2/envs/tf2gpu/share/psi4/basis/cc-pvdz.gbs

         ---------------------------------------------------------
                                   SCF
               by Justin Turney, Rob Parrish, Andy Simmonett
                          and Daniel G. A. Smith
                              RHF Reference
                        1 Threads,    500 MiB Core
         ---------------------------------------------------------

  ==> Geometry <==

    Molecular point group: c1
    Full point group: C1

    Geometry (in Angstrom), charge = 0, multiplicity = 1:

       Center              X                  Y                   Z               Mass
    ------------   -----------------  -----------------  -----------------  -----------------
         C            0.336522922862     0.776392695372     1.803721228926    12.000000000000
         C           -1.062477077138     1.113392695372     2.314721228926    12.000000000000
         H            0.702522922862     1.543392695372     1.121721228926     1.007825032230
         H            1.013522922862     0.696392695372     2.644721228926     1.007825032230
         H            0.320522922862    -0.191607304628     1.307721228926     1.007825032230
         H           -1.399477077138     0.300392695372     2.959721228926     1.007825032230
         H           -1.763507077138     1.222232695372     1.474059228926     1.007825032230
         H           -1.027707077138     2.045292695372     2.898123228926     1.007825032230
         C            0.178522922862    -0.472607304628    -1.487278771074    12.000000000000
         C            0.546522922862    -1.407607304628    -2.640278771074    12.000000000000
         H           -0.579477077138     0.244392695372    -1.799278771074     1.007825032230
         H           -0.236477077138    -1.069607304628    -0.679278771074     1.007825032230
         H            1.053522922862     0.046392695372    -1.096278771074     1.007825032230
         H            1.316522922862    -2.087607304628    -2.279278771074     1.007825032230
         H            0.939172922862    -0.857887304628    -3.508400771074     1.007825032230
         H           -0.328327077138    -2.005737304628    -2.935019771074     1.007825032230

  Running in c1 symmetry.

  Rotational constants: A =      0.62770  B =      0.04770  C =      0.04611 [cm^-1]
  Rotational constants: A =  18817.82720  B =   1429.88283  C =   1382.19850 [MHz]
  Nuclear repulsion =  122.822282586007148

  Charge       = 0
  Multiplicity = 1
  Electrons    = 36
  Nalpha       = 18
  Nbeta        = 18

  ==> Algorithm <==

  SCF Algorithm Type is PK.
  DIIS enabled.
  MOM disabled.
  Fractional occupation disabled.
  Guess Type is SAD.
  Energy threshold   = 1.00e-06
  Density threshold  = 1.00e-10
  Integral threshold = 0.00e+00

  ==> Primary Basis <==

  Basis Set: CC-PVDZ
    Blend: CC-PVDZ
    Number of shells: 60
    Number of basis function: 116
    Number of Cartesian functions: 120
    Spherical Harmonics?: true
    Max angular momentum: 2

  ==> Pre-Iterations <==

   -------------------------------------------------------
    Irrep   Nso     Nmo     Nalpha   Nbeta   Ndocc  Nsocc
   -------------------------------------------------------
     A        116     116       0       0       0       0
   -------------------------------------------------------
    Total     116     116      18      18      18       0
   -------------------------------------------------------

  ==> Integral Setup <==

  Using integral reordering PK algorithm.
  Sizing the integral batches needed.
  Building batch lookup table.
   Calculation information:
      Number of atoms:                  16
      Number of AO shells:              60
      Number of primitives:            148
      Number of atomic orbitals:       120
      Number of basis functions:       116

      Integral cutoff                 1.00e-12
      Number of threads:                 1

	Batch   1 pq = [       0,    6786] index = [             0,23028291] size =     23028291
  Task number: 3
  Buffer size: 11059200
  Buffer per thread: 2
  We computed 1432195 shell quartets total.
  Whereas there are 1675365 unique shell quartets.

  ==> DiskJK: Disk-Based J/K Matrices <==

    J tasked:                  Yes
    K tasked:                  Yes
    wK tasked:                  No
    Memory [MiB]:              375
    Schwarz Cutoff:          1E-12

    OpenMP threads:              1

  Minimum eigenvalue in the overlap matrix is 6.7989025239E-03.
  Using Symmetric Orthogonalization.

  SCF Guess: Superposition of Atomic Densities via on-the-fly atomic UHF.

  ==> Iterations <==

                        Total Energy        Delta E     RMS |[F,P]|

   @RHF iter SAD:  -157.37210613107391   -1.57372e+02   0.00000e+00
   @RHF iter   1:  -158.30591505107671   -9.33809e-01   4.21648e-03 DIIS
   @RHF iter   2:  -158.43992361458066   -1.34009e-01   1.78831e-03 DIIS
   @RHF iter   3:  -158.46315683032066   -2.32332e-02   3.50257e-04 DIIS
   @RHF iter   4:  -158.46499170809051   -1.83488e-03   3.87480e-05 DIIS
   @RHF iter   5:  -158.46501517081651   -2.34627e-05   6.65963e-06 DIIS
   @RHF iter   6:  -158.46501580809121   -6.37275e-07   1.22484e-06 DIIS
   @RHF iter   7:  -158.46501582244201   -1.43508e-08   3.15995e-07 DIIS
   @RHF iter   8:  -158.46501582337351   -9.31493e-10   4.20998e-08 DIIS
   @RHF iter   9:  -158.46501582340051   -2.70006e-11   9.12482e-09 DIIS
   @RHF iter  10:  -158.46501582340215   -1.64846e-12   2.15418e-09 DIIS
   @RHF iter  11:  -158.46501582340272   -5.68434e-13   3.67502e-10 DIIS
   @RHF iter  12:  -158.46501582340287   -1.42109e-13   8.15255e-11 DIIS
  Energy and wave function converged.

  ==> Post-Iterations <==

    Orbital Energies [Eh]
    ---------------------

    Doubly Occupied:

       1A    -11.219109     2A    -11.218345     3A    -11.216102
       4A    -11.213246     5A     -1.019831     6A     -1.016336
       7A     -0.840732     8A     -0.832609     9A     -0.602387
      10A     -0.599686    11A     -0.596324    12A     -0.593155
      13A     -0.506225    14A     -0.496375    15A     -0.490086
      16A     -0.487561    17A     -0.482778    18A     -0.476550

    Virtual:

      19A      0.175407    20A      0.194869    21A      0.227235
      22A      0.235323    23A      0.242499    24A      0.262441
      25A      0.265022    26A      0.277418    27A      0.279061
      28A      0.294498    29A      0.302314    30A      0.342394
      31A      0.394180    32A      0.404065    33A      0.564625
      34A      0.594371    35A      0.599637    36A      0.604782
      37A      0.609583    38A      0.635718    39A      0.676719
      40A      0.692005    41A      0.697005    42A      0.786467
      43A      0.847470    44A      0.869551    45A      0.881303
      46A      0.892105    47A      0.894595    48A      0.895922
      49A      0.904980    50A      0.913543    51A      0.915819
      52A      0.921940    53A      0.945513    54A      0.956163
      55A      0.978668    56A      0.981494    57A      1.125140
      58A      1.129266    59A      1.135711    60A      1.172542
      61A      1.228612    62A      1.261867    63A      1.467534
      64A      1.472176    65A      1.479803    66A      1.498356
      67A      1.569141    68A      1.592761    69A      1.680134
      70A      1.682305    71A      1.692875    72A      1.706693
      73A      1.854451    74A      1.862211    75A      1.876142
      76A      1.881299    77A      1.900141    78A      1.923224
      79A      1.932737    80A      1.943384    81A      1.947824
      82A      1.951319    83A      1.961095    84A      1.962898
      85A      1.965459    86A      1.972707    87A      1.980682
      88A      2.057727    89A      2.092488    90A      2.108899
      91A      2.118486    92A      2.121236    93A      2.294578
      94A      2.302929    95A      2.309454    96A      2.346854
      97A      2.452746    98A      2.460258    99A      2.466032
     100A      2.485949   101A      2.554804   102A      2.570007
     103A      2.574603   104A      2.585348   105A      2.761019
     106A      2.762880   107A      2.789784   108A      2.801828
     109A      2.849885   110A      2.852078   111A      2.860491
     112A      2.863737   113A      2.939002   114A      2.957504
     115A      2.976335   116A      2.979861

    Final Occupation by Irrep:
              A
    DOCC [    18 ]

  @RHF Final Energy:  -158.46501582340287

   => Energetics <=

    Nuclear Repulsion Energy =            122.8222825860071481
    One-Electron Energy =                -454.7597205945597807
    Two-Electron Energy =                 173.4724221851497816
    Total Energy =                       -158.4650158234028652

Computation Completed

Properties will be evaluated at   0.000000,   0.000000,   0.000000 [a0]

Properties computed using the SCF density matrix

  Nuclear Dipole Moment: [e a0]
     X:     0.0101      Y:    -0.1068      Z:     0.1017

  Electronic Dipole Moment: [e a0]
     X:     0.0033      Y:     0.0868      Z:    -0.0923

  Dipole Moment: [e a0]
     X:     0.0135      Y:    -0.0200      Z:     0.0095     Total:     0.0259

  Dipole Moment: [D]
     X:     0.0342      Y:    -0.0509      Z:     0.0241     Total:     0.0659

*** tstop() called on ds3 at Sun Apr 26 17:31:47 2020
Module time:
	user time   =       7.75 seconds =       0.13 minutes
	system time =       2.83 seconds =       0.05 minutes
	total time  =         12 seconds =       0.20 minutes
Total time:
	user time   =       7.75 seconds =       0.13 minutes
	system time =       2.83 seconds =       0.05 minutes
	total time  =         12 seconds =       0.20 minutes
                                     G D M A

                                 by Anthony Stone

                           version 2.2.06, 22 June 2011

               Distributed Multipoles from Gaussian wavefunctions

Starting at 17:31:47 on 26 Apr 2020

Using SCF density matrix from file ./SSI/SSI-161THR-194VAL-2-dimer.test.18758.fchk

                         Distributed Multipole Analysis

Standard DMA

Positions and radii in angstrom
Multipole moments in atomic units, ea_0^k for rank k

C          x =  0.336523  y =  0.776393  z =  1.803721 angstrom
           Maximum rank =  0   Radius =  0.650 angstrom
                   Q00  =  -0.228835

C          x = -1.062477  y =  1.113393  z =  2.314721 angstrom
           Maximum rank =  0   Radius =  0.650 angstrom
                   Q00  =  -0.245140

H          x =  0.702523  y =  1.543393  z =  1.121721 angstrom
           Maximum rank =  0   Radius =  0.325 angstrom
                   Q00  =   0.079208

H          x =  1.013523  y =  0.696393  z =  2.644721 angstrom
           Maximum rank =  0   Radius =  0.325 angstrom
                   Q00  =   0.076752

H          x =  0.320523  y = -0.191607  z =  1.307721 angstrom
           Maximum rank =  0   Radius =  0.325 angstrom
                   Q00  =   0.082580

H          x = -1.399477  y =  0.300393  z =  2.959721 angstrom
           Maximum rank =  0   Radius =  0.325 angstrom
                   Q00  =   0.077690

H          x = -1.763507  y =  1.222233  z =  1.474059 angstrom
           Maximum rank =  0   Radius =  0.325 angstrom
                   Q00  =   0.078624

H          x = -1.027707  y =  2.045293  z =  2.898123 angstrom
           Maximum rank =  0   Radius =  0.325 angstrom
                   Q00  =   0.077854

C          x =  0.178523  y = -0.472607  z = -1.487279 angstrom
           Maximum rank =  0   Radius =  0.650 angstrom
                   Q00  =  -0.242122

C          x =  0.546523  y = -1.407607  z = -2.640279 angstrom
           Maximum rank =  0   Radius =  0.650 angstrom
                   Q00  =  -0.229528

H          x = -0.579477  y =  0.244393  z = -1.799279 angstrom
           Maximum rank =  0   Radius =  0.325 angstrom
                   Q00  =   0.080013

H          x = -0.236477  y = -1.069607  z = -0.679279 angstrom
           Maximum rank =  0   Radius =  0.325 angstrom
                   Q00  =   0.074452

H          x =  1.053523  y =  0.046393  z = -1.096279 angstrom
           Maximum rank =  0   Radius =  0.325 angstrom
                   Q00  =   0.081300

H          x =  1.316523  y = -2.087607  z = -2.279279 angstrom
           Maximum rank =  0   Radius =  0.325 angstrom
                   Q00  =   0.077366

H          x =  0.939173  y = -0.857887  z = -3.508401 angstrom
           Maximum rank =  0   Radius =  0.325 angstrom
                   Q00  =   0.080650

H          x = -0.328327  y = -2.005737  z = -2.935020 angstrom
           Maximum rank =  0   Radius =  0.325 angstrom
                   Q00  =   0.079132

Total multipoles referred to origin at
           x =   0.000000,  y =    0.000000,  z =    0.000000 angstrom
                   Q00  =  -0.000000

Finished at 17:31:47 on 26 Apr 2020

  DMA results are available in the Python driver through the
	  variable('DMA DISTRIBUTED MULTIPOLES')
  and
	  variable('DMA TOTAL MULTIPOLES')
  commands.

    Psi4 stopped on: Sunday, 26 April 2020 05:31PM
    Psi4 wall time for execution: 0:00:12.72

*** Psi4 exiting successfully. Buy a developer a beer!
