                               Psi4 1.3.2 release

  ==> Input File <==

--------------------------------------------------------------------------
import numpy as np
set {scf_type pk
basis cc-pvdz
d_convergence 10
gdma_switch   0
gdma_limit    0
gdma_origin   [ 0.0,  0.0,  0.0 ]
}
molecule test {
    units Angstrom
    0 1
    --
    0 1
    C                1.614804955891413    -1.417372329538698     2.434960303417167
    O                1.019804955891414    -0.782372329538698     1.313960303417167
    H                0.908804955891414     0.159627670461302     1.509960303417166
    H                0.974804955891414    -1.225372329538698     3.295960303417167
    H                2.585804955891414    -0.967372329538698     2.636960303417166
    H                1.721894955891414    -2.505547329538698     2.314930303417167
    C               -0.798195044108586     0.918627670461302    -0.781039696582833
    C               -2.137195044108587     1.131627670461302    -1.472039696582833
    O                0.126804955891413     0.278627670461302    -1.639039696582833
    H               -0.393195044108587     1.884627670461302    -0.474039696582833
    H               -0.956195044108587     0.302627670461302     0.104960303417167
    H               -2.542195044108586     0.157627670461302    -1.736039696582833
    H                0.069804955891413    -0.688372329538698    -1.520039696582834
    H               -2.009635044108586     1.741658670461302    -2.378456696582833
    H               -2.833445044108587     1.599658670461302    -0.760574696582833

}
e, wfn = energy('scf', return_wfn=True)
gdma(wfn)
dmavals = variable('DMA DISTRIBUTED MULTIPOLES')
charges = np.array(dmavals)
print(charges)
np.save('SSI-073SER-090SER-1-dimer.npy', np.array(charges))--------------------------------------------------------------------------

*** tstart() called on ds3
*** at Mon Apr 27 20:04:32 2020

   => Loading Basis Set <=

    Name: CC-PVDZ
    Role: ORBITAL
    Keyword: BASIS
    atoms 1, 7-8     entry C          line   138 file /theoryfs2/ds/metcalf/miniconda2/envs/tf2gpu/share/psi4/basis/cc-pvdz.gbs
    atoms 2, 9       entry O          line   198 file /theoryfs2/ds/metcalf/miniconda2/envs/tf2gpu/share/psi4/basis/cc-pvdz.gbs
    atoms 3-6, 10-15 entry H          line    22 file /theoryfs2/ds/metcalf/miniconda2/envs/tf2gpu/share/psi4/basis/cc-pvdz.gbs

         ---------------------------------------------------------
                                   SCF
               by Justin Turney, Rob Parrish, Andy Simmonett
                          and Daniel G. A. Smith
                              RHF Reference
                        1 Threads,    500 MiB Core
         ---------------------------------------------------------

  ==> Geometry <==

    Molecular point group: c1
    Full point group: C1

    Geometry (in Angstrom), charge = 0, multiplicity = 1:

       Center              X                  Y                   Z               Mass
    ------------   -----------------  -----------------  -----------------  -----------------
         C            1.614804955891    -1.417372329539     2.434960303417    12.000000000000
         O            1.019804955891    -0.782372329539     1.313960303417    15.994914619570
         H            0.908804955891     0.159627670461     1.509960303417     1.007825032230
         H            0.974804955891    -1.225372329539     3.295960303417     1.007825032230
         H            2.585804955891    -0.967372329539     2.636960303417     1.007825032230
         H            1.721894955891    -2.505547329539     2.314930303417     1.007825032230
         C           -0.798195044109     0.918627670461    -0.781039696583    12.000000000000
         C           -2.137195044109     1.131627670461    -1.472039696583    12.000000000000
         O            0.126804955891     0.278627670461    -1.639039696583    15.994914619570
         H           -0.393195044109     1.884627670461    -0.474039696583     1.007825032230
         H           -0.956195044109     0.302627670461     0.104960303417     1.007825032230
         H           -2.542195044109     0.157627670461    -1.736039696583     1.007825032230
         H            0.069804955891    -0.688372329539    -1.520039696583     1.007825032230
         H           -2.009635044109     1.741658670461    -2.378456696583     1.007825032230
         H           -2.833445044109     1.599658670461    -0.760574696583     1.007825032230

  Running in c1 symmetry.

  Rotational constants: A =      0.37203  B =      0.04246  C =      0.03965 [cm^-1]
  Rotational constants: A =  11153.20705  B =   1272.79454  C =   1188.69176 [MHz]
  Nuclear repulsion =  180.504920665340109

  Charge       = 0
  Multiplicity = 1
  Electrons    = 44
  Nalpha       = 22
  Nbeta        = 22

  ==> Algorithm <==

  SCF Algorithm Type is PK.
  DIIS enabled.
  MOM disabled.
  Fractional occupation disabled.
  Guess Type is SAD.
  Energy threshold   = 1.00e-06
  Density threshold  = 1.00e-10
  Integral threshold = 0.00e+00

  ==> Primary Basis <==

  Basis Set: CC-PVDZ
    Blend: CC-PVDZ
    Number of shells: 60
    Number of basis function: 120
    Number of Cartesian functions: 125
    Spherical Harmonics?: true
    Max angular momentum: 2

  ==> Pre-Iterations <==

   -------------------------------------------------------
    Irrep   Nso     Nmo     Nalpha   Nbeta   Ndocc  Nsocc
   -------------------------------------------------------
     A        120     120       0       0       0       0
   -------------------------------------------------------
    Total     120     120      22      22      22       0
   -------------------------------------------------------

  ==> Integral Setup <==

  Using integral reordering PK algorithm.
  Sizing the integral batches needed.
  Building batch lookup table.
   Calculation information:
      Number of atoms:                  15
      Number of AO shells:              60
      Number of primitives:            160
      Number of atomic orbitals:       125
      Number of basis functions:       120

      Integral cutoff                 1.00e-12
      Number of threads:                 1

	Batch   1 pq = [       0,    7260] index = [             0,26357430] size =     26357430
  Task number: 3
  Buffer size: 11059200
  Buffer per thread: 2
  We computed 1315987 shell quartets total.
  Whereas there are 1675365 unique shell quartets.

  ==> DiskJK: Disk-Based J/K Matrices <==

    J tasked:                  Yes
    K tasked:                  Yes
    wK tasked:                  No
    Memory [MiB]:              375
    Schwarz Cutoff:          1E-12

    OpenMP threads:              1

  Minimum eigenvalue in the overlap matrix is 5.8015439999E-03.
  Using Symmetric Orthogonalization.

  SCF Guess: Superposition of Atomic Densities via on-the-fly atomic UHF.

  ==> Iterations <==

                        Total Energy        Delta E     RMS |[F,P]|

   @RHF iter SAD:  -267.81516153402788   -2.67815e+02   0.00000e+00
   @RHF iter   1:  -268.97200509996691   -1.15684e+00   4.60778e-03 DIIS
   @RHF iter   2:  -269.10581018848563   -1.33805e-01   2.31742e-03 DIIS
   @RHF iter   3:  -269.13547800050549   -2.96678e-02   4.22091e-04 DIIS
   @RHF iter   4:  -269.13740592893481   -1.92793e-03   1.23862e-04 DIIS
   @RHF iter   5:  -269.13754536179687   -1.39433e-04   2.76833e-05 DIIS
   @RHF iter   6:  -269.13755417821454   -8.81642e-06   5.83100e-06 DIIS
   @RHF iter   7:  -269.13755478234941   -6.04135e-07   1.42968e-06 DIIS
   @RHF iter   8:  -269.13755481569433   -3.33449e-08   5.40831e-07 DIIS
   @RHF iter   9:  -269.13755481957588   -3.88155e-09   1.37786e-07 DIIS
   @RHF iter  10:  -269.13755481986493   -2.89049e-10   4.61607e-08 DIIS
   @RHF iter  11:  -269.13755481989091   -2.59774e-11   1.26013e-08 DIIS
   @RHF iter  12:  -269.13755481989369   -2.78533e-12   3.20550e-09 DIIS
   @RHF iter  13:  -269.13755481989369    0.00000e+00   8.37080e-10 DIIS
   @RHF iter  14:  -269.13755481989318    5.11591e-13   2.81588e-10 DIIS
   @RHF iter  15:  -269.13755481989398   -7.95808e-13   1.14027e-10 DIIS
   @RHF iter  16:  -269.13755481989318    7.95808e-13   2.91177e-11 DIIS
  Energy and wave function converged.

  ==> Post-Iterations <==

    Orbital Energies [Eh]
    ---------------------

    Doubly Occupied:

       1A    -20.554599     2A    -20.535754     3A    -11.280032
       4A    -11.266076     5A    -11.213694     6A     -1.353295
       7A     -1.337121     8A     -1.001490     9A     -0.925279
      10A     -0.828761    11A     -0.685470    12A     -0.678901
      13A     -0.620172    14A     -0.617477    15A     -0.599331
      16A     -0.569050    17A     -0.540885    18A     -0.511248
      19A     -0.497488    20A     -0.465359    21A     -0.443886
      22A     -0.420666

    Virtual:

      23A      0.174278    24A      0.195226    25A      0.212507
      26A      0.226694    27A      0.255232    28A      0.260040
      29A      0.267639    30A      0.278922    31A      0.286775
      32A      0.301984    33A      0.360147    34A      0.399886
      35A      0.404513    36A      0.610553    37A      0.613212
      38A      0.627525    39A      0.652669    40A      0.676489
      41A      0.730630    42A      0.739350    43A      0.762302
      44A      0.812529    45A      0.847707    46A      0.858348
      47A      0.862800    48A      0.888572    49A      0.892656
      50A      0.898071    51A      0.907912    52A      0.916731
      53A      0.930363    54A      0.955134    55A      1.118950
      56A      1.132571    57A      1.137741    58A      1.148745
      59A      1.175932    60A      1.190532    61A      1.269721
      62A      1.319061    63A      1.334041    64A      1.381477
      65A      1.411788    66A      1.461869    67A      1.493855
      68A      1.548869    69A      1.600929    70A      1.606238
      71A      1.652851    72A      1.670099    73A      1.677432
      74A      1.684657    75A      1.741786    76A      1.856410
      77A      1.862402    78A      1.874315    79A      1.889629
      80A      1.896276    81A      1.906582    82A      1.955313
      83A      1.964430    84A      1.968574    85A      1.985603
      86A      2.008999    87A      2.032389    88A      2.066895
      89A      2.094197    90A      2.176365    91A      2.187888
      92A      2.273794    93A      2.298947    94A      2.315441
      95A      2.346180    96A      2.360901    97A      2.362783
      98A      2.442893    99A      2.524195   100A      2.539622
     101A      2.543242   102A      2.565793   103A      2.735505
     104A      2.758161   105A      2.763589   106A      2.766113
     107A      2.776762   108A      2.808134   109A      2.884027
     110A      2.922950   111A      3.293788   112A      3.327157
     113A      3.379206   114A      3.417343   115A      3.441245
     116A      3.471231   117A      3.594269   118A      3.658982
     119A      4.076111   120A      4.104116

    Final Occupation by Irrep:
              A
    DOCC [    22 ]

  @RHF Final Energy:  -269.13755481989318

   => Energetics <=

    Nuclear Repulsion Energy =            180.5049206653401086
    One-Electron Energy =                -725.3928825781165415
    Two-Electron Energy =                 275.7504070928832220
    Total Energy =                       -269.1375548198931824

Computation Completed

Properties will be evaluated at   0.000000,   0.000000,   0.000000 [a0]

Properties computed using the SCF density matrix

  Nuclear Dipole Moment: [e a0]
     X:    -2.3134      Y:     0.4280      Z:     2.8049

  Electronic Dipole Moment: [e a0]
     X:     2.1583      Y:    -0.5470      Z:    -1.7204

  Dipole Moment: [e a0]
     X:    -0.1551      Y:    -0.1189      Z:     1.0844     Total:     1.1019

  Dipole Moment: [D]
     X:    -0.3942      Y:    -0.3023      Z:     2.7564     Total:     2.8008

*** tstop() called on ds3 at Mon Apr 27 20:04:44 2020
Module time:
	user time   =       8.12 seconds =       0.14 minutes
	system time =       3.69 seconds =       0.06 minutes
	total time  =         12 seconds =       0.20 minutes
Total time:
	user time   =       8.12 seconds =       0.14 minutes
	system time =       3.69 seconds =       0.06 minutes
	total time  =         12 seconds =       0.20 minutes
                                     G D M A

                                 by Anthony Stone

                           version 2.2.06, 22 June 2011

               Distributed Multipoles from Gaussian wavefunctions

Starting at 20:4:44 on 27 Apr 2020

Using SCF density matrix from file ./SSI/SSI-073SER-090SER-1-dimer.test.13278.fchk

                         Distributed Multipole Analysis

Standard DMA

Positions and radii in angstrom
Multipole moments in atomic units, ea_0^k for rank k

C          x =  1.614805  y = -1.417372  z =  2.434960 angstrom
           Maximum rank =  0   Radius =  0.650 angstrom
                   Q00  =  -0.036561

O          x =  1.019805  y = -0.782372  z =  1.313960 angstrom
           Maximum rank =  0   Radius =  0.650 angstrom
                   Q00  =  -0.594894

H          x =  0.908805  y =  0.159628  z =  1.509960 angstrom
           Maximum rank =  0   Radius =  0.325 angstrom
                   Q00  =   0.391916

H          x =  0.974805  y = -1.225372  z =  3.295960 angstrom
           Maximum rank =  0   Radius =  0.325 angstrom
                   Q00  =   0.062958

H          x =  2.585805  y = -0.967372  z =  2.636960 angstrom
           Maximum rank =  0   Radius =  0.325 angstrom
                   Q00  =   0.068760

H          x =  1.721895  y = -2.505547  z =  2.314930 angstrom
           Maximum rank =  0   Radius =  0.325 angstrom
                   Q00  =   0.117879

C          x = -0.798195  y =  0.918628  z = -0.781040 angstrom
           Maximum rank =  0   Radius =  0.650 angstrom
                   Q00  =   0.119970

C          x = -2.137195  y =  1.131628  z = -1.472040 angstrom
           Maximum rank =  0   Radius =  0.650 angstrom
                   Q00  =  -0.250916

O          x =  0.126805  y =  0.278628  z = -1.639040 angstrom
           Maximum rank =  0   Radius =  0.650 angstrom
                   Q00  =  -0.614447

H          x = -0.393195  y =  1.884628  z = -0.474040 angstrom
           Maximum rank =  0   Radius =  0.325 angstrom
                   Q00  =   0.062888

H          x = -0.956195  y =  0.302628  z =  0.104960 angstrom
           Maximum rank =  0   Radius =  0.325 angstrom
                   Q00  =   0.030119

H          x = -2.542195  y =  0.157628  z = -1.736040 angstrom
           Maximum rank =  0   Radius =  0.325 angstrom
                   Q00  =   0.078902

H          x =  0.069805  y = -0.688372  z = -1.520040 angstrom
           Maximum rank =  0   Radius =  0.325 angstrom
                   Q00  =   0.399317

H          x = -2.009635  y =  1.741659  z = -2.378457 angstrom
           Maximum rank =  0   Radius =  0.325 angstrom
                   Q00  =   0.091250

H          x = -2.833445  y =  1.599659  z = -0.760575 angstrom
           Maximum rank =  0   Radius =  0.325 angstrom
                   Q00  =   0.072860

Total multipoles referred to origin at
           x =   0.000000,  y =    0.000000,  z =    0.000000 angstrom
                   Q00  =  -0.000000

Finished at 20:4:44 on 27 Apr 2020

  DMA results are available in the Python driver through the
	  variable('DMA DISTRIBUTED MULTIPOLES')
  and
	  variable('DMA TOTAL MULTIPOLES')
  commands.

    Psi4 stopped on: Monday, 27 April 2020 08:04PM
    Psi4 wall time for execution: 0:00:11.80

*** Psi4 exiting successfully. Buy a developer a beer!
