                               Psi4 1.3.2 release

  ==> Input File <==

--------------------------------------------------------------------------
import numpy as np
set {scf_type pk
basis cc-pvdz
d_convergence 10
gdma_switch   0
gdma_limit    0
gdma_origin   [ 0.0,  0.0,  0.0 ]
}
molecule test {
    units Angstrom
    0 1
    --
    0 1
    C                1.164973201428169     1.714850557709916    -2.875626318541030
    C               -0.620026798571831    -0.604149442290084    -0.405626318541029
    C                0.466973201428169    -1.140149442290084     0.299373681458971
    C               -0.377026798571831     0.339850557709916    -1.427626318541029
    C                0.921973201428169     0.751850557709916    -1.737626318541029
    C                1.764973201428169    -0.721149442290084    -0.005626318541029
    C                2.003973201428169     0.216850557709916    -1.009626318541029
    H               -1.629026798571831    -0.925149442290084    -0.184626318541029
    H                0.285973201428169    -1.884149442290084     1.054373681458971
    H               -1.215026798571831     0.730850557709916    -1.988626318541029
    H                2.598973201428169    -1.133149442290084     0.548373681458971
    H                1.937973201428169     2.395850557709916    -2.574626318541029
    H                0.257973201428169     2.291850557709916    -3.062626318541029
    H                3.017973201428169     0.518850557709916    -1.232626318541029
    H                1.484003201428169     1.206420557709916    -3.797427318541029
    C               -1.866026798571831    -0.922149442290084     3.216373681458971
    C               -2.841026798571831     0.259850557709916     3.259373681458971
    H               -2.137026798571831    -1.602149442290084     2.406373681458971
    H               -0.850026798571831    -0.557149442290084     3.056373681458971
    H               -1.902026798571831    -1.462149442290084     4.163373681458972
    H               -2.545026798571831     0.925850557709916     4.070373681458970
    H               -3.874506798571832    -0.089879442290084     3.399417681458971
    H               -2.797656798571831     0.826520557709916     2.317566681458971

}
e, wfn = energy('scf', return_wfn=True)
gdma(wfn)
dmavals = variable('DMA DISTRIBUTED MULTIPOLES')
charges = np.array(dmavals)
print(charges)
np.save('SSI-055PHE-139ALA-1-dimer.npy', np.array(charges))--------------------------------------------------------------------------

*** tstart() called on ds3
*** at Tue Apr 28 14:47:30 2020

   => Loading Basis Set <=

    Name: CC-PVDZ
    Role: ORBITAL
    Keyword: BASIS
    atoms 1-7, 16-17  entry C          line   138 file /theoryfs2/ds/metcalf/miniconda2/envs/tf2gpu/share/psi4/basis/cc-pvdz.gbs
    atoms 8-15, 18-23 entry H          line    22 file /theoryfs2/ds/metcalf/miniconda2/envs/tf2gpu/share/psi4/basis/cc-pvdz.gbs

         ---------------------------------------------------------
                                   SCF
               by Justin Turney, Rob Parrish, Andy Simmonett
                          and Daniel G. A. Smith
                              RHF Reference
                        1 Threads,    500 MiB Core
         ---------------------------------------------------------

  ==> Geometry <==

    Molecular point group: c1
    Full point group: C1

    Geometry (in Angstrom), charge = 0, multiplicity = 1:

       Center              X                  Y                   Z               Mass
    ------------   -----------------  -----------------  -----------------  -----------------
         C            1.164973201428     1.714850557710    -2.875626318541    12.000000000000
         C           -0.620026798572    -0.604149442290    -0.405626318541    12.000000000000
         C            0.466973201428    -1.140149442290     0.299373681459    12.000000000000
         C           -0.377026798572     0.339850557710    -1.427626318541    12.000000000000
         C            0.921973201428     0.751850557710    -1.737626318541    12.000000000000
         C            1.764973201428    -0.721149442290    -0.005626318541    12.000000000000
         C            2.003973201428     0.216850557710    -1.009626318541    12.000000000000
         H           -1.629026798572    -0.925149442290    -0.184626318541     1.007825032230
         H            0.285973201428    -1.884149442290     1.054373681459     1.007825032230
         H           -1.215026798572     0.730850557710    -1.988626318541     1.007825032230
         H            2.598973201428    -1.133149442290     0.548373681459     1.007825032230
         H            1.937973201428     2.395850557710    -2.574626318541     1.007825032230
         H            0.257973201428     2.291850557710    -3.062626318541     1.007825032230
         H            3.017973201428     0.518850557710    -1.232626318541     1.007825032230
         H            1.484003201428     1.206420557710    -3.797427318541     1.007825032230
         C           -1.866026798572    -0.922149442290     3.216373681459    12.000000000000
         C           -2.841026798572     0.259850557710     3.259373681459    12.000000000000
         H           -2.137026798572    -1.602149442290     2.406373681459     1.007825032230
         H           -0.850026798572    -0.557149442290     3.056373681459     1.007825032230
         H           -1.902026798572    -1.462149442290     4.163373681459     1.007825032230
         H           -2.545026798572     0.925850557710     4.070373681459     1.007825032230
         H           -3.874506798572    -0.089879442290     3.399417681459     1.007825032230
         H           -2.797656798572     0.826520557710     2.317566681459     1.007825032230

  Running in c1 symmetry.

  Rotational constants: A =      0.09451  B =      0.02047  C =      0.01827 [cm^-1]
  Rotational constants: A =   2833.44377  B =    613.70798  C =    547.60589 [MHz]
  Nuclear repulsion =  400.384295355419738

  Charge       = 0
  Multiplicity = 1
  Electrons    = 68
  Nalpha       = 34
  Nbeta        = 34

  ==> Algorithm <==

  SCF Algorithm Type is PK.
  DIIS enabled.
  MOM disabled.
  Fractional occupation disabled.
  Guess Type is SAD.
  Energy threshold   = 1.00e-06
  Density threshold  = 1.00e-10
  Integral threshold = 0.00e+00

  ==> Primary Basis <==

  Basis Set: CC-PVDZ
    Blend: CC-PVDZ
    Number of shells: 96
    Number of basis function: 196
    Number of Cartesian functions: 205
    Spherical Harmonics?: true
    Max angular momentum: 2

  ==> Pre-Iterations <==

   -------------------------------------------------------
    Irrep   Nso     Nmo     Nalpha   Nbeta   Ndocc  Nsocc
   -------------------------------------------------------
     A        196     196       0       0       0       0
   -------------------------------------------------------
    Total     196     196      34      34      34       0
   -------------------------------------------------------

  ==> Integral Setup <==

  Using integral reordering PK algorithm.
  Sizing the integral batches needed.
  Building batch lookup table.
   Calculation information:
      Number of atoms:                  23
      Number of AO shells:              96
      Number of primitives:            268
      Number of atomic orbitals:       205
      Number of basis functions:       196

      Integral cutoff                 1.00e-12
      Number of threads:                 1

	Batch   1 pq = [       0,    9405] index = [             0,44231715] size =     44231715
	Batch   2 pq = [    9405,   13301] index = [      44231715,88464951] size =     44233236
	Batch   3 pq = [   13301,   16290] index = [      88464951,132690195] size =     44225244
	Batch   4 pq = [   16290,   18810] index = [     132690195,176917455] size =     44227260
	Batch   5 pq = [   18810,   19306] index = [     176917455,186370471] size =      9453016
  Task number: 17
  Buffer size: 11059200
  Buffer per thread: 2
  We computed 8755047 shell quartets total.
  Whereas there are 10841496 unique shell quartets.

  ==> DiskJK: Disk-Based J/K Matrices <==

    J tasked:                  Yes
    K tasked:                  Yes
    wK tasked:                  No
    Memory [MiB]:              375
    Schwarz Cutoff:          1E-12

    OpenMP threads:              1

  Minimum eigenvalue in the overlap matrix is 3.3164586560E-04.
  Using Symmetric Orthogonalization.

  SCF Guess: Superposition of Atomic Densities via on-the-fly atomic UHF.

  ==> Iterations <==

                        Total Energy        Delta E     RMS |[F,P]|

   @RHF iter SAD:  -347.75070519291450   -3.47751e+02   0.00000e+00
   @RHF iter   1:  -348.77069296421195   -1.01999e+00   2.86458e-03 DIIS
   @RHF iter   2:  -348.96069094100238   -1.89998e-01   1.17918e-03 DIIS
   @RHF iter   3:  -348.98993077334865   -2.92398e-02   2.56533e-04 DIIS
   @RHF iter   4:  -348.99239039582307   -2.45962e-03   5.03220e-05 DIIS
   @RHF iter   5:  -348.99245827352456   -6.78777e-05   1.71202e-05 DIIS
   @RHF iter   6:  -348.99246551613868   -7.24261e-06   4.71169e-06 DIIS
   @RHF iter   7:  -348.99246617526529   -6.59127e-07   1.34119e-06 DIIS
   @RHF iter   8:  -348.99246624706848   -7.18032e-08   3.93727e-07 DIIS
   @RHF iter   9:  -348.99246626174130   -1.46728e-08   1.87658e-07 DIIS
   @RHF iter  10:  -348.99246626580270   -4.06141e-09   8.70717e-08 DIIS
   @RHF iter  11:  -348.99246626694850   -1.14579e-09   2.63163e-08 DIIS
   @RHF iter  12:  -348.99246626702626   -7.77618e-11   9.46090e-09 DIIS
   @RHF iter  13:  -348.99246626703393   -7.67386e-12   3.48685e-09 DIIS
   @RHF iter  14:  -348.99246626703416   -2.27374e-13   8.66775e-10 DIIS
   @RHF iter  15:  -348.99246626703405    1.13687e-13   4.39117e-10 DIIS
   @RHF iter  16:  -348.99246626703371    3.41061e-13   2.16707e-10 DIIS
   @RHF iter  17:  -348.99246626703189    1.81899e-12   8.49595e-11 DIIS
  Energy and wave function converged.

  ==> Post-Iterations <==

    Orbital Energies [Eh]
    ---------------------

    Doubly Occupied:

       1A    -11.243406     2A    -11.239117     3A    -11.236953
       4A    -11.233385     5A    -11.232924     6A    -11.232318
       7A    -11.228377     8A    -11.217794     9A    -11.216039
      10A     -1.146493    11A     -1.041956    12A     -1.015317
      13A     -1.007650    14A     -0.930928    15A     -0.835216
      16A     -0.822919    17A     -0.793568    18A     -0.688853
      19A     -0.631628    20A     -0.628211    21A     -0.598064
      22A     -0.593578    23A     -0.580425    24A     -0.576877
      25A     -0.561509    26A     -0.537621    27A     -0.497696
      28A     -0.487790    29A     -0.485903    30A     -0.483918
      31A     -0.481954    32A     -0.477093    33A     -0.329938
      34A     -0.319919

    Virtual:

      35A      0.131413    36A      0.140078    37A      0.174797
      38A      0.191439    39A      0.207341    40A      0.219478
      41A      0.230165    42A      0.241941    43A      0.253087
      44A      0.260988    45A      0.267791    46A      0.280159
      47A      0.283770    48A      0.287913    49A      0.296081
      50A      0.332946    51A      0.365505    52A      0.372568
      53A      0.398704    54A      0.447093    55A      0.461808
      56A      0.473364    57A      0.492055    58A      0.557526
      59A      0.586470    60A      0.601159    61A      0.607055
      62A      0.621694    63A      0.635102    64A      0.663659
      65A      0.674272    66A      0.688253    67A      0.691731
      68A      0.716155    69A      0.725923    70A      0.739327
      71A      0.741616    72A      0.746058    73A      0.752737
      74A      0.761089    75A      0.779104    76A      0.821517
      77A      0.839733    78A      0.844337    79A      0.861605
      80A      0.865773    81A      0.879298    82A      0.881646
      83A      0.893514    84A      0.898008    85A      0.898609
      86A      0.910153    87A      0.916571    88A      0.919825
      89A      0.925780    90A      0.934876    91A      0.944589
      92A      0.965028    93A      0.977789    94A      0.994118
      95A      1.013649    96A      1.054170    97A      1.108795
      98A      1.125020    99A      1.138266   100A      1.145069
     101A      1.154015   102A      1.171879   103A      1.189792
     104A      1.230655   105A      1.238348   106A      1.246777
     107A      1.251931   108A      1.255758   109A      1.292276
     110A      1.299721   111A      1.315032   112A      1.320128
     113A      1.411223   114A      1.473798   115A      1.487611
     116A      1.506634   117A      1.515780   118A      1.560019
     119A      1.570469   120A      1.611457   121A      1.674257
     122A      1.684048   123A      1.695264   124A      1.699117
     125A      1.730546   126A      1.744240   127A      1.762760
     128A      1.785661   129A      1.804819   130A      1.855962
     131A      1.861969   132A      1.873744   133A      1.888500
     134A      1.895381   135A      1.900445   136A      1.907124
     137A      1.915096   138A      1.924082   139A      1.936021
     140A      1.941164   141A      1.947246   142A      1.948730
     143A      1.956376   144A      1.962290   145A      1.975509
     146A      1.980908   147A      1.989111   148A      1.998724
     149A      2.030698   150A      2.054380   151A      2.067157
     152A      2.098315   153A      2.110904   154A      2.113340
     155A      2.139547   156A      2.155023   157A      2.158029
     158A      2.166317   159A      2.183008   160A      2.242796
     161A      2.270468   162A      2.285518   163A      2.294191
     164A      2.301224   165A      2.313766   166A      2.321479
     167A      2.334254   168A      2.457653   169A      2.460994
     170A      2.465136   171A      2.470074   172A      2.499825
     173A      2.533061   174A      2.560590   175A      2.571336
     176A      2.618113   177A      2.735958   178A      2.745697
     179A      2.762163   180A      2.776443   181A      2.782432
     182A      2.794826   183A      2.801188   184A      2.843906
     185A      2.848066   186A      2.859629   187A      2.883178
     188A      2.951148   189A      2.955946   190A      2.963781
     191A      2.999662   192A      3.015557   193A      3.140313
     194A      3.187196   195A      3.277826   196A      3.935194

    Final Occupation by Irrep:
              A
    DOCC [    34 ]

  @RHF Final Energy:  -348.99246626703189

   => Energetics <=

    Nuclear Repulsion Energy =            400.3842953554197379
    One-Electron Energy =               -1263.4828530435313496
    Two-Electron Energy =                 514.1060914210797819
    Total Energy =                       -348.9924662670318867

Computation Completed

Properties will be evaluated at   0.000000,   0.000000,   0.000000 [a0]

Properties computed using the SCF density matrix

  Nuclear Dipole Moment: [e a0]
     X:    -6.9068      Y:     1.1647      Z:     7.6644

  Electronic Dipole Moment: [e a0]
     X:     6.9709      Y:    -1.0890      Z:    -7.7863

  Dipole Moment: [e a0]
     X:     0.0641      Y:     0.0757      Z:    -0.1218     Total:     0.1571

  Dipole Moment: [D]
     X:     0.1630      Y:     0.1925      Z:    -0.3097     Total:     0.3994

*** tstop() called on ds3 at Tue Apr 28 14:49:56 2020
Module time:
	user time   =      61.62 seconds =       1.03 minutes
	system time =      26.81 seconds =       0.45 minutes
	total time  =        146 seconds =       2.43 minutes
Total time:
	user time   =      61.62 seconds =       1.03 minutes
	system time =      26.81 seconds =       0.45 minutes
	total time  =        146 seconds =       2.43 minutes
                                     G D M A

                                 by Anthony Stone

                           version 2.2.06, 22 June 2011

               Distributed Multipoles from Gaussian wavefunctions

Starting at 14:49:56 on 28 Apr 2020

Using SCF density matrix from file ./SSI/SSI-055PHE-139ALA-1-dimer.test.13455.fchk

                         Distributed Multipole Analysis

Standard DMA

Positions and radii in angstrom
Multipole moments in atomic units, ea_0^k for rank k

C          x =  1.164973  y =  1.714851  z = -2.875626 angstrom
           Maximum rank =  0   Radius =  0.650 angstrom
                   Q00  =  -0.200435

C          x = -0.620027  y = -0.604149  z = -0.405626 angstrom
           Maximum rank =  0   Radius =  0.650 angstrom
                   Q00  =  -0.076795

C          x =  0.466973  y = -1.140149  z =  0.299374 angstrom
           Maximum rank =  0   Radius =  0.650 angstrom
                   Q00  =  -0.101232

C          x = -0.377027  y =  0.339851  z = -1.427626 angstrom
           Maximum rank =  0   Radius =  0.650 angstrom
                   Q00  =  -0.073746

C          x =  0.921973  y =  0.751851  z = -1.737626 angstrom
           Maximum rank =  0   Radius =  0.650 angstrom
                   Q00  =  -0.101356

C          x =  1.764973  y = -0.721149  z = -0.005626 angstrom
           Maximum rank =  0   Radius =  0.650 angstrom
                   Q00  =   0.024827

C          x =  2.003973  y =  0.216851  z = -1.009626 angstrom
           Maximum rank =  0   Radius =  0.650 angstrom
                   Q00  =  -0.094953

H          x = -1.629027  y = -0.925149  z = -0.184626 angstrom
           Maximum rank =  0   Radius =  0.325 angstrom
                   Q00  =   0.069744

H          x =  0.285973  y = -1.884149  z =  1.054374 angstrom
           Maximum rank =  0   Radius =  0.325 angstrom
                   Q00  =   0.065821

H          x = -1.215027  y =  0.730851  z = -1.988626 angstrom
           Maximum rank =  0   Radius =  0.325 angstrom
                   Q00  =   0.058685

H          x =  2.598973  y = -1.133149  z =  0.548374 angstrom
           Maximum rank =  0   Radius =  0.325 angstrom
                   Q00  =   0.064301

H          x =  1.937973  y =  2.395851  z = -2.574626 angstrom
           Maximum rank =  0   Radius =  0.325 angstrom
                   Q00  =   0.101461

H          x =  0.257973  y =  2.291851  z = -3.062626 angstrom
           Maximum rank =  0   Radius =  0.325 angstrom
                   Q00  =   0.098226

H          x =  3.017973  y =  0.518851  z = -1.232626 angstrom
           Maximum rank =  0   Radius =  0.325 angstrom
                   Q00  =   0.059664

H          x =  1.484003  y =  1.206421  z = -3.797427 angstrom
           Maximum rank =  0   Radius =  0.325 angstrom
                   Q00  =   0.104609

C          x = -1.866027  y = -0.922149  z =  3.216374 angstrom
           Maximum rank =  0   Radius =  0.650 angstrom
                   Q00  =  -0.237562

C          x = -2.841027  y =  0.259851  z =  3.259374 angstrom
           Maximum rank =  0   Radius =  0.650 angstrom
                   Q00  =  -0.235911

H          x = -2.137027  y = -1.602149  z =  2.406374 angstrom
           Maximum rank =  0   Radius =  0.325 angstrom
                   Q00  =   0.073062

H          x = -0.850027  y = -0.557149  z =  3.056374 angstrom
           Maximum rank =  0   Radius =  0.325 angstrom
                   Q00  =   0.086765

H          x = -1.902027  y = -1.462149  z =  4.163374 angstrom
           Maximum rank =  0   Radius =  0.325 angstrom
                   Q00  =   0.077811

H          x = -2.545027  y =  0.925851  z =  4.070374 angstrom
           Maximum rank =  0   Radius =  0.325 angstrom
                   Q00  =   0.080867

H          x = -3.874507  y = -0.089879  z =  3.399418 angstrom
           Maximum rank =  0   Radius =  0.325 angstrom
                   Q00  =   0.077220

H          x = -2.797657  y =  0.826521  z =  2.317567 angstrom
           Maximum rank =  0   Radius =  0.325 angstrom
                   Q00  =   0.078927

Total multipoles referred to origin at
           x =   0.000000,  y =    0.000000,  z =    0.000000 angstrom
                   Q00  =  -0.000000

Finished at 14:49:56 on 28 Apr 2020

  DMA results are available in the Python driver through the
	  variable('DMA DISTRIBUTED MULTIPOLES')
  and
	  variable('DMA TOTAL MULTIPOLES')
  commands.

    Psi4 stopped on: Tuesday, 28 April 2020 02:49PM
    Psi4 wall time for execution: 0:02:25.86

*** Psi4 exiting successfully. Buy a developer a beer!
