                               Psi4 1.3.2 release

  ==> Input File <==

--------------------------------------------------------------------------
import numpy as np
set {scf_type pk
basis cc-pvdz
d_convergence 10
gdma_switch   0
gdma_limit    0
gdma_origin   [ 0.0,  0.0,  0.0 ]
}
molecule test {
    units Angstrom
    0 1
    --
    0 1
    C                1.311988215606557    -2.991380359035375     0.651737666498033
    C                1.990988215606557    -3.197380359035375    -0.693262333501968
    H                0.668988215606557    -3.838380359035376     0.881737666498033
    H                2.068988215606558    -2.914380359035375     1.430737666498032
    H                0.719988215606557    -2.077380359035375     0.635737666498033
    H                2.496988215606557    -4.157380359035376    -0.653262333501967
    H                1.260101215606557    -3.200252359035375    -1.515330333501967
    H                2.756486215606557    -2.431882359035375    -0.888261333501967
    C                2.210988215606557     0.818619640964625     1.234737666498032
    C                0.838988215606557     0.831619640964625     0.592737666498033
    C               -0.299011784393443     0.635619640964625     1.368737666498032
    C                0.686988215606557     1.071619640964625    -0.775262333501967
    C               -1.555011784393443     0.658619640964625     0.789737666498032
    C               -0.574011784393443     1.094619640964625    -1.377262333501968
    C               -1.699011784393443     0.896619640964625    -0.585262333501967
    O               -2.956011784393443     0.896619640964625    -1.131262333501968
    H                2.961988215606557     1.146619640964625     0.513737666498033
    H                2.442988215606557    -0.207380359035375     1.524737666498033
    H               -0.217011784393443     0.430619640964625     2.426737666498033
    H                1.563988215606557     1.223619640964625    -1.387262333501968
    H               -2.429011784393443     0.490619640964625     1.402737666498032
    H               -0.682011784393443     1.265619640964625    -2.439262333501968
    H               -3.636011784393443     0.731619640964625    -0.467262333501967
    H                2.254265215606557     1.468489640964625     2.121187666498033

}
e, wfn = energy('scf', return_wfn=True)
gdma(wfn)
dmavals = variable('DMA DISTRIBUTED MULTIPOLES')
charges = np.array(dmavals)
print(charges)
np.save('SSI-048LEU-074TYR-1-dimer.npy', np.array(charges))--------------------------------------------------------------------------

*** tstart() called on ds3
*** at Mon Apr 27 13:25:57 2020

   => Loading Basis Set <=

    Name: CC-PVDZ
    Role: ORBITAL
    Keyword: BASIS
    atoms 1-2, 9-15  entry C          line   138 file /theoryfs2/ds/metcalf/miniconda2/envs/tf2gpu/share/psi4/basis/cc-pvdz.gbs
    atoms 3-8, 17-24 entry H          line    22 file /theoryfs2/ds/metcalf/miniconda2/envs/tf2gpu/share/psi4/basis/cc-pvdz.gbs
    atoms 16         entry O          line   198 file /theoryfs2/ds/metcalf/miniconda2/envs/tf2gpu/share/psi4/basis/cc-pvdz.gbs

         ---------------------------------------------------------
                                   SCF
               by Justin Turney, Rob Parrish, Andy Simmonett
                          and Daniel G. A. Smith
                              RHF Reference
                        1 Threads,    500 MiB Core
         ---------------------------------------------------------

  ==> Geometry <==

    Molecular point group: c1
    Full point group: C1

    Geometry (in Angstrom), charge = 0, multiplicity = 1:

       Center              X                  Y                   Z               Mass
    ------------   -----------------  -----------------  -----------------  -----------------
         C            1.311988215607    -2.991380359035     0.651737666498    12.000000000000
         C            1.990988215607    -3.197380359035    -0.693262333502    12.000000000000
         H            0.668988215607    -3.838380359035     0.881737666498     1.007825032230
         H            2.068988215607    -2.914380359035     1.430737666498     1.007825032230
         H            0.719988215607    -2.077380359035     0.635737666498     1.007825032230
         H            2.496988215607    -4.157380359035    -0.653262333502     1.007825032230
         H            1.260101215607    -3.200252359035    -1.515330333502     1.007825032230
         H            2.756486215607    -2.431882359035    -0.888261333502     1.007825032230
         C            2.210988215607     0.818619640965     1.234737666498    12.000000000000
         C            0.838988215607     0.831619640965     0.592737666498    12.000000000000
         C           -0.299011784393     0.635619640965     1.368737666498    12.000000000000
         C            0.686988215607     1.071619640965    -0.775262333502    12.000000000000
         C           -1.555011784393     0.658619640965     0.789737666498    12.000000000000
         C           -0.574011784393     1.094619640965    -1.377262333502    12.000000000000
         C           -1.699011784393     0.896619640965    -0.585262333502    12.000000000000
         O           -2.956011784393     0.896619640965    -1.131262333502    15.994914619570
         H            2.961988215607     1.146619640965     0.513737666498     1.007825032230
         H            2.442988215607    -0.207380359035     1.524737666498     1.007825032230
         H           -0.217011784393     0.430619640965     2.426737666498     1.007825032230
         H            1.563988215607     1.223619640965    -1.387262333502     1.007825032230
         H           -2.429011784393     0.490619640965     1.402737666498     1.007825032230
         H           -0.682011784393     1.265619640965    -2.439262333502     1.007825032230
         H           -3.636011784393     0.731619640965    -0.467262333502     1.007825032230
         H            2.254265215607     1.468489640965     2.121187666498     1.007825032230

  Running in c1 symmetry.

  Rotational constants: A =      0.05041  B =      0.02369  C =      0.02038 [cm^-1]
  Rotational constants: A =   1511.32307  B =    710.22040  C =    610.90347 [MHz]
  Nuclear repulsion =  499.911961517243981

  Charge       = 0
  Multiplicity = 1
  Electrons    = 76
  Nalpha       = 38
  Nbeta        = 38

  ==> Algorithm <==

  SCF Algorithm Type is PK.
  DIIS enabled.
  MOM disabled.
  Fractional occupation disabled.
  Guess Type is SAD.
  Energy threshold   = 1.00e-06
  Density threshold  = 1.00e-10
  Integral threshold = 0.00e+00

  ==> Primary Basis <==

  Basis Set: CC-PVDZ
    Blend: CC-PVDZ
    Number of shells: 102
    Number of basis function: 210
    Number of Cartesian functions: 220
    Spherical Harmonics?: true
    Max angular momentum: 2

  ==> Pre-Iterations <==

   -------------------------------------------------------
    Irrep   Nso     Nmo     Nalpha   Nbeta   Ndocc  Nsocc
   -------------------------------------------------------
     A        210     210       0       0       0       0
   -------------------------------------------------------
    Total     210     210      38      38      38       0
   -------------------------------------------------------

  ==> Integral Setup <==

  Using integral reordering PK algorithm.
  Sizing the integral batches needed.
  Building batch lookup table.
   Calculation information:
      Number of atoms:                  24
      Number of AO shells:             102
      Number of primitives:            290
      Number of atomic orbitals:       220
      Number of basis functions:       210

      Integral cutoff                 1.00e-12
      Number of threads:                 1

	Batch   1 pq = [       0,    9405] index = [             0,44231715] size =     44231715
	Batch   2 pq = [    9405,   13301] index = [      44231715,88464951] size =     44233236
	Batch   3 pq = [   13301,   16290] index = [      88464951,132690195] size =     44225244
	Batch   4 pq = [   16290,   18810] index = [     132690195,176917455] size =     44227260
	Batch   5 pq = [   18810,   21030] index = [     176917455,221140965] size =     44223510
	Batch   6 pq = [   21030,   22155] index = [     221140965,245433090] size =     24292125
  Task number: 23
  Buffer size: 11059200
  Buffer per thread: 2
  We computed 12599698 shell quartets total.
  Whereas there are 13799631 unique shell quartets.

  ==> DiskJK: Disk-Based J/K Matrices <==

    J tasked:                  Yes
    K tasked:                  Yes
    wK tasked:                  No
    Memory [MiB]:              375
    Schwarz Cutoff:          1E-12

    OpenMP threads:              1

  Minimum eigenvalue in the overlap matrix is 3.2635905760E-04.
  Using Symmetric Orthogonalization.

  SCF Guess: Superposition of Atomic Densities via on-the-fly atomic UHF.

  ==> Iterations <==

                        Total Energy        Delta E     RMS |[F,P]|

   @RHF iter SAD:  -422.66434223923102   -4.22664e+02   0.00000e+00
   @RHF iter   1:  -423.60102759124180   -9.36685e-01   2.98766e-03 DIIS
   @RHF iter   2:  -423.81746441217695   -2.16437e-01   1.27106e-03 DIIS
   @RHF iter   3:  -423.85302730315573   -3.55629e-02   2.87569e-04 DIIS
   @RHF iter   4:  -423.85592650343540   -2.89920e-03   1.20746e-04 DIIS
   @RHF iter   5:  -423.85630306568646   -3.76562e-04   2.09236e-05 DIIS
   @RHF iter   6:  -423.85632095872830   -1.78930e-05   6.46810e-06 DIIS
   @RHF iter   7:  -423.85632267840839   -1.71968e-06   2.13389e-06 DIIS
   @RHF iter   8:  -423.85632292674939   -2.48341e-07   8.31874e-07 DIIS
   @RHF iter   9:  -423.85632297064382   -4.38944e-08   3.26651e-07 DIIS
   @RHF iter  10:  -423.85632297982897   -9.18516e-09   1.42188e-07 DIIS
   @RHF iter  11:  -423.85632298253284   -2.70387e-09   5.94394e-08 DIIS
   @RHF iter  12:  -423.85632298299311   -4.60261e-10   2.97350e-08 DIIS
   @RHF iter  13:  -423.85632298307587   -8.27640e-11   7.77567e-09 DIIS
   @RHF iter  14:  -423.85632298307922   -3.35376e-12   2.13448e-09 DIIS
   @RHF iter  15:  -423.85632298307945   -2.27374e-13   9.08760e-10 DIIS
   @RHF iter  16:  -423.85632298308030   -8.52651e-13   3.72624e-10 DIIS
   @RHF iter  17:  -423.85632298308099   -6.82121e-13   1.73227e-10 DIIS
   @RHF iter  18:  -423.85632298307974    1.25056e-12   7.93782e-11 DIIS
  Energy and wave function converged.

  ==> Post-Iterations <==

    Orbital Energies [Eh]
    ---------------------

    Doubly Occupied:

       1A    -20.582581     2A    -11.301214     3A    -11.239447
       4A    -11.238268     5A    -11.234489     6A    -11.234279
       7A    -11.232194     8A    -11.228886     9A    -11.213661
      10A    -11.209959    11A     -1.395771    12A     -1.151271
      13A     -1.036207    14A     -1.019272    15A     -1.015475
      16A     -0.925526    17A     -0.843252    18A     -0.831911
      19A     -0.802646    20A     -0.731135    21A     -0.667720
      22A     -0.640812    23A     -0.607475    24A     -0.597916
      25A     -0.594144    26A     -0.588212    27A     -0.582986
      28A     -0.568496    29A     -0.565757    30A     -0.527878
      31A     -0.498673    32A     -0.496806    33A     -0.485351
      34A     -0.482545    35A     -0.478622    36A     -0.465624
      37A     -0.340338    38A     -0.301523

    Virtual:

      39A      0.129633    40A      0.155058    41A      0.171598
      42A      0.179561    43A      0.203237    44A      0.213779
      45A      0.220509    46A      0.242301    47A      0.254412
      48A      0.258230    49A      0.268227    50A      0.274599
      51A      0.288389    52A      0.295518    53A      0.303403
      54A      0.323555    55A      0.368084    56A      0.374098
      57A      0.402760    58A      0.424823    59A      0.451203
      60A      0.484764    61A      0.494859    62A      0.507214
      63A      0.583243    64A      0.602579    65A      0.607486
      66A      0.619662    67A      0.643910    68A      0.648460
      69A      0.660435    70A      0.675824    71A      0.692209
      72A      0.705136    73A      0.716844    74A      0.725676
      75A      0.736035    76A      0.742728    77A      0.756597
      78A      0.768868    79A      0.773486    80A      0.787000
      81A      0.816058    82A      0.834732    83A      0.841921
      84A      0.855010    85A      0.869186    86A      0.876488
      87A      0.880352    88A      0.893030    89A      0.897055
      90A      0.903319    91A      0.905682    92A      0.920947
      93A      0.922489    94A      0.927487    95A      0.943672
      96A      0.953033    97A      0.962238    98A      0.993702
      99A      1.014423   100A      1.015730   101A      1.054464
     102A      1.074525   103A      1.118171   104A      1.127852
     105A      1.144047   106A      1.150750   107A      1.156274
     108A      1.168290   109A      1.213839   110A      1.242307
     111A      1.242734   112A      1.267529   113A      1.275029
     114A      1.287441   115A      1.297177   116A      1.310896
     117A      1.316029   118A      1.353400   119A      1.363430
     120A      1.387991   121A      1.479032   122A      1.484408
     123A      1.492540   124A      1.507134   125A      1.523933
     126A      1.560573   127A      1.577967   128A      1.617246
     129A      1.622794   130A      1.671509   131A      1.687449
     132A      1.691881   133A      1.713148   134A      1.731022
     135A      1.747298   136A      1.787935   137A      1.804450
     138A      1.808445   139A      1.857121   140A      1.870587
     141A      1.886228   142A      1.890603   143A      1.897303
     144A      1.900913   145A      1.912102   146A      1.914174
     147A      1.927429   148A      1.945704   149A      1.947338
     150A      1.953391   151A      1.957640   152A      1.960157
     153A      1.969212   154A      1.982214   155A      1.988923
     156A      2.008054   157A      2.029153   158A      2.049407
     159A      2.064028   160A      2.072778   161A      2.084306
     162A      2.102341   163A      2.117544   164A      2.134437
     165A      2.143990   166A      2.180177   167A      2.199608
     168A      2.224731   169A      2.257259   170A      2.270771
     171A      2.298612   172A      2.312321   173A      2.320407
     174A      2.361139   175A      2.367351   176A      2.390036
     177A      2.448217   178A      2.455403   179A      2.470965
     180A      2.486949   181A      2.498128   182A      2.524903
     183A      2.536775   184A      2.566216   185A      2.591035
     186A      2.616646   187A      2.640355   188A      2.738181
     189A      2.768224   190A      2.779229   191A      2.787047
     192A      2.804009   193A      2.814885   194A      2.843639
     195A      2.867663   196A      2.873289   197A      2.889723
     198A      2.955562   199A      2.971202   200A      2.990198
     201A      3.004490   202A      3.085730   203A      3.123008
     204A      3.247440   205A      3.278115   206A      3.340896
     207A      3.568080   208A      3.662132   209A      3.968099
     210A      4.183030

    Final Occupation by Irrep:
              A
    DOCC [    38 ]

  @RHF Final Energy:  -423.85632298307974

   => Energetics <=

    Nuclear Repulsion Energy =            499.9119615172439808
    One-Electron Energy =               -1565.6199230544871170
    Two-Electron Energy =                 641.8516385541634008
    Total Energy =                       -423.8563229830797354

Computation Completed

Properties will be evaluated at   0.000000,   0.000000,   0.000000 [a0]

Properties computed using the SCF density matrix

  Nuclear Dipole Moment: [e a0]
     X:    11.4517      Y:   -11.3108      Z:     3.3570

  Electronic Dipole Moment: [e a0]
     X:   -11.5210      Y:    11.2282      Z:    -2.7789

  Dipole Moment: [e a0]
     X:    -0.0693      Y:    -0.0825      Z:     0.5781     Total:     0.5880

  Dipole Moment: [D]
     X:    -0.1762      Y:    -0.2098      Z:     1.4693     Total:     1.4946

*** tstop() called on ds3 at Mon Apr 27 13:28:28 2020
Module time:
	user time   =     108.87 seconds =       1.81 minutes
	system time =      48.43 seconds =       0.81 minutes
	total time  =        151 seconds =       2.52 minutes
Total time:
	user time   =     108.87 seconds =       1.81 minutes
	system time =      48.43 seconds =       0.81 minutes
	total time  =        151 seconds =       2.52 minutes
                                     G D M A

                                 by Anthony Stone

                           version 2.2.06, 22 June 2011

               Distributed Multipoles from Gaussian wavefunctions

Starting at 13:28:28 on 27 Apr 2020

Using SCF density matrix from file ./SSI/SSI-048LEU-074TYR-1-dimer.test.6584.fchk

                         Distributed Multipole Analysis

Standard DMA

Positions and radii in angstrom
Multipole moments in atomic units, ea_0^k for rank k

C          x =  1.311988  y = -2.991380  z =  0.651738 angstrom
           Maximum rank =  0   Radius =  0.650 angstrom
                   Q00  =  -0.240311

C          x =  1.990988  y = -3.197380  z = -0.693262 angstrom
           Maximum rank =  0   Radius =  0.650 angstrom
                   Q00  =  -0.233276

H          x =  0.668988  y = -3.838380  z =  0.881738 angstrom
           Maximum rank =  0   Radius =  0.325 angstrom
                   Q00  =   0.076892

H          x =  2.068988  y = -2.914380  z =  1.430738 angstrom
           Maximum rank =  0   Radius =  0.325 angstrom
                   Q00  =   0.070840

H          x =  0.719988  y = -2.077380  z =  0.635738 angstrom
           Maximum rank =  0   Radius =  0.325 angstrom
                   Q00  =   0.093993

H          x =  2.496988  y = -4.157380  z = -0.653262 angstrom
           Maximum rank =  0   Radius =  0.325 angstrom
                   Q00  =   0.071827

H          x =  1.260101  y = -3.200252  z = -1.515330 angstrom
           Maximum rank =  0   Radius =  0.325 angstrom
                   Q00  =   0.081901

H          x =  2.756486  y = -2.431882  z = -0.888261 angstrom
           Maximum rank =  0   Radius =  0.325 angstrom
                   Q00  =   0.075281

C          x =  2.210988  y =  0.818620  z =  1.234738 angstrom
           Maximum rank =  0   Radius =  0.650 angstrom
                   Q00  =  -0.195865

C          x =  0.838988  y =  0.831620  z =  0.592738 angstrom
           Maximum rank =  0   Radius =  0.650 angstrom
                   Q00  =  -0.141022

C          x = -0.299012  y =  0.635620  z =  1.368738 angstrom
           Maximum rank =  0   Radius =  0.650 angstrom
                   Q00  =  -0.061653

C          x =  0.686988  y =  1.071620  z = -0.775262 angstrom
           Maximum rank =  0   Radius =  0.650 angstrom
                   Q00  =   0.063139

C          x = -1.555012  y =  0.658620  z =  0.789738 angstrom
           Maximum rank =  0   Radius =  0.650 angstrom
                   Q00  =  -0.158176

C          x = -0.574012  y =  1.094620  z = -1.377262 angstrom
           Maximum rank =  0   Radius =  0.650 angstrom
                   Q00  =  -0.124218

C          x = -1.699012  y =  0.896620  z = -0.585262 angstrom
           Maximum rank =  0   Radius =  0.650 angstrom
                   Q00  =   0.280213

O          x = -2.956012  y =  0.896620  z = -1.131262 angstrom
           Maximum rank =  0   Radius =  0.650 angstrom
                   Q00  =  -0.647564

H          x =  2.961988  y =  1.146620  z =  0.513738 angstrom
           Maximum rank =  0   Radius =  0.325 angstrom
                   Q00  =   0.097317

H          x =  2.442988  y = -0.207380  z =  1.524738 angstrom
           Maximum rank =  0   Radius =  0.325 angstrom
                   Q00  =   0.098783

H          x = -0.217012  y =  0.430620  z =  2.426738 angstrom
           Maximum rank =  0   Radius =  0.325 angstrom
                   Q00  =   0.067771

H          x =  1.563988  y =  1.223620  z = -1.387262 angstrom
           Maximum rank =  0   Radius =  0.325 angstrom
                   Q00  =   0.065499

H          x = -2.429012  y =  0.490620  z =  1.402738 angstrom
           Maximum rank =  0   Radius =  0.325 angstrom
                   Q00  =   0.070185

H          x = -0.682012  y =  1.265620  z = -2.439262 angstrom
           Maximum rank =  0   Radius =  0.325 angstrom
                   Q00  =   0.082731

H          x = -3.636012  y =  0.731620  z = -0.467262 angstrom
           Maximum rank =  0   Radius =  0.325 angstrom
                   Q00  =   0.407774

H          x =  2.254265  y =  1.468490  z =  2.121188 angstrom
           Maximum rank =  0   Radius =  0.325 angstrom
                   Q00  =   0.097939

Total multipoles referred to origin at
           x =   0.000000,  y =    0.000000,  z =    0.000000 angstrom
                   Q00  =  -0.000000

Finished at 13:28:28 on 27 Apr 2020

  DMA results are available in the Python driver through the
	  variable('DMA DISTRIBUTED MULTIPOLES')
  and
	  variable('DMA TOTAL MULTIPOLES')
  commands.

    Psi4 stopped on: Monday, 27 April 2020 01:28PM
    Psi4 wall time for execution: 0:02:30.61

*** Psi4 exiting successfully. Buy a developer a beer!
