                               Psi4 1.3.2 release

  ==> Input File <==

--------------------------------------------------------------------------
import numpy as np
set {scf_type pk
basis cc-pvdz
d_convergence 10
gdma_switch   0
gdma_limit    0
gdma_origin   [ 0.0,  0.0,  0.0 ]
}
molecule test {
    units Angstrom
    0 1
    --
    0 1
    C               -2.705289611225269     0.974972314767311    -2.291122550170297
    C               -0.340289611225269    -0.128027685232689    -2.503122550170297
    C               -1.478289611225269     0.576972314767311    -3.030122550170296
    C                0.601710388774731    -0.276027685232689    -3.550122550170296
    C               -1.170289611225270     0.841972314767311    -4.332122550170296
    C               -0.028289611225269    -0.659027685232689    -1.243122550170297
    C                1.187710388774731    -1.308027685232689    -1.068122550170297
    C                2.102710388774731    -1.433027685232689    -2.127122550170297
    C                1.817710388774731    -0.918027685232689    -3.379122550170297
    N                0.054710388774731     0.320972314767311    -4.658122550170297
    H               -0.725289611225269    -0.560027685232689    -0.429122550170297
    H                1.435710388774731    -1.721027685232689    -0.097122550170297
    H                3.042710388774731    -1.946027685232689    -1.961122550170297
    H               -3.104289611225269     1.878972314767311    -2.754122550170297
    H               -2.357289611225269     1.269972314767311    -1.300122550170297
    H               -1.820289611225269     1.372972314767311    -5.020122550170296
    H                0.461710388774731     0.356972314767311    -5.587122550170297
    H                2.514710388774731    -1.023027685232689    -4.201122550170297
    H               -3.524189611225269     0.248817714767311    -2.181122550170297
    C               -2.192289611225269    -1.065027685232689     1.893877449829703
    C               -3.293289611225269    -0.914027685232689     2.928877449829703
    C               -0.798289611225269    -0.849027685232689     2.384877449829703
    C               -0.003289611225269    -1.787027685232689     2.977877449829704
    C               -0.031289611225269     0.354972314767311     2.326877449829703
    C                1.245710388774731     0.076972314767311     2.899877449829703
    C               -0.266289611225270     1.645972314767311     1.847877449829703
    C                2.231710388774731     1.044972314767311     3.013877449829704
    C                0.722710388774731     2.610972314767311     1.943877449829703
    C                1.972710388774731     2.310972314767311     2.524877449829703
    N                1.206710388774731    -1.235027685232689     3.290877449829703
    H               -2.246289611225269    -2.071027685232689     1.473877449829703
    H               -2.380289611225269    -0.363027685232689     1.083877449829703
    H               -3.094289611225269    -1.600027685232689     3.753877449829703
    H               -0.294289611225269    -2.816027685232689     3.169877449829703
    H                1.960710388774731    -1.742027685232689     3.743877449829704
    H               -1.211289611225269     1.865972314767311     1.382877449829703
    H                3.185710388774731     0.808972314767311     3.463877449829703
    H                0.536710388774731     3.598972314767311     1.548877449829703
    H                2.733710388774731     3.077972314767311     2.584877449829703
    H               -4.265319611225269    -1.160026685232689     2.476507449829703
    H               -3.320709611225269     0.107823114767311     3.335167449829703

}
e, wfn = energy('scf', return_wfn=True)
gdma(wfn)
dmavals = variable('DMA DISTRIBUTED MULTIPOLES')
charges = np.array(dmavals)
print(charges)
np.save('SSI-034TRP-037TRP-1-dimer.npy', np.array(charges))--------------------------------------------------------------------------

*** tstart() called on ds3
*** at Tue Apr 28 17:57:58 2020

   => Loading Basis Set <=

    Name: CC-PVDZ
    Role: ORBITAL
    Keyword: BASIS
    atoms 1-9, 20-29   entry C          line   138 file /theoryfs2/ds/metcalf/miniconda2/envs/tf2gpu/share/psi4/basis/cc-pvdz.gbs
    atoms 10, 30       entry N          line   168 file /theoryfs2/ds/metcalf/miniconda2/envs/tf2gpu/share/psi4/basis/cc-pvdz.gbs
    atoms 11-19, 31-41 entry H          line    22 file /theoryfs2/ds/metcalf/miniconda2/envs/tf2gpu/share/psi4/basis/cc-pvdz.gbs

         ---------------------------------------------------------
                                   SCF
               by Justin Turney, Rob Parrish, Andy Simmonett
                          and Daniel G. A. Smith
                              RHF Reference
                        1 Threads,    500 MiB Core
         ---------------------------------------------------------

  ==> Geometry <==

    Molecular point group: c1
    Full point group: C1

    Geometry (in Angstrom), charge = 0, multiplicity = 1:

       Center              X                  Y                   Z               Mass
    ------------   -----------------  -----------------  -----------------  -----------------
         C           -2.705289611225     0.974972314767    -2.291122550170    12.000000000000
         C           -0.340289611225    -0.128027685233    -2.503122550170    12.000000000000
         C           -1.478289611225     0.576972314767    -3.030122550170    12.000000000000
         C            0.601710388775    -0.276027685233    -3.550122550170    12.000000000000
         C           -1.170289611225     0.841972314767    -4.332122550170    12.000000000000
         C           -0.028289611225    -0.659027685233    -1.243122550170    12.000000000000
         C            1.187710388775    -1.308027685233    -1.068122550170    12.000000000000
         C            2.102710388775    -1.433027685233    -2.127122550170    12.000000000000
         C            1.817710388775    -0.918027685233    -3.379122550170    12.000000000000
         N            0.054710388775     0.320972314767    -4.658122550170    14.003074004430
         H           -0.725289611225    -0.560027685233    -0.429122550170     1.007825032230
         H            1.435710388775    -1.721027685233    -0.097122550170     1.007825032230
         H            3.042710388775    -1.946027685233    -1.961122550170     1.007825032230
         H           -3.104289611225     1.878972314767    -2.754122550170     1.007825032230
         H           -2.357289611225     1.269972314767    -1.300122550170     1.007825032230
         H           -1.820289611225     1.372972314767    -5.020122550170     1.007825032230
         H            0.461710388775     0.356972314767    -5.587122550170     1.007825032230
         H            2.514710388775    -1.023027685233    -4.201122550170     1.007825032230
         H           -3.524189611225     0.248817714767    -2.181122550170     1.007825032230
         C           -2.192289611225    -1.065027685233     1.893877449830    12.000000000000
         C           -3.293289611225    -0.914027685233     2.928877449830    12.000000000000
         C           -0.798289611225    -0.849027685233     2.384877449830    12.000000000000
         C           -0.003289611225    -1.787027685233     2.977877449830    12.000000000000
         C           -0.031289611225     0.354972314767     2.326877449830    12.000000000000
         C            1.245710388775     0.076972314767     2.899877449830    12.000000000000
         C           -0.266289611225     1.645972314767     1.847877449830    12.000000000000
         C            2.231710388775     1.044972314767     3.013877449830    12.000000000000
         C            0.722710388775     2.610972314767     1.943877449830    12.000000000000
         C            1.972710388775     2.310972314767     2.524877449830    12.000000000000
         N            1.206710388775    -1.235027685233     3.290877449830    14.003074004430
         H           -2.246289611225    -2.071027685233     1.473877449830     1.007825032230
         H           -2.380289611225    -0.363027685233     1.083877449830     1.007825032230
         H           -3.094289611225    -1.600027685233     3.753877449830     1.007825032230
         H           -0.294289611225    -2.816027685233     3.169877449830     1.007825032230
         H            1.960710388775    -1.742027685233     3.743877449830     1.007825032230
         H           -1.211289611225     1.865972314767     1.382877449830     1.007825032230
         H            3.185710388775     0.808972314767     3.463877449830     1.007825032230
         H            0.536710388775     3.598972314767     1.548877449830     1.007825032230
         H            2.733710388775     3.077972314767     2.584877449830     1.007825032230
         H           -4.265319611225    -1.160026685233     2.476507449830     1.007825032230
         H           -3.320709611225     0.107823114767     3.335167449830     1.007825032230

  Running in c1 symmetry.

  Rotational constants: A =      0.01471  B =      0.00630  C =      0.00570 [cm^-1]
  Rotational constants: A =    440.89991  B =    189.01893  C =    170.94035 [MHz]
  Nuclear repulsion = 1547.792953588251976

  Charge       = 0
  Multiplicity = 1
  Electrons    = 148
  Nalpha       = 74
  Nbeta        = 74

  ==> Algorithm <==

  SCF Algorithm Type is PK.
  DIIS enabled.
  MOM disabled.
  Fractional occupation disabled.
  Guess Type is SAD.
  Energy threshold   = 1.00e-06
  Density threshold  = 1.00e-10
  Integral threshold = 0.00e+00

  ==> Primary Basis <==

  Basis Set: CC-PVDZ
    Blend: CC-PVDZ
    Number of shells: 186
    Number of basis function: 394
    Number of Cartesian functions: 415
    Spherical Harmonics?: true
    Max angular momentum: 2

  ==> Pre-Iterations <==

   -------------------------------------------------------
    Irrep   Nso     Nmo     Nalpha   Nbeta   Ndocc  Nsocc
   -------------------------------------------------------
     A        394     394       0       0       0       0
   -------------------------------------------------------
    Total     394     394      74      74      74       0
   -------------------------------------------------------

  ==> Integral Setup <==

  Using Yoshimine PK algorithm.
  Sizing the integral batches needed.
  Building batch lookup table.
   Calculation information:
      Number of atoms:                  41
      Number of AO shells:             186
      Number of primitives:            562
      Number of atomic orbitals:       415
      Number of basis functions:       394

      Integral cutoff                 1.00e-12
      Number of threads:                 1

	Batch   1 pq = [       0,    9405] index = [             0,44231715] size =     44231715
	Batch   2 pq = [    9405,   13301] index = [      44231715,88464951] size =     44233236
	Batch   3 pq = [   13301,   16290] index = [      88464951,132690195] size =     44225244
	Batch   4 pq = [   16290,   18810] index = [     132690195,176917455] size =     44227260
	Batch   5 pq = [   18810,   21030] index = [     176917455,221140965] size =     44223510
	Batch   6 pq = [   21030,   23037] index = [     221140965,265363203] size =     44222238
	Batch   7 pq = [   23037,   24883] index = [     265363203,309594286] size =     44231083
	Batch   8 pq = [   24883,   26601] index = [     309594286,353819901] size =     44225615
	Batch   9 pq = [   26601,   28214] index = [     353819901,398029005] size =     44209104
	Batch  10 pq = [   28214,   29740] index = [     398029005,442248670] size =     44219665
	Batch  11 pq = [   29740,   31191] index = [     442248670,486454836] size =     44206166
	Batch  12 pq = [   31191,   32578] index = [     486454836,530679331] size =     44224495
	Batch  13 pq = [   32578,   33908] index = [     530679331,574893186] size =     44213855
	Batch  14 pq = [   33908,   35188] index = [     574893186,619115266] size =     44222080
	Batch  15 pq = [   35188,   36423] index = [     619115266,663335676] size =     44220410
	Batch  16 pq = [   36423,   37617] index = [     663335676,707538153] size =     44202477
	Batch  17 pq = [   37617,   38775] index = [     707538153,751769700] size =     44231547
	Batch  18 pq = [   38775,   39899] index = [     751769700,795985050] size =     44215350
	Batch  19 pq = [   39899,   40992] index = [     795985050,840192528] size =     44207478
	Batch  20 pq = [   40992,   42057] index = [     840192528,884416653] size =     44224125
	Batch  21 pq = [   42057,   43095] index = [     884416653,928611060] size =     44194407
	Batch  22 pq = [   43095,   44109] index = [     928611060,972823995] size =     44212935
	Batch  23 pq = [   44109,   45100] index = [     972823995,1017027550] size =     44203555
	Batch  24 pq = [   45100,   46070] index = [    1017027550,1061245485] size =     44217935
	Batch  25 pq = [   46070,   47020] index = [    1061245485,1105463710] size =     44218225
	Batch  26 pq = [   47020,   47951] index = [    1105463710,1149673176] size =     44209466
	Batch  27 pq = [   47951,   48864] index = [    1149673176,1193869680] size =     44196504
	Batch  28 pq = [   48864,   49761] index = [    1193869680,1238103441] size =     44233761
	Batch  29 pq = [   49761,   50642] index = [    1238103441,1282331403] size =     44227962
	Batch  30 pq = [   50642,   51508] index = [    1282331403,1326562786] size =     44231383
	Batch  31 pq = [   51508,   52359] index = [    1326562786,1370758620] size =     44195834
	Batch  32 pq = [   52359,   53197] index = [    1370758620,1414987003] size =     44228383
	Batch  33 pq = [   53197,   54022] index = [    1414987003,1459215253] size =     44228250
	Batch  34 pq = [   54022,   54834] index = [    1459215253,1503411195] size =     44195942
	Batch  35 pq = [   54834,   55634] index = [    1503411195,1547598795] size =     44187600
	Batch  36 pq = [   55634,   56423] index = [    1547598795,1591805676] size =     44206881
	Batch  37 pq = [   56423,   57201] index = [    1591805676,1636005801] size =     44200125
	Batch  38 pq = [   57201,   57969] index = [    1636005801,1680231465] size =     44225664
	Batch  39 pq = [   57969,   58727] index = [    1680231465,1724459628] size =     44228163
	Batch  40 pq = [   58727,   59475] index = [    1724459628,1768667550] size =     44207922
	Batch  41 pq = [   59475,   60214] index = [    1768667550,1812893005] size =     44225455
	Batch  42 pq = [   60214,   60944] index = [    1812893005,1857116040] size =     44223035
	Batch  43 pq = [   60944,   61665] index = [    1857116040,1901316945] size =     44200905
	Batch  44 pq = [   61665,   62378] index = [    1901316945,1945538631] size =     44221686
	Batch  45 pq = [   62378,   63083] index = [    1945538631,1989763986] size =     44225355
	Batch  46 pq = [   63083,   63780] index = [    1989763986,2033976090] size =     44212104
	Batch  47 pq = [   63780,   64469] index = [    2033976090,2078158215] size =     44182125
	Batch  48 pq = [   64469,   65151] index = [    2078158215,2122358976] size =     44200761
	Batch  49 pq = [   65151,   65826] index = [    2122358976,2166564051] size =     44205075
	Batch  50 pq = [   65826,   66494] index = [    2166564051,2210759265] size =     44195214
	Batch  51 pq = [   66494,   67155] index = [    2210759265,2254930590] size =     44171325
	Batch  52 pq = [   67155,   67810] index = [    2254930590,2299131955] size =     44201365
	Batch  53 pq = [   67810,   68459] index = [    2299131955,2343351570] size =     44219615
	Batch  54 pq = [   68459,   69102] index = [    2343351570,2387577753] size =     44226183
	Batch  55 pq = [   69102,   69739] index = [    2387577753,2431798930] size =     44221177
	Batch  56 pq = [   69739,   70370] index = [    2431798930,2476003635] size =     44204705
	Batch  57 pq = [   70370,   70995] index = [    2476003635,2520180510] size =     44176875
	Batch  58 pq = [   70995,   71615] index = [    2520180510,2564389920] size =     44209410
	Batch  59 pq = [   71615,   72230] index = [    2564389920,2608622565] size =     44232645
	Batch  60 pq = [   72230,   72839] index = [    2608622565,2652796380] size =     44173815
	Batch  61 pq = [   72839,   73443] index = [    2652796380,2696973846] size =     44177466
	Batch  62 pq = [   73443,   74042] index = [    2696973846,2741145903] size =     44172057
	Batch  63 pq = [   74042,   74637] index = [    2741145903,2785378203] size =     44232300
	Batch  64 pq = [   74637,   75227] index = [    2785378203,2829588378] size =     44210175
	Batch  65 pq = [   75227,   75812] index = [    2829588378,2873767578] size =     44179200
	Batch  66 pq = [   75812,   76393] index = [    2873767578,2917983421] size =     44215843
	Batch  67 pq = [   76393,   76969] index = [    2917983421,2962151965] size =     44168544
	Batch  68 pq = [   76969,   77541] index = [    2962151965,3006342111] size =     44190146
	Batch  69 pq = [   77541,   77815] index = [    3006342111,3027626020] size =     21283909
  ==> DiskJK: Disk-Based J/K Matrices <==

    J tasked:                  Yes
    K tasked:                  Yes
    wK tasked:                  No
    Memory [MiB]:              375
    Schwarz Cutoff:          1E-12

    OpenMP threads:              1

  Minimum eigenvalue in the overlap matrix is 2.1202650718E-04.
  Using Symmetric Orthogonalization.

  SCF Guess: Superposition of Atomic Densities via on-the-fly atomic UHF.

  ==> Iterations <==

                        Total Energy        Delta E     RMS |[F,P]|

   @RHF iter SAD:  -839.82093592670094   -8.39821e+02   0.00000e+00
   @RHF iter   1:  -839.66677928710760    1.54157e-01   1.99278e-03 DIIS
   @RHF iter   2:  -840.02401157797067   -3.57232e-01   9.30713e-04 DIIS
   @RHF iter   3:  -840.09388016004891   -6.98686e-02   2.69969e-04 DIIS
   @RHF iter   4:  -840.10105284996916   -7.17269e-03   1.19918e-04 DIIS
   @RHF iter   5:  -840.10233457282629   -1.28172e-03   1.74861e-05 DIIS
   @RHF iter   6:  -840.10238870460194   -5.41318e-05   8.55283e-06 DIIS
   @RHF iter   7:  -840.10240246870740   -1.37641e-05   3.42983e-06 DIIS
   @RHF iter   8:  -840.10240595306504   -3.48436e-06   1.33774e-06 DIIS
   @RHF iter   9:  -840.10240657440613   -6.21341e-07   6.08199e-07 DIIS
   @RHF iter  10:  -840.10240671845554   -1.44049e-07   2.80391e-07 DIIS
   @RHF iter  11:  -840.10240675392390   -3.54684e-08   1.11874e-07 DIIS
   @RHF iter  12:  -840.10240675906311   -5.13921e-09   4.47156e-08 DIIS
   @RHF iter  13:  -840.10240675957346   -5.10340e-10   1.28391e-08 DIIS
   @RHF iter  14:  -840.10240675961552   -4.20641e-11   4.03759e-09 DIIS
   @RHF iter  15:  -840.10240675962154   -6.02540e-12   1.74165e-09 DIIS
   @RHF iter  16:  -840.10240675961825    3.29692e-12   9.19460e-10 DIIS
   @RHF iter  17:  -840.10240675962473   -6.48015e-12   4.45031e-10 DIIS
   @RHF iter  18:  -840.10240675961347    1.12550e-11   1.57555e-10 DIIS
   @RHF iter  19:  -840.10240675960995    3.52429e-12   6.85105e-11 DIIS
  Energy and wave function converged.

  ==> Post-Iterations <==

    Orbital Energies [Eh]
    ---------------------

    Doubly Occupied:

       1A    -15.602680     2A    -15.595493     3A    -11.263524
       4A    -11.261211     5A    -11.258381     6A    -11.255605
       7A    -11.227944     8A    -11.226622     9A    -11.225497
      10A    -11.224444    11A    -11.222711    12A    -11.222622
      13A    -11.221284    14A    -11.219002    15A    -11.218403
      16A    -11.217679    17A    -11.217063    18A    -11.212487
      19A    -11.212331    20A    -11.211318    21A    -11.211256
      22A     -1.296942    23A     -1.289563    24A     -1.126458
      25A     -1.120395    26A     -1.083490    27A     -1.068291
      28A     -1.015209    29A     -0.991191    30A     -0.989843
      31A     -0.980250    32A     -0.966270    33A     -0.926864
      34A     -0.856978    35A     -0.837012    36A     -0.831287
      37A     -0.803510    38A     -0.796065    39A     -0.747127
      40A     -0.745396    41A     -0.718125    42A     -0.713421
      43A     -0.665302    44A     -0.655167    45A     -0.642187
      46A     -0.633445    47A     -0.613950    48A     -0.599291
      49A     -0.594360    50A     -0.587500    51A     -0.585580
      52A     -0.584694    53A     -0.579143    54A     -0.573722
      55A     -0.561119    56A     -0.549742    57A     -0.545094
      58A     -0.533120    59A     -0.519068    60A     -0.517669
      61A     -0.506819    62A     -0.497513    63A     -0.484019
      64A     -0.476776    65A     -0.464237    66A     -0.460464
      67A     -0.458439    68A     -0.452826    69A     -0.372304
      70A     -0.364761    71A     -0.293199    72A     -0.287336
      73A     -0.272426    74A     -0.266774

    Virtual:

      75A      0.126396    76A      0.133793    77A      0.167426
      78A      0.172789    79A      0.178320    80A      0.179557
      81A      0.185281    82A      0.196116    83A      0.206504
      84A      0.211387    85A      0.219630    86A      0.222022
      87A      0.227020    88A      0.237477    89A      0.239965
      90A      0.245407    91A      0.257600    92A      0.264649
      93A      0.270001    94A      0.273143    95A      0.285010
      96A      0.290225    97A      0.297042    98A      0.305638
      99A      0.344178   100A      0.364175   101A      0.381644
     102A      0.382151   103A      0.390533   104A      0.398053
     105A      0.405606   106A      0.414827   107A      0.426538
     108A      0.427880   109A      0.438886   110A      0.447204
     111A      0.456155   112A      0.474399   113A      0.485094
     114A      0.485210   115A      0.493670   116A      0.502364
     117A      0.514690   118A      0.524108   119A      0.530476
     120A      0.596111   121A      0.604072   122A      0.608819
     123A      0.614795   124A      0.628091   125A      0.639668
     126A      0.646488   127A      0.650554   128A      0.658684
     129A      0.668375   130A      0.673985   131A      0.687189
     132A      0.698372   133A      0.702640   134A      0.708521
     135A      0.713735   136A      0.723727   137A      0.726669
     138A      0.734035   139A      0.735769   140A      0.737770
     141A      0.743426   142A      0.745009   143A      0.750670
     144A      0.751615   145A      0.760602   146A      0.763164
     147A      0.765289   148A      0.773004   149A      0.779748
     150A      0.786178   151A      0.791014   152A      0.792695
     153A      0.796980   154A      0.805500   155A      0.820197
     156A      0.822936   157A      0.838404   158A      0.843442
     159A      0.865250   160A      0.871105   161A      0.881869
     162A      0.883166   163A      0.891909   164A      0.893466
     165A      0.895925   166A      0.903766   167A      0.907499
     168A      0.909625   169A      0.916966   170A      0.921775
     171A      0.922389   172A      0.926395   173A      0.935087
     174A      0.938048   175A      0.952702   176A      0.954922
     177A      0.961177   178A      0.974318   179A      0.977113
     180A      0.986939   181A      0.993889   182A      1.003875
     183A      1.012854   184A      1.017888   185A      1.022614
     186A      1.038259   187A      1.049881   188A      1.059242
     189A      1.073819   190A      1.079849   191A      1.085815
     192A      1.100663   193A      1.108275   194A      1.120134
     195A      1.130030   196A      1.134945   197A      1.145540
     198A      1.149251   199A      1.153407   200A      1.161565
     201A      1.168904   202A      1.180608   203A      1.192632
     204A      1.206734   205A      1.212249   206A      1.227123
     207A      1.230249   208A      1.234466   209A      1.242263
     210A      1.243292   211A      1.246836   212A      1.260996
     213A      1.267597   214A      1.277867   215A      1.279074
     216A      1.290747   217A      1.297147   218A      1.303918
     219A      1.312785   220A      1.316644   221A      1.329369
     222A      1.336678   223A      1.338654   224A      1.349723
     225A      1.365170   226A      1.372178   227A      1.376420
     228A      1.389720   229A      1.404805   230A      1.428355
     231A      1.448610   232A      1.459885   233A      1.470042
     234A      1.490317   235A      1.518284   236A      1.528395
     237A      1.556111   238A      1.577117   239A      1.585209
     240A      1.596974   241A      1.611577   242A      1.617270
     243A      1.628022   244A      1.646081   245A      1.649899
     246A      1.655427   247A      1.669397   248A      1.679141
     249A      1.694052   250A      1.701537   251A      1.713747
     252A      1.726480   253A      1.746417   254A      1.746591
     255A      1.760178   256A      1.769756   257A      1.778585
     258A      1.785024   259A      1.789836   260A      1.797838
     261A      1.806195   262A      1.816631   263A      1.824988
     264A      1.836885   265A      1.846194   266A      1.852482
     267A      1.875992   268A      1.881716   269A      1.887748
     270A      1.892661   271A      1.897061   272A      1.904197
     273A      1.909194   274A      1.910900   275A      1.919760
     276A      1.927758   277A      1.928912   278A      1.941164
     279A      1.944295   280A      1.948319   281A      1.952759
     282A      1.960116   283A      1.961180   284A      1.973895
     285A      1.982805   286A      1.986405   287A      1.991309
     288A      2.007028   289A      2.011010   290A      2.014425
     291A      2.018902   292A      2.020610   293A      2.031260
     294A      2.036475   295A      2.047331   296A      2.058705
     297A      2.077106   298A      2.084367   299A      2.092706
     300A      2.098212   301A      2.101086   302A      2.103279
     303A      2.105329   304A      2.109943   305A      2.114931
     306A      2.116272   307A      2.132445   308A      2.140388
     309A      2.156210   310A      2.164862   311A      2.165249
     312A      2.170098   313A      2.176749   314A      2.181448
     315A      2.183172   316A      2.188660   317A      2.203424
     318A      2.236666   319A      2.248387   320A      2.270754
     321A      2.275779   322A      2.283379   323A      2.297129
     324A      2.301548   325A      2.315686   326A      2.323339
     327A      2.331489   328A      2.345240   329A      2.357761
     330A      2.359807   331A      2.369748   332A      2.387655
     333A      2.403680   334A      2.416402   335A      2.424580
     336A      2.432767   337A      2.460296   338A      2.466628
     339A      2.479740   340A      2.481935   341A      2.520946
     342A      2.548278   343A      2.560162   344A      2.585333
     345A      2.592896   346A      2.595120   347A      2.611894
     348A      2.620775   349A      2.638631   350A      2.652867
     351A      2.680030   352A      2.684757   353A      2.696517
     354A      2.711124   355A      2.714691   356A      2.721856
     357A      2.768307   358A      2.777351   359A      2.782869
     360A      2.786711   361A      2.790547   362A      2.792210
     363A      2.809737   364A      2.818703   365A      2.823964
     366A      2.848648   367A      2.861682   368A      2.884560
     369A      2.906346   370A      2.908094   371A      2.916652
     372A      2.927836   373A      2.936305   374A      2.968318
     375A      2.979715   376A      3.003436   377A      3.042186
     378A      3.061213   379A      3.065227   380A      3.076871
     381A      3.084409   382A      3.113239   383A      3.131673
     384A      3.147292   385A      3.218575   386A      3.224977
     387A      3.315084   388A      3.320590   389A      3.390933
     390A      3.399759   391A      3.747618   392A      3.750860
     393A      3.959943   394A      3.963241

    Final Occupation by Irrep:
              A
    DOCC [    74 ]

  @RHF Final Energy:  -840.10240675960995

   => Energetics <=

    Nuclear Repulsion Energy =           1547.7929535882519758
    One-Electron Energy =               -4214.5321482417830339
    Two-Electron Energy =                1826.6367878939208822
    Total Energy =                       -840.1024067596099485

Computation Completed

Properties will be evaluated at   0.000000,   0.000000,   0.000000 [a0]

Properties computed using the SCF density matrix

  Nuclear Dipole Moment: [e a0]
     X:   -11.6959      Y:    -0.3863      Z:     4.2099

  Electronic Dipole Moment: [e a0]
     X:    11.9759      Y:    -0.0465      Z:    -4.5396

  Dipole Moment: [e a0]
     X:     0.2800      Y:    -0.4328      Z:    -0.3297     Total:     0.6119

  Dipole Moment: [D]
     X:     0.7117      Y:    -1.1000      Z:    -0.8379     Total:     1.5552

*** tstop() called on ds3 at Wed Apr 29 01:10:11 2020
Module time:
	user time   =     847.07 seconds =      14.12 minutes
	system time =     908.51 seconds =      15.14 minutes
	total time  =      25933 seconds =     432.22 minutes
Total time:
	user time   =     847.07 seconds =      14.12 minutes
	system time =     908.51 seconds =      15.14 minutes
	total time  =      25933 seconds =     432.22 minutes
                                     G D M A

                                 by Anthony Stone

                           version 2.2.06, 22 June 2011

               Distributed Multipoles from Gaussian wavefunctions

Starting at 1:10:12 on 29 Apr 2020

Using SCF density matrix from file ./SSI/SSI-034TRP-037TRP-1-dimer.test.2792.fchk

                         Distributed Multipole Analysis

Standard DMA

Positions and radii in angstrom
Multipole moments in atomic units, ea_0^k for rank k

C          x = -2.705290  y =  0.974972  z = -2.291123 angstrom
           Maximum rank =  0   Radius =  0.650 angstrom
                   Q00  =  -0.211564

C          x = -0.340290  y = -0.128028  z = -2.503123 angstrom
           Maximum rank =  0   Radius =  0.650 angstrom
                   Q00  =  -0.062221

C          x = -1.478290  y =  0.576972  z = -3.030123 angstrom
           Maximum rank =  0   Radius =  0.650 angstrom
                   Q00  =  -0.125052

C          x =  0.601710  y = -0.276028  z = -3.550123 angstrom
           Maximum rank =  0   Radius =  0.650 angstrom
                   Q00  =   0.302850

C          x = -1.170290  y =  0.841972  z = -4.332123 angstrom
           Maximum rank =  0   Radius =  0.650 angstrom
                   Q00  =   0.070366

C          x = -0.028290  y = -0.659028  z = -1.243123 angstrom
           Maximum rank =  0   Radius =  0.650 angstrom
                   Q00  =  -0.070013

C          x =  1.187710  y = -1.308028  z = -1.068123 angstrom
           Maximum rank =  0   Radius =  0.650 angstrom
                   Q00  =  -0.073277

C          x =  2.102710  y = -1.433028  z = -2.127123 angstrom
           Maximum rank =  0   Radius =  0.650 angstrom
                   Q00  =  -0.078733

C          x =  1.817710  y = -0.918028  z = -3.379123 angstrom
           Maximum rank =  0   Radius =  0.650 angstrom
                   Q00  =  -0.124997

N          x =  0.054710  y =  0.320972  z = -4.658123 angstrom
           Maximum rank =  0   Radius =  0.650 angstrom
                   Q00  =  -0.493406

H          x = -0.725290  y = -0.560028  z = -0.429123 angstrom
           Maximum rank =  0   Radius =  0.325 angstrom
                   Q00  =   0.054203

H          x =  1.435710  y = -1.721028  z = -0.097123 angstrom
           Maximum rank =  0   Radius =  0.325 angstrom
                   Q00  =   0.057187

H          x =  3.042710  y = -1.946028  z = -1.961123 angstrom
           Maximum rank =  0   Radius =  0.325 angstrom
                   Q00  =   0.059234

H          x = -3.104290  y =  1.878972  z = -2.754123 angstrom
           Maximum rank =  0   Radius =  0.325 angstrom
                   Q00  =   0.103189

H          x = -2.357290  y =  1.269972  z = -1.300123 angstrom
           Maximum rank =  0   Radius =  0.325 angstrom
                   Q00  =   0.096476

H          x = -1.820290  y =  1.372972  z = -5.020123 angstrom
           Maximum rank =  0   Radius =  0.325 angstrom
                   Q00  =   0.096522

H          x =  0.461710  y =  0.356972  z = -5.587123 angstrom
           Maximum rank =  0   Radius =  0.325 angstrom
                   Q00  =   0.216275

H          x =  2.514710  y = -1.023028  z = -4.201123 angstrom
           Maximum rank =  0   Radius =  0.325 angstrom
                   Q00  =   0.070428

H          x = -3.524190  y =  0.248818  z = -2.181123 angstrom
           Maximum rank =  0   Radius =  0.325 angstrom
                   Q00  =   0.098519

C          x = -2.192290  y = -1.065028  z =  1.893877 angstrom
           Maximum rank =  0   Radius =  0.650 angstrom
                   Q00  =  -0.057467

C          x = -3.293290  y = -0.914028  z =  2.928877 angstrom
           Maximum rank =  0   Radius =  0.650 angstrom
                   Q00  =  -0.225668

C          x = -0.798290  y = -0.849028  z =  2.384877 angstrom
           Maximum rank =  0   Radius =  0.650 angstrom
                   Q00  =  -0.131539

C          x = -0.003290  y = -1.787028  z =  2.977877 angstrom
           Maximum rank =  0   Radius =  0.650 angstrom
                   Q00  =   0.070260

C          x = -0.031290  y =  0.354972  z =  2.326877 angstrom
           Maximum rank =  0   Radius =  0.650 angstrom
                   Q00  =  -0.036845

C          x =  1.245710  y =  0.076972  z =  2.899877 angstrom
           Maximum rank =  0   Radius =  0.650 angstrom
                   Q00  =   0.285654

C          x = -0.266290  y =  1.645972  z =  1.847877 angstrom
           Maximum rank =  0   Radius =  0.650 angstrom
                   Q00  =  -0.096713

C          x =  2.231710  y =  1.044972  z =  3.013877 angstrom
           Maximum rank =  0   Radius =  0.650 angstrom
                   Q00  =  -0.115417

C          x =  0.722710  y =  2.610972  z =  1.943877 angstrom
           Maximum rank =  0   Radius =  0.650 angstrom
                   Q00  =  -0.074584

C          x =  1.972710  y =  2.310972  z =  2.524877 angstrom
           Maximum rank =  0   Radius =  0.650 angstrom
                   Q00  =  -0.077106

N          x =  1.206710  y = -1.235028  z =  3.290877 angstrom
           Maximum rank =  0   Radius =  0.650 angstrom
                   Q00  =  -0.487249

H          x = -2.246290  y = -2.071028  z =  1.473877 angstrom
           Maximum rank =  0   Radius =  0.325 angstrom
                   Q00  =   0.071412

H          x = -2.380290  y = -0.363028  z =  1.083877 angstrom
           Maximum rank =  0   Radius =  0.325 angstrom
                   Q00  =   0.065788

H          x = -3.094290  y = -1.600028  z =  3.753877 angstrom
           Maximum rank =  0   Radius =  0.325 angstrom
                   Q00  =   0.077958

H          x = -0.294290  y = -2.816028  z =  3.169877 angstrom
           Maximum rank =  0   Radius =  0.325 angstrom
                   Q00  =   0.101768

H          x =  1.960710  y = -1.742028  z =  3.743877 angstrom
           Maximum rank =  0   Radius =  0.325 angstrom
                   Q00  =   0.214336

H          x = -1.211290  y =  1.865972  z =  1.382877 angstrom
           Maximum rank =  0   Radius =  0.325 angstrom
                   Q00  =   0.065576

H          x =  3.185710  y =  0.808972  z =  3.463877 angstrom
           Maximum rank =  0   Radius =  0.325 angstrom
                   Q00  =   0.070993

H          x =  0.536710  y =  3.598972  z =  1.548877 angstrom
           Maximum rank =  0   Radius =  0.325 angstrom
                   Q00  =   0.061353

H          x =  2.733710  y =  3.077972  z =  2.584877 angstrom
           Maximum rank =  0   Radius =  0.325 angstrom
                   Q00  =   0.066228

H          x = -4.265320  y = -1.160027  z =  2.476507 angstrom
           Maximum rank =  0   Radius =  0.325 angstrom
                   Q00  =   0.079654

H          x = -3.320710  y =  0.107823  z =  3.335167 angstrom
           Maximum rank =  0   Radius =  0.325 angstrom
                   Q00  =   0.085622

Total multipoles referred to origin at
           x =   0.000000,  y =    0.000000,  z =    0.000000 angstrom
                   Q00  =  -0.000000

Finished at 1:10:12 on 29 Apr 2020

  DMA results are available in the Python driver through the
	  variable('DMA DISTRIBUTED MULTIPOLES')
  and
	  variable('DMA TOTAL MULTIPOLES')
  commands.

    Psi4 stopped on: Wednesday, 29 April 2020 01:10AM
    Psi4 wall time for execution: 7:12:13.50

*** Psi4 exiting successfully. Buy a developer a beer!
