                               Psi4 1.3.2 release

  ==> Input File <==

--------------------------------------------------------------------------
import numpy as np
set {scf_type pk
basis cc-pvdz
d_convergence 10
gdma_switch   0
gdma_limit    0
gdma_origin   [ 0.0,  0.0,  0.0 ]
}
molecule test {
    units Angstrom
    0 1
    --
    0 1
    C               -1.429526560330344     1.487519455368562     0.709046484988638
    C               -1.894526560330344     2.776519455368561     0.062046484988638
    C               -0.407526560330344     0.781519455368562    -0.151953515011362
    C               -0.694526560330344     0.513519455368561    -1.501953515011362
    C                0.852473439669656     0.386519455368562     0.345046484988638
    C                0.222473439669656    -0.137480544631439    -2.342953515011362
    C                1.769473439669656    -0.291480544631438    -0.509953515011362
    C                1.444473439669656    -0.557480544631438    -1.855953515011362
    O                2.376473439669656    -1.159480544631438    -2.665953515011362
    H               -1.010526560330344     1.692519455368561     1.696046484988638
    H               -2.272526560330344     0.809519455368562     0.828046484988638
    H               -2.321526560330344     2.568519455368561    -0.917953515011362
    H               -1.656526560330344     0.790519455368561    -1.889953515011362
    H                1.122473439669656     0.595519455368561     1.371046484988638
    H               -0.034526560330344    -0.311480544631438    -3.376953515011362
    H                2.734473439669656    -0.597480544631438    -0.131953515011362
    H                1.960473439669656    -1.437480544631438    -3.483953515011362
    H               -1.018807560330344     3.436489455368561    -0.024853515011362
    H               -2.696642360330344     3.226519455368561     0.665456484988638
    C               -0.787526560330344    -1.370480544631439     3.061046484988638
    C               -1.292526560330344    -2.087480544631439     4.315046484988638
    H               -0.362526560330344    -2.085480544631439     2.361046484988638
    H               -1.580526560330344    -0.756480544631439     2.635046484988638
    H                0.026473439669656    -0.706480544631438     3.343046484988638
    H               -1.222526560330344    -1.390480544631439     5.153046484988638
    H               -0.629463560330344    -2.944220544631439     4.505686484988638
    H               -2.353524160330344    -2.362690544631438     4.222596484988638

}
e, wfn = energy('scf', return_wfn=True)
gdma(wfn)
dmavals = variable('DMA DISTRIBUTED MULTIPOLES')
charges = np.array(dmavals)
print(charges)
np.save('SSI-034TYR-136ALA-1-dimer.npy', np.array(charges))--------------------------------------------------------------------------

*** tstart() called on ds3
*** at Tue Apr 28 21:42:31 2020

   => Loading Basis Set <=

    Name: CC-PVDZ
    Role: ORBITAL
    Keyword: BASIS
    atoms 1-8, 20-21   entry C          line   138 file /theoryfs2/ds/metcalf/miniconda2/envs/tf2gpu/share/psi4/basis/cc-pvdz.gbs
    atoms 9            entry O          line   198 file /theoryfs2/ds/metcalf/miniconda2/envs/tf2gpu/share/psi4/basis/cc-pvdz.gbs
    atoms 10-19, 22-27 entry H          line    22 file /theoryfs2/ds/metcalf/miniconda2/envs/tf2gpu/share/psi4/basis/cc-pvdz.gbs

         ---------------------------------------------------------
                                   SCF
               by Justin Turney, Rob Parrish, Andy Simmonett
                          and Daniel G. A. Smith
                              RHF Reference
                        1 Threads,    500 MiB Core
         ---------------------------------------------------------

  ==> Geometry <==

    Molecular point group: c1
    Full point group: C1

    Geometry (in Angstrom), charge = 0, multiplicity = 1:

       Center              X                  Y                   Z               Mass
    ------------   -----------------  -----------------  -----------------  -----------------
         C           -1.429526560330     1.487519455369     0.709046484989    12.000000000000
         C           -1.894526560330     2.776519455369     0.062046484989    12.000000000000
         C           -0.407526560330     0.781519455369    -0.151953515011    12.000000000000
         C           -0.694526560330     0.513519455369    -1.501953515011    12.000000000000
         C            0.852473439670     0.386519455369     0.345046484989    12.000000000000
         C            0.222473439670    -0.137480544631    -2.342953515011    12.000000000000
         C            1.769473439670    -0.291480544631    -0.509953515011    12.000000000000
         C            1.444473439670    -0.557480544631    -1.855953515011    12.000000000000
         O            2.376473439670    -1.159480544631    -2.665953515011    15.994914619570
         H           -1.010526560330     1.692519455369     1.696046484989     1.007825032230
         H           -2.272526560330     0.809519455369     0.828046484989     1.007825032230
         H           -2.321526560330     2.568519455369    -0.917953515011     1.007825032230
         H           -1.656526560330     0.790519455369    -1.889953515011     1.007825032230
         H            1.122473439670     0.595519455369     1.371046484989     1.007825032230
         H           -0.034526560330    -0.311480544631    -3.376953515011     1.007825032230
         H            2.734473439670    -0.597480544631    -0.131953515011     1.007825032230
         H            1.960473439670    -1.437480544631    -3.483953515011     1.007825032230
         H           -1.018807560330     3.436489455369    -0.024853515011     1.007825032230
         H           -2.696642360330     3.226519455369     0.665456484989     1.007825032230
         C           -0.787526560330    -1.370480544631     3.061046484989    12.000000000000
         C           -1.292526560330    -2.087480544631     4.315046484989    12.000000000000
         H           -0.362526560330    -2.085480544631     2.361046484989     1.007825032230
         H           -1.580526560330    -0.756480544631     2.635046484989     1.007825032230
         H            0.026473439670    -0.706480544631     3.343046484989     1.007825032230
         H           -1.222526560330    -1.390480544631     5.153046484989     1.007825032230
         H           -0.629463560330    -2.944220544631     4.505686484989     1.007825032230
         H           -2.353524160330    -2.362690544631     4.222596484989     1.007825032230

  Running in c1 symmetry.

  Rotational constants: A =      0.03666  B =      0.01837  C =      0.01337 [cm^-1]
  Rotational constants: A =   1099.18053  B =    550.71939  C =    400.77205 [MHz]
  Nuclear repulsion =  577.543781482647773

  Charge       = 0
  Multiplicity = 1
  Electrons    = 84
  Nalpha       = 42
  Nbeta        = 42

  ==> Algorithm <==

  SCF Algorithm Type is PK.
  DIIS enabled.
  MOM disabled.
  Fractional occupation disabled.
  Guess Type is SAD.
  Energy threshold   = 1.00e-06
  Density threshold  = 1.00e-10
  Integral threshold = 0.00e+00

  ==> Primary Basis <==

  Basis Set: CC-PVDZ
    Blend: CC-PVDZ
    Number of shells: 114
    Number of basis function: 234
    Number of Cartesian functions: 245
    Spherical Harmonics?: true
    Max angular momentum: 2

  ==> Pre-Iterations <==

   -------------------------------------------------------
    Irrep   Nso     Nmo     Nalpha   Nbeta   Ndocc  Nsocc
   -------------------------------------------------------
     A        234     234       0       0       0       0
   -------------------------------------------------------
    Total     234     234      42      42      42       0
   -------------------------------------------------------

  ==> Integral Setup <==

  Using integral reordering PK algorithm.
  Sizing the integral batches needed.
  Building batch lookup table.
   Calculation information:
      Number of atoms:                  27
      Number of AO shells:             114
      Number of primitives:            322
      Number of atomic orbitals:       245
      Number of basis functions:       234

      Integral cutoff                 1.00e-12
      Number of threads:                 1

	Batch   1 pq = [       0,    9405] index = [             0,44231715] size =     44231715
	Batch   2 pq = [    9405,   13301] index = [      44231715,88464951] size =     44233236
	Batch   3 pq = [   13301,   16290] index = [      88464951,132690195] size =     44225244
	Batch   4 pq = [   16290,   18810] index = [     132690195,176917455] size =     44227260
	Batch   5 pq = [   18810,   21030] index = [     176917455,221140965] size =     44223510
	Batch   6 pq = [   21030,   23037] index = [     221140965,265363203] size =     44222238
	Batch   7 pq = [   23037,   24883] index = [     265363203,309594286] size =     44231083
	Batch   8 pq = [   24883,   26601] index = [     309594286,353819901] size =     44225615
	Batch   9 pq = [   26601,   27495] index = [     353819901,378001260] size =     24181359
  Task number: 35
  Buffer size: 11059200
  Buffer per thread: 2
  We computed 18907396 shell quartets total.
  Whereas there are 21487290 unique shell quartets.

  ==> DiskJK: Disk-Based J/K Matrices <==

    J tasked:                  Yes
    K tasked:                  Yes
    wK tasked:                  No
    Memory [MiB]:              375
    Schwarz Cutoff:          1E-12

    OpenMP threads:              1

  Minimum eigenvalue in the overlap matrix is 3.4481209466E-04.
  Using Symmetric Orthogonalization.

  SCF Guess: Superposition of Atomic Densities via on-the-fly atomic UHF.

  ==> Iterations <==

                        Total Energy        Delta E     RMS |[F,P]|

   @RHF iter SAD:  -461.59428818472998   -4.61594e+02   0.00000e+00
   @RHF iter   1:  -462.60276968559833   -1.00848e+00   2.79292e-03 DIIS
   @RHF iter   2:  -462.84085225671726   -2.38083e-01   1.18610e-03 DIIS
   @RHF iter   3:  -462.87968234393622   -3.88301e-02   2.75528e-04 DIIS
   @RHF iter   4:  -462.88297464117886   -3.29230e-03   1.17561e-04 DIIS
   @RHF iter   5:  -462.88341393213545   -4.39291e-04   1.97942e-05 DIIS
   @RHF iter   6:  -462.88343396775389   -2.00356e-05   5.83810e-06 DIIS
   @RHF iter   7:  -462.88343558132726   -1.61357e-06   2.01934e-06 DIIS
   @RHF iter   8:  -462.88343580246317   -2.21136e-07   6.62344e-07 DIIS
   @RHF iter   9:  -462.88343583278919   -3.03260e-08   2.05219e-07 DIIS
   @RHF iter  10:  -462.88343583615278   -3.36360e-09   7.54550e-08 DIIS
   @RHF iter  11:  -462.88343583689959   -7.46809e-10   3.41373e-08 DIIS
   @RHF iter  12:  -462.88343583708343   -1.83832e-10   1.69747e-08 DIIS
   @RHF iter  13:  -462.88343583713561   -5.21823e-11   7.20006e-09 DIIS
   @RHF iter  14:  -462.88343583714538   -9.77707e-12   2.06359e-09 DIIS
   @RHF iter  15:  -462.88343583714317    2.21689e-12   7.43581e-10 DIIS
   @RHF iter  16:  -462.88343583714288    2.84217e-13   2.72756e-10 DIIS
   @RHF iter  17:  -462.88343583714277    1.13687e-13   1.18834e-10 DIIS
   @RHF iter  18:  -462.88343583714141    1.36424e-12   6.36670e-11 DIIS
  Energy and wave function converged.

  ==> Post-Iterations <==

    Orbital Energies [Eh]
    ---------------------

    Doubly Occupied:

       1A    -20.583753     2A    -11.299527     3A    -11.243282
       4A    -11.239484     5A    -11.235076     6A    -11.234987
       7A    -11.234684     8A    -11.228646     9A    -11.222357
      10A    -11.217088    11A    -11.212598    12A     -1.396922
      13A     -1.144780    14A     -1.061141    15A     -1.016632
      16A     -1.009724    17A     -0.975726    18A     -0.859666
      19A     -0.843062    20A     -0.833123    21A     -0.785816
      22A     -0.727752    23A     -0.672561    24A     -0.642111
      25A     -0.616200    26A     -0.604765    27A     -0.600832
      28A     -0.590733    29A     -0.589245    30A     -0.579165
      31A     -0.568219    32A     -0.538900    33A     -0.519142
      34A     -0.503946    35A     -0.497375    36A     -0.489046
      37A     -0.478084    38A     -0.474065    39A     -0.472456
      40A     -0.458519    41A     -0.332398    42A     -0.302006

    Virtual:

      43A      0.125510    44A      0.152366    45A      0.178138
      46A      0.181817    47A      0.194125    48A      0.205766
      49A      0.217724    50A      0.227797    51A      0.241015
      52A      0.249803    53A      0.255760    54A      0.264406
      55A      0.280185    56A      0.285078    57A      0.291513
      58A      0.326005    59A      0.332055    60A      0.336766
      61A      0.365308    62A      0.373198    63A      0.391654
      64A      0.416490    65A      0.425804    66A      0.467093
      67A      0.490201    68A      0.491684    69A      0.521901
      70A      0.569805    71A      0.590020    72A      0.606456
      73A      0.609960    74A      0.616433    75A      0.642063
      76A      0.646000    77A      0.667104    78A      0.684779
      79A      0.698054    80A      0.699793    81A      0.712801
      82A      0.721044    83A      0.734793    84A      0.740568
      85A      0.754479    86A      0.760341    87A      0.771083
      88A      0.787244    89A      0.808811    90A      0.818348
      91A      0.843393    92A      0.857025    93A      0.870942
      94A      0.874136    95A      0.880384    96A      0.884208
      97A      0.886348    98A      0.890109    99A      0.895811
     100A      0.902522   101A      0.916231   102A      0.921563
     103A      0.922452   104A      0.929505   105A      0.952096
     106A      0.954901   107A      0.956572   108A      0.971822
     109A      0.981010   110A      0.999318   111A      1.015255
     112A      1.023378   113A      1.051297   114A      1.079046
     115A      1.109972   116A      1.114011   117A      1.132560
     118A      1.136537   119A      1.152180   120A      1.166710
     121A      1.195640   122A      1.232453   123A      1.236811
     124A      1.247609   125A      1.267638   126A      1.284966
     127A      1.289656   128A      1.298722   129A      1.313874
     130A      1.343828   131A      1.359448   132A      1.378795
     133A      1.415540   134A      1.467042   135A      1.478881
     136A      1.489479   137A      1.503787   138A      1.515343
     139A      1.535099   140A      1.585230   141A      1.608802
     142A      1.618055   143A      1.626594   144A      1.671917
     145A      1.680317   146A      1.686962   147A      1.709667
     148A      1.723447   149A      1.737666   150A      1.779840
     151A      1.801988   152A      1.805346   153A      1.834050
     154A      1.849623   155A      1.862265   156A      1.872070
     157A      1.877360   158A      1.886439   159A      1.890215
     160A      1.902175   161A      1.911383   162A      1.917535
     163A      1.928281   164A      1.931618   165A      1.933646
     166A      1.947974   167A      1.956861   168A      1.960111
     169A      1.967380   170A      1.979343   171A      1.989417
     172A      2.000837   173A      2.014950   174A      2.030744
     175A      2.038705   176A      2.053703   177A      2.065024
     178A      2.076944   179A      2.081465   180A      2.102052
     181A      2.111964   182A      2.145162   183A      2.171387
     184A      2.179131   185A      2.194009   186A      2.204706
     187A      2.234415   188A      2.264791   189A      2.272737
     190A      2.292695   191A      2.311331   192A      2.314103
     193A      2.331666   194A      2.351249   195A      2.355627
     196A      2.415512   197A      2.422321   198A      2.436485
     199A      2.453181   200A      2.463515   201A      2.471290
     202A      2.525445   203A      2.534978   204A      2.541523
     205A      2.592503   206A      2.593217   207A      2.621688
     208A      2.625839   209A      2.634280   210A      2.735669
     211A      2.765133   212A      2.767621   213A      2.770683
     214A      2.799987   215A      2.814118   216A      2.824999
     217A      2.849851   218A      2.854088   219A      2.866570
     220A      2.918749   221A      2.934908   222A      2.948413
     223A      2.959602   224A      2.979340   225A      3.024870
     226A      3.060529   227A      3.142125   228A      3.264431
     229A      3.269924   230A      3.343442   231A      3.558724
     232A      3.661568   233A      3.929225   234A      4.174392

    Final Occupation by Irrep:
              A
    DOCC [    42 ]

  @RHF Final Energy:  -462.88343583714141

   => Energetics <=

    Nuclear Repulsion Energy =            577.5437814826477734
    One-Electron Energy =               -1772.5832469578103883
    Two-Electron Energy =                 732.1560296380212094
    Total Energy =                       -462.8834358371414055

Computation Completed

Properties will be evaluated at   0.000000,   0.000000,   0.000000 [a0]

Properties computed using the SCF density matrix

  Nuclear Dipole Moment: [e a0]
     X:   -10.5968      Y:     0.4888      Z:    15.8824

  Electronic Dipole Moment: [e a0]
     X:    10.0435      Y:    -0.4527      Z:   -16.1310

  Dipole Moment: [e a0]
     X:    -0.5532      Y:     0.0360      Z:    -0.2486     Total:     0.6076

  Dipole Moment: [D]
     X:    -1.4062      Y:     0.0916      Z:    -0.6318     Total:     1.5443

*** tstop() called on ds3 at Tue Apr 28 21:45:33 2020
Module time:
	user time   =     135.62 seconds =       2.26 minutes
	system time =      53.22 seconds =       0.89 minutes
	total time  =        182 seconds =       3.03 minutes
Total time:
	user time   =     135.62 seconds =       2.26 minutes
	system time =      53.22 seconds =       0.89 minutes
	total time  =        182 seconds =       3.03 minutes
                                     G D M A

                                 by Anthony Stone

                           version 2.2.06, 22 June 2011

               Distributed Multipoles from Gaussian wavefunctions

Starting at 21:45:33 on 28 Apr 2020

Using SCF density matrix from file ./SSI/SSI-034TYR-136ALA-1-dimer.test.26987.fchk

                         Distributed Multipole Analysis

Standard DMA

Positions and radii in angstrom
Multipole moments in atomic units, ea_0^k for rank k

C          x = -1.429527  y =  1.487519  z =  0.709046 angstrom
           Maximum rank =  0   Radius =  0.650 angstrom
                   Q00  =  -0.057038

C          x = -1.894527  y =  2.776519  z =  0.062046 angstrom
           Maximum rank =  0   Radius =  0.650 angstrom
                   Q00  =  -0.221016

C          x = -0.407527  y =  0.781519  z = -0.151954 angstrom
           Maximum rank =  0   Radius =  0.650 angstrom
                   Q00  =  -0.128329

C          x = -0.694527  y =  0.513519  z = -1.501954 angstrom
           Maximum rank =  0   Radius =  0.650 angstrom
                   Q00  =   0.029340

C          x =  0.852473  y =  0.386519  z =  0.345046 angstrom
           Maximum rank =  0   Radius =  0.650 angstrom
                   Q00  =  -0.042830

C          x =  0.222473  y = -0.137481  z = -2.342954 angstrom
           Maximum rank =  0   Radius =  0.650 angstrom
                   Q00  =  -0.172794

C          x =  1.769473  y = -0.291481  z = -0.509954 angstrom
           Maximum rank =  0   Radius =  0.650 angstrom
                   Q00  =  -0.109660

C          x =  1.444473  y = -0.557481  z = -1.855954 angstrom
           Maximum rank =  0   Radius =  0.650 angstrom
                   Q00  =   0.299163

O          x =  2.376473  y = -1.159481  z = -2.665954 angstrom
           Maximum rank =  0   Radius =  0.650 angstrom
                   Q00  =  -0.670731

H          x = -1.010527  y =  1.692519  z =  1.696046 angstrom
           Maximum rank =  0   Radius =  0.325 angstrom
                   Q00  =   0.065164

H          x = -2.272527  y =  0.809519  z =  0.828046 angstrom
           Maximum rank =  0   Radius =  0.325 angstrom
                   Q00  =   0.069572

H          x = -2.321527  y =  2.568519  z = -0.917954 angstrom
           Maximum rank =  0   Radius =  0.325 angstrom
                   Q00  =   0.078643

H          x = -1.656527  y =  0.790519  z = -1.889954 angstrom
           Maximum rank =  0   Radius =  0.325 angstrom
                   Q00  =   0.068195

H          x =  1.122473  y =  0.595519  z =  1.371046 angstrom
           Maximum rank =  0   Radius =  0.325 angstrom
                   Q00  =   0.071766

H          x = -0.034527  y = -0.311481  z = -3.376954 angstrom
           Maximum rank =  0   Radius =  0.325 angstrom
                   Q00  =   0.071732

H          x =  2.734473  y = -0.597481  z = -0.131954 angstrom
           Maximum rank =  0   Radius =  0.325 angstrom
                   Q00  =   0.082943

H          x =  1.960473  y = -1.437481  z = -3.483954 angstrom
           Maximum rank =  0   Radius =  0.325 angstrom
                   Q00  =   0.401745

H          x = -1.018808  y =  3.436489  z = -0.024854 angstrom
           Maximum rank =  0   Radius =  0.325 angstrom
                   Q00  =   0.082345

H          x = -2.696642  y =  3.226519  z =  0.665456 angstrom
           Maximum rank =  0   Radius =  0.325 angstrom
                   Q00  =   0.081696

C          x = -0.787527  y = -1.370481  z =  3.061046 angstrom
           Maximum rank =  0   Radius =  0.650 angstrom
                   Q00  =  -0.237884

C          x = -1.292527  y = -2.087481  z =  4.315046 angstrom
           Maximum rank =  0   Radius =  0.650 angstrom
                   Q00  =  -0.244673

H          x = -0.362527  y = -2.085481  z =  2.361046 angstrom
           Maximum rank =  0   Radius =  0.325 angstrom
                   Q00  =   0.085007

H          x = -1.580527  y = -0.756481  z =  2.635046 angstrom
           Maximum rank =  0   Radius =  0.325 angstrom
                   Q00  =   0.081756

H          x =  0.026473  y = -0.706481  z =  3.343046 angstrom
           Maximum rank =  0   Radius =  0.325 angstrom
                   Q00  =   0.073120

H          x = -1.222527  y = -1.390481  z =  5.153046 angstrom
           Maximum rank =  0   Radius =  0.325 angstrom
                   Q00  =   0.078884

H          x = -0.629464  y = -2.944221  z =  4.505686 angstrom
           Maximum rank =  0   Radius =  0.325 angstrom
                   Q00  =   0.084270

H          x = -2.353524  y = -2.362691  z =  4.222596 angstrom
           Maximum rank =  0   Radius =  0.325 angstrom
                   Q00  =   0.079614

Total multipoles referred to origin at
           x =   0.000000,  y =    0.000000,  z =    0.000000 angstrom
                   Q00  =  -0.000000

Finished at 21:45:33 on 28 Apr 2020

  DMA results are available in the Python driver through the
	  variable('DMA DISTRIBUTED MULTIPOLES')
  and
	  variable('DMA TOTAL MULTIPOLES')
  commands.

    Psi4 stopped on: Tuesday, 28 April 2020 09:45PM
    Psi4 wall time for execution: 0:03:02.01

*** Psi4 exiting successfully. Buy a developer a beer!
