                               Psi4 1.3.2 release

  ==> Input File <==

--------------------------------------------------------------------------
import numpy as np
set {scf_type pk
basis cc-pvdz
d_convergence 10
gdma_switch   0
gdma_limit    0
gdma_origin   [ 0.0,  0.0,  0.0 ]
}
molecule test {
    units Angstrom
    0 1
    --
    0 1
    C               -1.786833881684204    -0.781969767196213     1.699431675425779
    C               -2.881833881684204    -1.585969767196213     1.004431675425779
    O               -0.622833881684204    -1.564969767196213     1.930431675425779
    H               -1.625833881684204     0.146030232803787     1.163431675425779
    H               -2.167833881684203    -0.493969767196213     2.680431675425778
    H               -2.568833881684204    -1.830969767196213    -0.005568324574221
    H                0.026166118315796    -1.011969767196213     2.391431675425779
    H               -3.789453881684204    -0.965839767196213     0.963791675425779
    H               -3.052016881684203    -2.526259767196213     1.549301675425779
    C                0.987166118315796     0.078030232803787    -0.218568324574221
    C                1.040166118315796    -1.209969767196213    -1.052568324574221
    C                1.104166118315796     1.352030232803787    -1.039568324574221
    O                1.171166118315796     1.325030232803787    -2.267568324574222
    N                1.121166118315796     2.494030232803787    -0.361568324574221
    H                0.037166118315796     0.159030232803787     0.246431675425779
    H                1.755166118315796     0.060030232803787     0.555431675425779
    H                0.773166118315796    -2.025969767196213    -0.375568324574221
    H                1.192166118315796     3.358030232803787    -0.877568324574221
    H                1.125166118315796     2.496030232803787     0.648431675425779
    H                2.056211118315796    -1.420709767196213    -1.417592324574221
    H                0.261272118315796    -1.214309767196213    -1.829295324574221

}
e, wfn = energy('scf', return_wfn=True)
gdma(wfn)
dmavals = variable('DMA DISTRIBUTED MULTIPOLES')
charges = np.array(dmavals)
print(charges)
np.save('SSI-003SER-096ASN-2-dimer.npy', np.array(charges))--------------------------------------------------------------------------

*** tstart() called on ds3
*** at Sun Apr 26 18:51:37 2020

   => Loading Basis Set <=

    Name: CC-PVDZ
    Role: ORBITAL
    Keyword: BASIS
    atoms 1-2, 10-12 entry C          line   138 file /theoryfs2/ds/metcalf/miniconda2/envs/tf2gpu/share/psi4/basis/cc-pvdz.gbs
    atoms 3, 13      entry O          line   198 file /theoryfs2/ds/metcalf/miniconda2/envs/tf2gpu/share/psi4/basis/cc-pvdz.gbs
    atoms 4-9, 15-21 entry H          line    22 file /theoryfs2/ds/metcalf/miniconda2/envs/tf2gpu/share/psi4/basis/cc-pvdz.gbs
    atoms 14         entry N          line   168 file /theoryfs2/ds/metcalf/miniconda2/envs/tf2gpu/share/psi4/basis/cc-pvdz.gbs

         ---------------------------------------------------------
                                   SCF
               by Justin Turney, Rob Parrish, Andy Simmonett
                          and Daniel G. A. Smith
                              RHF Reference
                        1 Threads,    500 MiB Core
         ---------------------------------------------------------

  ==> Geometry <==

    Molecular point group: c1
    Full point group: C1

    Geometry (in Angstrom), charge = 0, multiplicity = 1:

       Center              X                  Y                   Z               Mass
    ------------   -----------------  -----------------  -----------------  -----------------
         C           -1.786833881684    -0.781969767196     1.699431675426    12.000000000000
         C           -2.881833881684    -1.585969767196     1.004431675426    12.000000000000
         O           -0.622833881684    -1.564969767196     1.930431675426    15.994914619570
         H           -1.625833881684     0.146030232804     1.163431675426     1.007825032230
         H           -2.167833881684    -0.493969767196     2.680431675426     1.007825032230
         H           -2.568833881684    -1.830969767196    -0.005568324574     1.007825032230
         H            0.026166118316    -1.011969767196     2.391431675426     1.007825032230
         H           -3.789453881684    -0.965839767196     0.963791675426     1.007825032230
         H           -3.052016881684    -2.526259767196     1.549301675426     1.007825032230
         C            0.987166118316     0.078030232804    -0.218568324574    12.000000000000
         C            1.040166118316    -1.209969767196    -1.052568324574    12.000000000000
         C            1.104166118316     1.352030232804    -1.039568324574    12.000000000000
         O            1.171166118316     1.325030232804    -2.267568324574    15.994914619570
         N            1.121166118316     2.494030232804    -0.361568324574    14.003074004430
         H            0.037166118316     0.159030232804     0.246431675426     1.007825032230
         H            1.755166118316     0.060030232804     0.555431675426     1.007825032230
         H            0.773166118316    -2.025969767196    -0.375568324574     1.007825032230
         H            1.192166118316     3.358030232804    -0.877568324574     1.007825032230
         H            1.125166118316     2.496030232804     0.648431675426     1.007825032230
         H            2.056211118316    -1.420709767196    -1.417592324574     1.007825032230
         H            0.261272118316    -1.214309767196    -1.829295324574     1.007825032230

  Running in c1 symmetry.

  Rotational constants: A =      0.09388  B =      0.02512  C =      0.02359 [cm^-1]
  Rotational constants: A =   2814.42584  B =    752.94269  C =    707.31647 [MHz]
  Nuclear repulsion =  383.734648206379347

  Charge       = 0
  Multiplicity = 1
  Electrons    = 66
  Nalpha       = 33
  Nbeta        = 33

  ==> Algorithm <==

  SCF Algorithm Type is PK.
  DIIS enabled.
  MOM disabled.
  Fractional occupation disabled.
  Guess Type is SAD.
  Energy threshold   = 1.00e-06
  Density threshold  = 1.00e-10
  Integral threshold = 0.00e+00

  ==> Primary Basis <==

  Basis Set: CC-PVDZ
    Blend: CC-PVDZ
    Number of shells: 87
    Number of basis function: 177
    Number of Cartesian functions: 185
    Spherical Harmonics?: true
    Max angular momentum: 2

  ==> Pre-Iterations <==

   -------------------------------------------------------
    Irrep   Nso     Nmo     Nalpha   Nbeta   Ndocc  Nsocc
   -------------------------------------------------------
     A        177     177       0       0       0       0
   -------------------------------------------------------
    Total     177     177      33      33      33       0
   -------------------------------------------------------

  ==> Integral Setup <==

  Using integral reordering PK algorithm.
  Sizing the integral batches needed.
  Building batch lookup table.
   Calculation information:
      Number of atoms:                  21
      Number of AO shells:              87
      Number of primitives:            241
      Number of atomic orbitals:       185
      Number of basis functions:       177

      Integral cutoff                 1.00e-12
      Number of threads:                 1

	Batch   1 pq = [       0,    9405] index = [             0,44231715] size =     44231715
	Batch   2 pq = [    9405,   13301] index = [      44231715,88464951] size =     44233236
	Batch   3 pq = [   13301,   15753] index = [      88464951,124086381] size =     35621430
  Task number: 12
  Buffer size: 11059200
  Buffer per thread: 2
  We computed 6491640 shell quartets total.
  Whereas there are 7328706 unique shell quartets.

  ==> DiskJK: Disk-Based J/K Matrices <==

    J tasked:                  Yes
    K tasked:                  Yes
    wK tasked:                  No
    Memory [MiB]:              375
    Schwarz Cutoff:          1E-12

    OpenMP threads:              1

  Minimum eigenvalue in the overlap matrix is 2.9662183903E-03.
  Using Symmetric Orthogonalization.

  SCF Guess: Superposition of Atomic Densities via on-the-fly atomic UHF.

  ==> Iterations <==

                        Total Energy        Delta E     RMS |[F,P]|

   @RHF iter SAD:  -399.70898749935554   -3.99709e+02   0.00000e+00
   @RHF iter   1:  -400.83234524298348   -1.12336e+00   4.06555e-03 DIIS
   @RHF iter   2:  -401.04594745606624   -2.13602e-01   2.30604e-03 DIIS
   @RHF iter   3:  -401.10927007661070   -6.33226e-02   4.66928e-04 DIIS
   @RHF iter   4:  -401.11335852514043   -4.08845e-03   1.92515e-04 DIIS
   @RHF iter   5:  -401.11404757213120   -6.89047e-04   3.34427e-05 DIIS
   @RHF iter   6:  -401.11408444153574   -3.68694e-05   1.58281e-05 DIIS
   @RHF iter   7:  -401.11409121079737   -6.76926e-06   5.67323e-06 DIIS
   @RHF iter   8:  -401.11409263985848   -1.42906e-06   2.04345e-06 DIIS
   @RHF iter   9:  -401.11409283481129   -1.94953e-07   5.78980e-07 DIIS
   @RHF iter  10:  -401.11409284820627   -1.33950e-08   1.98731e-07 DIIS
   @RHF iter  11:  -401.11409284945307   -1.24680e-09   4.16298e-08 DIIS
   @RHF iter  12:  -401.11409284951156   -5.84919e-11   1.42907e-08 DIIS
   @RHF iter  13:  -401.11409284951753   -5.96856e-12   3.78968e-09 DIIS
   @RHF iter  14:  -401.11409284951924   -1.70530e-12   1.10466e-09 DIIS
   @RHF iter  15:  -401.11409284951844    7.95808e-13   3.99793e-10 DIIS
   @RHF iter  16:  -401.11409284952032   -1.87583e-12   1.38199e-10 DIIS
   @RHF iter  17:  -401.11409284951986    4.54747e-13   4.76060e-11 DIIS
  Energy and wave function converged.

  ==> Post-Iterations <==

    Orbital Energies [Eh]
    ---------------------

    Doubly Occupied:

       1A    -20.565704     2A    -20.501303     3A    -15.585718
       4A    -11.339972     5A    -11.285111     6A    -11.233634
       7A    -11.228767     8A    -11.214870     9A     -1.364351
      10A     -1.363462    11A     -1.213054    12A     -1.041166
      13A     -1.019467    14A     -0.884938    15A     -0.842301
      16A     -0.780624    17A     -0.720222    18A     -0.705207
      19A     -0.665191    20A     -0.652590    21A     -0.628640
      22A     -0.580300    23A     -0.578029    24A     -0.547592
      25A     -0.542191    26A     -0.532176    27A     -0.508170
      28A     -0.496416    29A     -0.494424    30A     -0.486925
      31A     -0.444331    32A     -0.404159    33A     -0.401206

    Virtual:

      34A      0.151933    35A      0.181271    36A      0.195056
      37A      0.205383    38A      0.218737    39A      0.226828
      40A      0.245745    41A      0.249926    42A      0.258799
      43A      0.269176    44A      0.292658    45A      0.302793
      46A      0.310532    47A      0.339025    48A      0.376808
      49A      0.393629    50A      0.431315    51A      0.445418
      52A      0.493851    53A      0.547815    54A      0.581760
      55A      0.608671    56A      0.623877    57A      0.639477
      58A      0.651206    59A      0.662450    60A      0.705511
      61A      0.730363    62A      0.737796    63A      0.744544
      64A      0.783024    65A      0.809348    66A      0.831039
      67A      0.844386    68A      0.856359    69A      0.862661
      70A      0.871548    71A      0.883049    72A      0.892850
      73A      0.895446    74A      0.902303    75A      0.913322
      76A      0.923793    77A      0.936133    78A      0.943183
      79A      0.954475    80A      0.961559    81A      0.993527
      82A      1.023156    83A      1.060416    84A      1.080859
      85A      1.117759    86A      1.119937    87A      1.139775
      88A      1.178810    89A      1.247586    90A      1.269654
      91A      1.293489    92A      1.330581    93A      1.339849
      94A      1.370408    95A      1.393092    96A      1.412961
      97A      1.428295    98A      1.459518    99A      1.461398
     100A      1.489918   101A      1.519624   102A      1.529978
     103A      1.549862   104A      1.588275   105A      1.669973
     106A      1.685767   107A      1.694156   108A      1.699561
     109A      1.721512   110A      1.756167   111A      1.779602
     112A      1.800856   113A      1.852726   114A      1.868276
     115A      1.872542   116A      1.888617   117A      1.889714
     118A      1.902973   119A      1.907292   120A      1.927083
     121A      1.938728   122A      1.955111   123A      1.965185
     124A      1.976290   125A      1.992487   126A      2.000302
     127A      2.007232   128A      2.022104   129A      2.026659
     130A      2.063660   131A      2.079116   132A      2.105281
     133A      2.136265   134A      2.184434   135A      2.213310
     136A      2.242653   137A      2.248198   138A      2.281915
     139A      2.308786   140A      2.333580   141A      2.350470
     142A      2.400626   143A      2.420849   144A      2.464671
     145A      2.492828   146A      2.513339   147A      2.526572
     148A      2.552054   149A      2.561558   150A      2.577374
     151A      2.583574   152A      2.618322   153A      2.627813
     154A      2.741963   155A      2.752483   156A      2.778206
     157A      2.782731   158A      2.802230   159A      2.859062
     160A      2.874583   161A      2.883581   162A      2.920703
     163A      2.934106   164A      2.992121   165A      3.042867
     166A      3.104430   167A      3.160643   168A      3.299160
     169A      3.315045   170A      3.406220   171A      3.462179
     172A      3.518440   173A      3.529627   174A      3.626021
     175A      3.862553   176A      3.905194   177A      4.101009

    Final Occupation by Irrep:
              A
    DOCC [    33 ]

  @RHF Final Energy:  -401.11409284951986

   => Energetics <=

    Nuclear Repulsion Energy =            383.7346482063793474
    One-Electron Energy =               -1307.9930628979652738
    Two-Electron Energy =                 523.1443218420660060
    Total Energy =                       -401.1140928495199205

Computation Completed

Properties will be evaluated at   0.000000,   0.000000,   0.000000 [a0]

Properties computed using the SCF density matrix

  Nuclear Dipole Moment: [e a0]
     X:    -5.6043      Y:    -4.9497      Z:     5.3365

  Electronic Dipole Moment: [e a0]
     X:     5.3513      Y:     5.8051      Z:    -3.4902

  Dipole Moment: [e a0]
     X:    -0.2530      Y:     0.8555      Z:     1.8464     Total:     2.0506

  Dipole Moment: [D]
     X:    -0.6431      Y:     2.1744      Z:     4.6930     Total:     5.2121

*** tstop() called on ds3 at Sun Apr 26 18:52:38 2020
Module time:
	user time   =      43.19 seconds =       0.72 minutes
	system time =      19.14 seconds =       0.32 minutes
	total time  =         61 seconds =       1.02 minutes
Total time:
	user time   =      43.19 seconds =       0.72 minutes
	system time =      19.14 seconds =       0.32 minutes
	total time  =         61 seconds =       1.02 minutes
                                     G D M A

                                 by Anthony Stone

                           version 2.2.06, 22 June 2011

               Distributed Multipoles from Gaussian wavefunctions

Starting at 18:52:38 on 26 Apr 2020

Using SCF density matrix from file ./SSI/SSI-003SER-096ASN-2-dimer.test.22786.fchk

                         Distributed Multipole Analysis

Standard DMA

Positions and radii in angstrom
Multipole moments in atomic units, ea_0^k for rank k

C          x = -1.786834  y = -0.781970  z =  1.699432 angstrom
           Maximum rank =  0   Radius =  0.650 angstrom
                   Q00  =   0.114941

C          x = -2.881834  y = -1.585970  z =  1.004432 angstrom
           Maximum rank =  0   Radius =  0.650 angstrom
                   Q00  =  -0.238829

O          x = -0.622834  y = -1.564970  z =  1.930432 angstrom
           Maximum rank =  0   Radius =  0.650 angstrom
                   Q00  =  -0.581631

H          x = -1.625834  y =  0.146030  z =  1.163432 angstrom
           Maximum rank =  0   Radius =  0.325 angstrom
                   Q00  =   0.012602

H          x = -2.167834  y = -0.493970  z =  2.680432 angstrom
           Maximum rank =  0   Radius =  0.325 angstrom
                   Q00  =   0.042028

H          x = -2.568834  y = -1.830970  z = -0.005568 angstrom
           Maximum rank =  0   Radius =  0.325 angstrom
                   Q00  =   0.094235

H          x =  0.026166  y = -1.011970  z =  2.391432 angstrom
           Maximum rank =  0   Radius =  0.325 angstrom
                   Q00  =   0.390964

H          x = -3.789454  y = -0.965840  z =  0.963792 angstrom
           Maximum rank =  0   Radius =  0.325 angstrom
                   Q00  =   0.087968

H          x = -3.052017  y = -2.526260  z =  1.549302 angstrom
           Maximum rank =  0   Radius =  0.325 angstrom
                   Q00  =   0.096841

C          x =  0.987166  y =  0.078030  z = -0.218568 angstrom
           Maximum rank =  0   Radius =  0.650 angstrom
                   Q00  =  -0.158826

C          x =  1.040166  y = -1.209970  z = -1.052568 angstrom
           Maximum rank =  0   Radius =  0.650 angstrom
                   Q00  =  -0.191791

C          x =  1.104166  y =  1.352030  z = -1.039568 angstrom
           Maximum rank =  0   Radius =  0.650 angstrom
                   Q00  =   0.870013

O          x =  1.171166  y =  1.325030  z = -2.267568 angstrom
           Maximum rank =  0   Radius =  0.650 angstrom
                   Q00  =  -0.810691

N          x =  1.121166  y =  2.494030  z = -0.361568 angstrom
           Maximum rank =  0   Radius =  0.650 angstrom
                   Q00  =  -0.560873

H          x =  0.037166  y =  0.159030  z =  0.246432 angstrom
           Maximum rank =  0   Radius =  0.325 angstrom
                   Q00  =   0.078211

H          x =  1.755166  y =  0.060030  z =  0.555432 angstrom
           Maximum rank =  0   Radius =  0.325 angstrom
                   Q00  =   0.073804

H          x =  0.773166  y = -2.025970  z = -0.375568 angstrom
           Maximum rank =  0   Radius =  0.325 angstrom
                   Q00  =   0.085583

H          x =  1.192166  y =  3.358030  z = -0.877568 angstrom
           Maximum rank =  0   Radius =  0.325 angstrom
                   Q00  =   0.217174

H          x =  1.125166  y =  2.496030  z =  0.648432 angstrom
           Maximum rank =  0   Radius =  0.325 angstrom
                   Q00  =   0.199741

H          x =  2.056211  y = -1.420710  z = -1.417592 angstrom
           Maximum rank =  0   Radius =  0.325 angstrom
                   Q00  =   0.084745

H          x =  0.261272  y = -1.214310  z = -1.829295 angstrom
           Maximum rank =  0   Radius =  0.325 angstrom
                   Q00  =   0.093792

Total multipoles referred to origin at
           x =   0.000000,  y =    0.000000,  z =    0.000000 angstrom
                   Q00  =  -0.000000

Finished at 18:52:38 on 26 Apr 2020

  DMA results are available in the Python driver through the
	  variable('DMA DISTRIBUTED MULTIPOLES')
  and
	  variable('DMA TOTAL MULTIPOLES')
  commands.

    Psi4 stopped on: Sunday, 26 April 2020 06:52PM
    Psi4 wall time for execution: 0:01:00.75

*** Psi4 exiting successfully. Buy a developer a beer!
