                               Psi4 1.3.2 release

  ==> Input File <==

--------------------------------------------------------------------------
import numpy as np
set {scf_type pk
basis cc-pvdz
d_convergence 10
gdma_switch   0
gdma_limit    0
gdma_origin   [ 0.0,  0.0,  0.0 ]
}
molecule test {
    units Angstrom
    0 1
    --
    0 1
    C               -0.262838938623892    -1.252346393495147     1.212100862221225
    C               -0.553838938623892    -1.356346393495147     2.696100862221225
    H               -1.133838938623892    -0.863346393495147     0.681100862221225
    H                0.580161061376108    -0.579346393495147     1.048100862221225
    H               -0.023838938623892    -2.236346393495146     0.806100862221225
    H                0.352161061376108    -1.686346393495147     3.210100862221224
    H               -1.355428938623892    -2.085337393495147     2.885910862221225
    H               -0.822938938623892    -0.365308393495147     3.090350862221225
    C               -0.280838938623892     1.241653606504853    -1.620899137778775
    C                1.096161061376108     1.362653606504853    -2.291899137778775
    H               -0.717838938623892     0.264653606504853    -1.830899137778775
    H               -0.168838938623892     1.354653606504854    -0.541899137778775
    H               -0.952838938623892     2.018653606504853    -1.971899137778775
    H                1.492161061376108     2.347653606504853    -2.049899137778775
    H                0.981691061376108     1.276983606504853    -3.382569137778776
    H                1.785531061376108     0.605651606504853    -1.889769137778775

}
e, wfn = energy('scf', return_wfn=True)
gdma(wfn)
dmavals = variable('DMA DISTRIBUTED MULTIPOLES')
charges = np.array(dmavals)
print(charges)
np.save('SSI-119ALA-160LEU-1-dimer.npy', np.array(charges))--------------------------------------------------------------------------

*** tstart() called on ds3
*** at Mon Apr 27 23:53:35 2020

   => Loading Basis Set <=

    Name: CC-PVDZ
    Role: ORBITAL
    Keyword: BASIS
    atoms 1-2, 9-10  entry C          line   138 file /theoryfs2/ds/metcalf/miniconda2/envs/tf2gpu/share/psi4/basis/cc-pvdz.gbs
    atoms 3-8, 11-16 entry H          line    22 file /theoryfs2/ds/metcalf/miniconda2/envs/tf2gpu/share/psi4/basis/cc-pvdz.gbs

         ---------------------------------------------------------
                                   SCF
               by Justin Turney, Rob Parrish, Andy Simmonett
                          and Daniel G. A. Smith
                              RHF Reference
                        1 Threads,    500 MiB Core
         ---------------------------------------------------------

  ==> Geometry <==

    Molecular point group: c1
    Full point group: C1

    Geometry (in Angstrom), charge = 0, multiplicity = 1:

       Center              X                  Y                   Z               Mass
    ------------   -----------------  -----------------  -----------------  -----------------
         C           -0.262838938624    -1.252346393495     1.212100862221    12.000000000000
         C           -0.553838938624    -1.356346393495     2.696100862221    12.000000000000
         H           -1.133838938624    -0.863346393495     0.681100862221     1.007825032230
         H            0.580161061376    -0.579346393495     1.048100862221     1.007825032230
         H           -0.023838938624    -2.236346393495     0.806100862221     1.007825032230
         H            0.352161061376    -1.686346393495     3.210100862221     1.007825032230
         H           -1.355428938624    -2.085337393495     2.885910862221     1.007825032230
         H           -0.822938938624    -0.365308393495     3.090350862221     1.007825032230
         C           -0.280838938624     1.241653606505    -1.620899137779    12.000000000000
         C            1.096161061376     1.362653606505    -2.291899137779    12.000000000000
         H           -0.717838938624     0.264653606505    -1.830899137779     1.007825032230
         H           -0.168838938624     1.354653606505    -0.541899137779     1.007825032230
         H           -0.952838938624     2.018653606505    -1.971899137779     1.007825032230
         H            1.492161061376     2.347653606505    -2.049899137779     1.007825032230
         H            0.981691061376     1.276983606505    -3.382569137779     1.007825032230
         H            1.785531061376     0.605651606505    -1.889769137779     1.007825032230

  Running in c1 symmetry.

  Rotational constants: A =      0.56838  B =      0.04456  C =      0.04348 [cm^-1]
  Rotational constants: A =  17039.61224  B =   1335.74291  C =   1303.50329 [MHz]
  Nuclear repulsion =  121.114564325249731

  Charge       = 0
  Multiplicity = 1
  Electrons    = 36
  Nalpha       = 18
  Nbeta        = 18

  ==> Algorithm <==

  SCF Algorithm Type is PK.
  DIIS enabled.
  MOM disabled.
  Fractional occupation disabled.
  Guess Type is SAD.
  Energy threshold   = 1.00e-06
  Density threshold  = 1.00e-10
  Integral threshold = 0.00e+00

  ==> Primary Basis <==

  Basis Set: CC-PVDZ
    Blend: CC-PVDZ
    Number of shells: 60
    Number of basis function: 116
    Number of Cartesian functions: 120
    Spherical Harmonics?: true
    Max angular momentum: 2

  ==> Pre-Iterations <==

   -------------------------------------------------------
    Irrep   Nso     Nmo     Nalpha   Nbeta   Ndocc  Nsocc
   -------------------------------------------------------
     A        116     116       0       0       0       0
   -------------------------------------------------------
    Total     116     116      18      18      18       0
   -------------------------------------------------------

  ==> Integral Setup <==

  Using integral reordering PK algorithm.
  Sizing the integral batches needed.
  Building batch lookup table.
   Calculation information:
      Number of atoms:                  16
      Number of AO shells:              60
      Number of primitives:            148
      Number of atomic orbitals:       120
      Number of basis functions:       116

      Integral cutoff                 1.00e-12
      Number of threads:                 1

	Batch   1 pq = [       0,    6786] index = [             0,23028291] size =     23028291
  Task number: 3
  Buffer size: 11059200
  Buffer per thread: 2
  We computed 1393532 shell quartets total.
  Whereas there are 1675365 unique shell quartets.

  ==> DiskJK: Disk-Based J/K Matrices <==

    J tasked:                  Yes
    K tasked:                  Yes
    wK tasked:                  No
    Memory [MiB]:              375
    Schwarz Cutoff:          1E-12

    OpenMP threads:              1

  Minimum eigenvalue in the overlap matrix is 7.1185785984E-03.
  Using Symmetric Orthogonalization.

  SCF Guess: Superposition of Atomic Densities via on-the-fly atomic UHF.

  ==> Iterations <==

                        Total Energy        Delta E     RMS |[F,P]|

   @RHF iter SAD:  -157.35074345312375   -1.57351e+02   0.00000e+00
   @RHF iter   1:  -158.30709187901073   -9.56348e-01   4.22296e-03 DIIS
   @RHF iter   2:  -158.44099574667752   -1.33904e-01   1.80335e-03 DIIS
   @RHF iter   3:  -158.46457512614398   -2.35794e-02   3.49833e-04 DIIS
   @RHF iter   4:  -158.46641050514296   -1.83538e-03   3.87070e-05 DIIS
   @RHF iter   5:  -158.46643405006819   -2.35449e-05   6.58828e-06 DIIS
   @RHF iter   6:  -158.46643467933328   -6.29265e-07   1.24847e-06 DIIS
   @RHF iter   7:  -158.46643469378904   -1.44558e-08   3.24936e-07 DIIS
   @RHF iter   8:  -158.46643469476481   -9.75774e-10   3.83893e-08 DIIS
   @RHF iter   9:  -158.46643469478613   -2.13163e-11   8.08774e-09 DIIS
   @RHF iter  10:  -158.46643469478676   -6.25278e-13   2.24434e-09 DIIS
   @RHF iter  11:  -158.46643469478684   -8.52651e-14   6.57106e-10 DIIS
   @RHF iter  12:  -158.46643469478695   -1.13687e-13   1.50205e-10 DIIS
   @RHF iter  13:  -158.46643469478639    5.68434e-13   2.02302e-11 DIIS
  Energy and wave function converged.

  ==> Post-Iterations <==

    Orbital Energies [Eh]
    ---------------------

    Doubly Occupied:

       1A    -11.219520     2A    -11.218602     3A    -11.215851
       4A    -11.215572     5A     -1.021274     6A     -1.015879
       7A     -0.837920     8A     -0.833056     9A     -0.602983
      10A     -0.598298    11A     -0.596443    12A     -0.595105
      13A     -0.503966    14A     -0.496737    15A     -0.489929
      16A     -0.486470    17A     -0.483140    18A     -0.478865

    Virtual:

      19A      0.172853    20A      0.194521    21A      0.225170
      22A      0.235959    23A      0.242282    24A      0.258537
      25A      0.263158    26A      0.275793    27A      0.278492
      28A      0.294731    29A      0.299357    30A      0.324718
      31A      0.393798    32A      0.402754    33A      0.567102
      34A      0.598033    35A      0.602476    36A      0.606606
      37A      0.613560    38A      0.628795    39A      0.665100
      40A      0.678234    41A      0.686966    42A      0.792564
      43A      0.841159    44A      0.863246    45A      0.884922
      46A      0.891963    47A      0.892915    48A      0.895432
      49A      0.898483    50A      0.903742    51A      0.910567
      52A      0.917654    53A      0.936883    54A      0.947210
      55A      0.975433    56A      0.977969    57A      1.122268
      58A      1.127050    59A      1.132557    60A      1.158636
      61A      1.226996    62A      1.245424    63A      1.472698
      64A      1.477950    65A      1.483067    66A      1.488227
      67A      1.557096    68A      1.583736    69A      1.677104
      70A      1.678985    71A      1.693063    72A      1.698542
      73A      1.855782    74A      1.858745    75A      1.862481
      76A      1.882338    77A      1.898068    78A      1.921386
      79A      1.938925    80A      1.944812    81A      1.947417
      82A      1.950716    83A      1.952091    84A      1.958703
      85A      1.961833    86A      1.967256    87A      1.975377
      88A      2.021364    89A      2.089153    90A      2.100326
      91A      2.113276    92A      2.126430    93A      2.284873
      94A      2.301789    95A      2.313175    96A      2.325731
      97A      2.449172    98A      2.450041    99A      2.467856
     100A      2.481241   101A      2.558013   102A      2.563328
     103A      2.570223   104A      2.578440   105A      2.756761
     106A      2.764086   107A      2.785113   108A      2.796107
     109A      2.839886   110A      2.848642   111A      2.851876
     112A      2.862092   113A      2.936595   114A      2.950005
     115A      2.955409   116A      2.978616

    Final Occupation by Irrep:
              A
    DOCC [    18 ]

  @RHF Final Energy:  -158.46643469478639

   => Energetics <=

    Nuclear Repulsion Energy =            121.1145643252497308
    One-Electron Energy =                -451.3427840523887653
    Two-Electron Energy =                 171.7617850323526625
    Total Energy =                       -158.4664346947863862

Computation Completed

Properties will be evaluated at   0.000000,   0.000000,   0.000000 [a0]

Properties computed using the SCF density matrix

  Nuclear Dipole Moment: [e a0]
     X:     0.0151      Y:     0.0490      Z:     0.0513

  Electronic Dipole Moment: [e a0]
     X:    -0.0173      Y:    -0.0430      Z:    -0.0467

  Dipole Moment: [e a0]
     X:    -0.0022      Y:     0.0059      Z:     0.0046     Total:     0.0078

  Dipole Moment: [D]
     X:    -0.0056      Y:     0.0150      Z:     0.0118     Total:     0.0199

*** tstop() called on ds3 at Mon Apr 27 23:53:46 2020
Module time:
	user time   =       8.02 seconds =       0.13 minutes
	system time =       3.01 seconds =       0.05 minutes
	total time  =         11 seconds =       0.18 minutes
Total time:
	user time   =       8.02 seconds =       0.13 minutes
	system time =       3.01 seconds =       0.05 minutes
	total time  =         11 seconds =       0.18 minutes
                                     G D M A

                                 by Anthony Stone

                           version 2.2.06, 22 June 2011

               Distributed Multipoles from Gaussian wavefunctions

Starting at 23:53:46 on 27 Apr 2020

Using SCF density matrix from file ./SSI/SSI-119ALA-160LEU-1-dimer.test.4424.fchk

                         Distributed Multipole Analysis

Standard DMA

Positions and radii in angstrom
Multipole moments in atomic units, ea_0^k for rank k

C          x = -0.262839  y = -1.252346  z =  1.212101 angstrom
           Maximum rank =  0   Radius =  0.650 angstrom
                   Q00  =  -0.236591

C          x = -0.553839  y = -1.356346  z =  2.696101 angstrom
           Maximum rank =  0   Radius =  0.650 angstrom
                   Q00  =  -0.228639

H          x = -1.133839  y = -0.863346  z =  0.681101 angstrom
           Maximum rank =  0   Radius =  0.325 angstrom
                   Q00  =   0.078688

H          x =  0.580161  y = -0.579346  z =  1.048101 angstrom
           Maximum rank =  0   Radius =  0.325 angstrom
                   Q00  =   0.077071

H          x = -0.023839  y = -2.236346  z =  0.806101 angstrom
           Maximum rank =  0   Radius =  0.325 angstrom
                   Q00  =   0.077524

H          x =  0.352161  y = -1.686346  z =  3.210101 angstrom
           Maximum rank =  0   Radius =  0.325 angstrom
                   Q00  =   0.076029

H          x = -1.355429  y = -2.085337  z =  2.885911 angstrom
           Maximum rank =  0   Radius =  0.325 angstrom
                   Q00  =   0.079172

H          x = -0.822939  y = -0.365308  z =  3.090351 angstrom
           Maximum rank =  0   Radius =  0.325 angstrom
                   Q00  =   0.076911

C          x = -0.280839  y =  1.241654  z = -1.620899 angstrom
           Maximum rank =  0   Radius =  0.650 angstrom
                   Q00  =  -0.240774

C          x =  1.096161  y =  1.362654  z = -2.291899 angstrom
           Maximum rank =  0   Radius =  0.650 angstrom
                   Q00  =  -0.236007

H          x = -0.717839  y =  0.264654  z = -1.830899 angstrom
           Maximum rank =  0   Radius =  0.325 angstrom
                   Q00  =   0.079368

H          x = -0.168839  y =  1.354654  z = -0.541899 angstrom
           Maximum rank =  0   Radius =  0.325 angstrom
                   Q00  =   0.078906

H          x = -0.952839  y =  2.018654  z = -1.971899 angstrom
           Maximum rank =  0   Radius =  0.325 angstrom
                   Q00  =   0.079933

H          x =  1.492161  y =  2.347654  z = -2.049899 angstrom
           Maximum rank =  0   Radius =  0.325 angstrom
                   Q00  =   0.077342

H          x =  0.981691  y =  1.276984  z = -3.382569 angstrom
           Maximum rank =  0   Radius =  0.325 angstrom
                   Q00  =   0.080141

H          x =  1.785531  y =  0.605652  z = -1.889769 angstrom
           Maximum rank =  0   Radius =  0.325 angstrom
                   Q00  =   0.080927

Total multipoles referred to origin at
           x =   0.000000,  y =    0.000000,  z =    0.000000 angstrom
                   Q00  =  -0.000000

Finished at 23:53:46 on 27 Apr 2020

  DMA results are available in the Python driver through the
	  variable('DMA DISTRIBUTED MULTIPOLES')
  and
	  variable('DMA TOTAL MULTIPOLES')
  commands.

    Psi4 stopped on: Monday, 27 April 2020 11:53PM
    Psi4 wall time for execution: 0:00:11.19

*** Psi4 exiting successfully. Buy a developer a beer!
