                               Psi4 1.3.2 release

  ==> Input File <==

--------------------------------------------------------------------------
import numpy as np
set {scf_type pk
basis cc-pvdz
d_convergence 10
gdma_switch   0
gdma_limit    0
gdma_origin   [ 0.0,  0.0,  0.0 ]
}
molecule test {
    units Angstrom
    0 1
    --
    0 1
    C                1.008815635311292    -1.842293140340097    -0.695605648124243
    C                0.526815635311292    -2.799293140340097     0.400394351875757
    H                1.212815635311292    -2.393293140340097    -1.616605648124243
    H                0.256815635311292    -1.082293140340097    -0.903605648124243
    H                1.905815635311292    -1.312293140340097    -0.381605648124243
    H                0.434815635311292    -2.236293140340097     1.329394351875757
    H                1.250535635311292    -3.615886140340097     0.539708351875757
    H               -0.455084364688708    -3.222968140340097     0.142754351875757
    C               -0.561184364688708     1.585706859659903     0.096394351875757
    C               -0.976184364688708     3.053706859659903     0.195394351875757
    H                0.016815635311292     1.402706859659903    -0.809605648124243
    H                0.068815635311292     1.331706859659903     0.949394351875757
    H               -1.439184364688708     0.939706859659903     0.104394351875757
    H               -1.422184364688708     3.209706859659903     1.177394351875757
    H               -1.711104364688708     3.296278859659903    -0.586307648124243
    H               -0.098184364688708     3.708788859659903     0.095442351875757

}
e, wfn = energy('scf', return_wfn=True)
gdma(wfn)
dmavals = variable('DMA DISTRIBUTED MULTIPOLES')
charges = np.array(dmavals)
print(charges)
np.save('SSI-103ILE-130VAL-1-dimer.npy', np.array(charges))--------------------------------------------------------------------------

*** tstart() called on ds3
*** at Mon Apr 27 06:47:10 2020

   => Loading Basis Set <=

    Name: CC-PVDZ
    Role: ORBITAL
    Keyword: BASIS
    atoms 1-2, 9-10  entry C          line   138 file /theoryfs2/ds/metcalf/miniconda2/envs/tf2gpu/share/psi4/basis/cc-pvdz.gbs
    atoms 3-8, 11-16 entry H          line    22 file /theoryfs2/ds/metcalf/miniconda2/envs/tf2gpu/share/psi4/basis/cc-pvdz.gbs

         ---------------------------------------------------------
                                   SCF
               by Justin Turney, Rob Parrish, Andy Simmonett
                          and Daniel G. A. Smith
                              RHF Reference
                        1 Threads,    500 MiB Core
         ---------------------------------------------------------

  ==> Geometry <==

    Molecular point group: c1
    Full point group: C1

    Geometry (in Angstrom), charge = 0, multiplicity = 1:

       Center              X                  Y                   Z               Mass
    ------------   -----------------  -----------------  -----------------  -----------------
         C            1.008815635311    -1.842293140340    -0.695605648124    12.000000000000
         C            0.526815635311    -2.799293140340     0.400394351876    12.000000000000
         H            1.212815635311    -2.393293140340    -1.616605648124     1.007825032230
         H            0.256815635311    -1.082293140340    -0.903605648124     1.007825032230
         H            1.905815635311    -1.312293140340    -0.381605648124     1.007825032230
         H            0.434815635311    -2.236293140340     1.329394351876     1.007825032230
         H            1.250535635311    -3.615886140340     0.539708351876     1.007825032230
         H           -0.455084364689    -3.222968140340     0.142754351876     1.007825032230
         C           -0.561184364689     1.585706859660     0.096394351876    12.000000000000
         C           -0.976184364689     3.053706859660     0.195394351876    12.000000000000
         H            0.016815635311     1.402706859660    -0.809605648124     1.007825032230
         H            0.068815635311     1.331706859660     0.949394351876     1.007825032230
         H           -1.439184364689     0.939706859660     0.104394351876     1.007825032230
         H           -1.422184364689     3.209706859660     1.177394351876     1.007825032230
         H           -1.711104364689     3.296278859660    -0.586307648124     1.007825032230
         H           -0.098184364689     3.708788859660     0.095442351876     1.007825032230

  Running in c1 symmetry.

  Rotational constants: A =      0.61110  B =      0.04265  C =      0.04111 [cm^-1]
  Rotational constants: A =  18320.21747  B =   1278.62306  C =   1232.55496 [MHz]
  Nuclear repulsion =  120.227955642690318

  Charge       = 0
  Multiplicity = 1
  Electrons    = 36
  Nalpha       = 18
  Nbeta        = 18

  ==> Algorithm <==

  SCF Algorithm Type is PK.
  DIIS enabled.
  MOM disabled.
  Fractional occupation disabled.
  Guess Type is SAD.
  Energy threshold   = 1.00e-06
  Density threshold  = 1.00e-10
  Integral threshold = 0.00e+00

  ==> Primary Basis <==

  Basis Set: CC-PVDZ
    Blend: CC-PVDZ
    Number of shells: 60
    Number of basis function: 116
    Number of Cartesian functions: 120
    Spherical Harmonics?: true
    Max angular momentum: 2

  ==> Pre-Iterations <==

   -------------------------------------------------------
    Irrep   Nso     Nmo     Nalpha   Nbeta   Ndocc  Nsocc
   -------------------------------------------------------
     A        116     116       0       0       0       0
   -------------------------------------------------------
    Total     116     116      18      18      18       0
   -------------------------------------------------------

  ==> Integral Setup <==

  Using integral reordering PK algorithm.
  Sizing the integral batches needed.
  Building batch lookup table.
   Calculation information:
      Number of atoms:                  16
      Number of AO shells:              60
      Number of primitives:            148
      Number of atomic orbitals:       120
      Number of basis functions:       116

      Integral cutoff                 1.00e-12
      Number of threads:                 1

	Batch   1 pq = [       0,    6786] index = [             0,23028291] size =     23028291
  Task number: 3
  Buffer size: 11059200
  Buffer per thread: 2
  We computed 1367343 shell quartets total.
  Whereas there are 1675365 unique shell quartets.

  ==> DiskJK: Disk-Based J/K Matrices <==

    J tasked:                  Yes
    K tasked:                  Yes
    wK tasked:                  No
    Memory [MiB]:              375
    Schwarz Cutoff:          1E-12

    OpenMP threads:              1

  Minimum eigenvalue in the overlap matrix is 6.5310233482E-03.
  Using Symmetric Orthogonalization.

  SCF Guess: Superposition of Atomic Densities via on-the-fly atomic UHF.

  ==> Iterations <==

                        Total Energy        Delta E     RMS |[F,P]|

   @RHF iter SAD:  -157.33156524272763   -1.57332e+02   0.00000e+00
   @RHF iter   1:  -158.30898146207167   -9.77416e-01   4.20567e-03 DIIS
   @RHF iter   2:  -158.44192355448254   -1.32942e-01   1.79572e-03 DIIS
   @RHF iter   3:  -158.46532497248458   -2.34014e-02   3.49119e-04 DIIS
   @RHF iter   4:  -158.46715525976751   -1.83029e-03   3.87134e-05 DIIS
   @RHF iter   5:  -158.46717891769299   -2.36579e-05   6.38455e-06 DIIS
   @RHF iter   6:  -158.46717953252863   -6.14836e-07   9.33442e-07 DIIS
   @RHF iter   7:  -158.46717954183347   -9.30484e-09   2.93260e-07 DIIS
   @RHF iter   8:  -158.46717954255649   -7.23020e-10   4.10577e-08 DIIS
   @RHF iter   9:  -158.46717954258196   -2.54659e-11   8.52088e-09 DIIS
   @RHF iter  10:  -158.46717954258261   -6.53699e-13   2.14343e-09 DIIS
   @RHF iter  11:  -158.46717954258315   -5.40012e-13   5.67608e-10 DIIS
   @RHF iter  12:  -158.46717954258264    5.11591e-13   1.75760e-10 DIIS
   @RHF iter  13:  -158.46717954258358   -9.37916e-13   2.66067e-11 DIIS
  Energy and wave function converged.

  ==> Post-Iterations <==

    Orbital Energies [Eh]
    ---------------------

    Doubly Occupied:

       1A    -11.219968     2A    -11.219209     3A    -11.217526
       4A    -11.215365     5A     -1.019111     6A     -1.015374
       7A     -0.839183     8A     -0.834878     9A     -0.599462
      10A     -0.598554    11A     -0.597337    12A     -0.592950
      13A     -0.504466    14A     -0.498139    15A     -0.487953
      16A     -0.486780    17A     -0.484913    18A     -0.480024

    Virtual:

      19A      0.172297    20A      0.193712    21A      0.227040
      22A      0.235398    23A      0.239732    24A      0.259569
      25A      0.265642    26A      0.275750    27A      0.280337
      28A      0.289497    29A      0.302853    30A      0.322961
      31A      0.391623    32A      0.411298    33A      0.576211
      34A      0.590629    35A      0.600074    36A      0.601227
      37A      0.610811    38A      0.636431    39A      0.678189
      40A      0.687943    41A      0.699523    42A      0.745279
      43A      0.840283    44A      0.870856    45A      0.884001
      46A      0.889808    47A      0.892273    48A      0.894974
      49A      0.899873    50A      0.909144    51A      0.914710
      52A      0.924294    53A      0.927387    54A      0.939173
      55A      0.966803    56A      1.003757    57A      1.122581
      58A      1.127187    59A      1.129056    60A      1.138315
      61A      1.231328    62A      1.253972    63A      1.469993
      64A      1.471195    65A      1.478386    66A      1.485821
      67A      1.567298    68A      1.581289    69A      1.678999
      70A      1.683236    71A      1.693713    72A      1.701079
      73A      1.850727    74A      1.861018    75A      1.869202
      76A      1.877544    77A      1.895666    78A      1.911568
      79A      1.936888    80A      1.938217    81A      1.945565
      82A      1.946650    83A      1.947736    84A      1.951817
      85A      1.962711    86A      1.963941    87A      1.969017
      88A      2.032791    89A      2.097484    90A      2.099685
      91A      2.116633    92A      2.122265    93A      2.294735
      94A      2.301532    95A      2.324015    96A      2.328345
      97A      2.444462    98A      2.454470    99A      2.459951
     100A      2.466953   101A      2.556848   102A      2.561727
     103A      2.571533   104A      2.579604   105A      2.758959
     106A      2.760976   107A      2.780657   108A      2.792287
     109A      2.843272   110A      2.851934   111A      2.854489
     112A      2.863202   113A      2.940923   114A      2.951733
     115A      2.954653   116A      2.965513

    Final Occupation by Irrep:
              A
    DOCC [    18 ]

  @RHF Final Energy:  -158.46717954258358

   => Energetics <=

    Nuclear Repulsion Energy =            120.2279556426903184
    One-Electron Energy =                -449.5678884759267930
    Two-Electron Energy =                 170.8727532906529234
    Total Energy =                       -158.4671795425835796

Computation Completed

Properties will be evaluated at   0.000000,   0.000000,   0.000000 [a0]

Properties computed using the SCF density matrix

  Nuclear Dipole Moment: [e a0]
     X:     0.0194      Y:     0.0243      Z:     0.0382

  Electronic Dipole Moment: [e a0]
     X:    -0.0236      Y:    -0.0020      Z:    -0.0316

  Dipole Moment: [e a0]
     X:    -0.0043      Y:     0.0223      Z:     0.0066     Total:     0.0236

  Dipole Moment: [D]
     X:    -0.0108      Y:     0.0567      Z:     0.0169     Total:     0.0601

*** tstop() called on ds3 at Mon Apr 27 06:47:21 2020
Module time:
	user time   =       7.32 seconds =       0.12 minutes
	system time =       2.88 seconds =       0.05 minutes
	total time  =         11 seconds =       0.18 minutes
Total time:
	user time   =       7.32 seconds =       0.12 minutes
	system time =       2.88 seconds =       0.05 minutes
	total time  =         11 seconds =       0.18 minutes
                                     G D M A

                                 by Anthony Stone

                           version 2.2.06, 22 June 2011

               Distributed Multipoles from Gaussian wavefunctions

Starting at 6:47:21 on 27 Apr 2020

Using SCF density matrix from file ./SSI/SSI-103ILE-130VAL-1-dimer.test.14251.fchk

                         Distributed Multipole Analysis

Standard DMA

Positions and radii in angstrom
Multipole moments in atomic units, ea_0^k for rank k

C          x =  1.008816  y = -1.842293  z = -0.695606 angstrom
           Maximum rank =  0   Radius =  0.650 angstrom
                   Q00  =  -0.249538

C          x =  0.526816  y = -2.799293  z =  0.400394 angstrom
           Maximum rank =  0   Radius =  0.650 angstrom
                   Q00  =  -0.229520

H          x =  1.212816  y = -2.393293  z = -1.616606 angstrom
           Maximum rank =  0   Radius =  0.325 angstrom
                   Q00  =   0.077580

H          x =  0.256816  y = -1.082293  z = -0.903606 angstrom
           Maximum rank =  0   Radius =  0.325 angstrom
                   Q00  =   0.083918

H          x =  1.905816  y = -1.312293  z = -0.381606 angstrom
           Maximum rank =  0   Radius =  0.325 angstrom
                   Q00  =   0.078857

H          x =  0.434816  y = -2.236293  z =  1.329394 angstrom
           Maximum rank =  0   Radius =  0.325 angstrom
                   Q00  =   0.078684

H          x =  1.250536  y = -3.615886  z =  0.539708 angstrom
           Maximum rank =  0   Radius =  0.325 angstrom
                   Q00  =   0.079336

H          x = -0.455084  y = -3.222968  z =  0.142754 angstrom
           Maximum rank =  0   Radius =  0.325 angstrom
                   Q00  =   0.079400

C          x = -0.561184  y =  1.585707  z =  0.096394 angstrom
           Maximum rank =  0   Radius =  0.650 angstrom
                   Q00  =  -0.233149

C          x = -0.976184  y =  3.053707  z =  0.195394 angstrom
           Maximum rank =  0   Radius =  0.650 angstrom
                   Q00  =  -0.241269

H          x =  0.016816  y =  1.402707  z = -0.809606 angstrom
           Maximum rank =  0   Radius =  0.325 angstrom
                   Q00  =   0.078764

H          x =  0.068816  y =  1.331707  z =  0.949394 angstrom
           Maximum rank =  0   Radius =  0.325 angstrom
                   Q00  =   0.078297

H          x = -1.439184  y =  0.939707  z =  0.104394 angstrom
           Maximum rank =  0   Radius =  0.325 angstrom
                   Q00  =   0.079105

H          x = -1.422184  y =  3.209707  z =  1.177394 angstrom
           Maximum rank =  0   Radius =  0.325 angstrom
                   Q00  =   0.079396

H          x = -1.711104  y =  3.296279  z = -0.586308 angstrom
           Maximum rank =  0   Radius =  0.325 angstrom
                   Q00  =   0.079621

H          x = -0.098184  y =  3.708789  z =  0.095442 angstrom
           Maximum rank =  0   Radius =  0.325 angstrom
                   Q00  =   0.080518

Total multipoles referred to origin at
           x =   0.000000,  y =    0.000000,  z =    0.000000 angstrom
                   Q00  =  -0.000000

Finished at 6:47:21 on 27 Apr 2020

  DMA results are available in the Python driver through the
	  variable('DMA DISTRIBUTED MULTIPOLES')
  and
	  variable('DMA TOTAL MULTIPOLES')
  commands.

    Psi4 stopped on: Monday, 27 April 2020 06:47AM
    Psi4 wall time for execution: 0:00:10.54

*** Psi4 exiting successfully. Buy a developer a beer!
