                               Psi4 1.3.2 release

  ==> Input File <==

--------------------------------------------------------------------------
import numpy as np
set {scf_type pk
basis cc-pvdz
d_convergence 10
gdma_switch   0
gdma_limit    0
gdma_origin   [ 0.0,  0.0,  0.0 ]
}
molecule test {
    units Angstrom
    0 1
    --
    0 1
    C                2.175441608898637     0.142255169377632    -1.968275389577867
    C                1.479441608898638     0.621255169377632    -3.239275389577867
    H                3.206441608898638     0.496255169377632    -1.923275389577867
    H                1.642441608898638     0.511255169377632    -1.091275389577867
    H                2.167441608898637    -0.948744830622368    -1.937275389577866
    H                0.463441608898638     0.231255169377632    -3.219275389577867
    H                1.968795608898638     0.266095169377632    -4.158185389577867
    H                1.413812608898638     1.718835169377632    -3.270955389577867
    C               -0.163558391101362    -2.482744830622369     0.413724610422133
    C               -0.924558391101362    -0.201744830622368    -0.311275389577867
    C               -0.436558391101362    -1.042744830622368     0.691724610422133
    C               -1.178558391101362     1.146255169377631    -0.069275389577867
    C               -0.907558391101362     1.661255169377632     1.154724610422133
    C               -0.182558391101362    -0.505744830622368     1.943724610422134
    C               -0.435558391101362     0.849255169377632     2.183724610422133
    H               -1.128558391101363    -0.604744830622368    -1.294275389577867
    H               -1.567558391101362     1.779255169377632    -0.856275389577867
    H                0.717441608898638    -2.791744830622369     0.978724610422133
    H                0.076441608898638    -2.594744830622368    -0.645275389577867
    H               -1.078558391101363     2.713255169377632     1.341724610422133
    H                0.198441608898638    -1.130744830622368     2.739724610422134
    H               -0.240558391101362     1.273255169377632     3.159724610422133
    H               -1.004642391101362    -3.148844830622369     0.656404610422133

}
e, wfn = energy('scf', return_wfn=True)
gdma(wfn)
dmavals = variable('DMA DISTRIBUTED MULTIPOLES')
charges = np.array(dmavals)
print(charges)
np.save('SSI-122VAL-152PHE-1-dimer.npy', np.array(charges))--------------------------------------------------------------------------

*** tstart() called on ds3
*** at Tue Apr 28 09:01:52 2020

   => Loading Basis Set <=

    Name: CC-PVDZ
    Role: ORBITAL
    Keyword: BASIS
    atoms 1-2, 9-15  entry C          line   138 file /theoryfs2/ds/metcalf/miniconda2/envs/tf2gpu/share/psi4/basis/cc-pvdz.gbs
    atoms 3-8, 16-23 entry H          line    22 file /theoryfs2/ds/metcalf/miniconda2/envs/tf2gpu/share/psi4/basis/cc-pvdz.gbs

         ---------------------------------------------------------
                                   SCF
               by Justin Turney, Rob Parrish, Andy Simmonett
                          and Daniel G. A. Smith
                              RHF Reference
                        1 Threads,    500 MiB Core
         ---------------------------------------------------------

  ==> Geometry <==

    Molecular point group: c1
    Full point group: C1

    Geometry (in Angstrom), charge = 0, multiplicity = 1:

       Center              X                  Y                   Z               Mass
    ------------   -----------------  -----------------  -----------------  -----------------
         C            2.175441608899     0.142255169378    -1.968275389578    12.000000000000
         C            1.479441608899     0.621255169378    -3.239275389578    12.000000000000
         H            3.206441608899     0.496255169378    -1.923275389578     1.007825032230
         H            1.642441608899     0.511255169378    -1.091275389578     1.007825032230
         H            2.167441608899    -0.948744830622    -1.937275389578     1.007825032230
         H            0.463441608899     0.231255169378    -3.219275389578     1.007825032230
         H            1.968795608899     0.266095169378    -4.158185389578     1.007825032230
         H            1.413812608899     1.718835169378    -3.270955389578     1.007825032230
         C           -0.163558391101    -2.482744830622     0.413724610422    12.000000000000
         C           -0.924558391101    -0.201744830622    -0.311275389578    12.000000000000
         C           -0.436558391101    -1.042744830622     0.691724610422    12.000000000000
         C           -1.178558391101     1.146255169378    -0.069275389578    12.000000000000
         C           -0.907558391101     1.661255169378     1.154724610422    12.000000000000
         C           -0.182558391101    -0.505744830622     1.943724610422    12.000000000000
         C           -0.435558391101     0.849255169378     2.183724610422    12.000000000000
         H           -1.128558391101    -0.604744830622    -1.294275389578     1.007825032230
         H           -1.567558391101     1.779255169378    -0.856275389578     1.007825032230
         H            0.717441608899    -2.791744830622     0.978724610422     1.007825032230
         H            0.076441608899    -2.594744830622    -0.645275389578     1.007825032230
         H           -1.078558391101     2.713255169378     1.341724610422     1.007825032230
         H            0.198441608899    -1.130744830622     2.739724610422     1.007825032230
         H           -0.240558391101     1.273255169378     3.159724610422     1.007825032230
         H           -1.004642391101    -3.148844830622     0.656404610422     1.007825032230

  Running in c1 symmetry.

  Rotational constants: A =      0.06395  B =      0.03216  C =      0.02563 [cm^-1]
  Rotational constants: A =   1917.19286  B =    964.03474  C =    768.44633 [MHz]
  Nuclear repulsion =  418.172904752767863

  Charge       = 0
  Multiplicity = 1
  Electrons    = 68
  Nalpha       = 34
  Nbeta        = 34

  ==> Algorithm <==

  SCF Algorithm Type is PK.
  DIIS enabled.
  MOM disabled.
  Fractional occupation disabled.
  Guess Type is SAD.
  Energy threshold   = 1.00e-06
  Density threshold  = 1.00e-10
  Integral threshold = 0.00e+00

  ==> Primary Basis <==

  Basis Set: CC-PVDZ
    Blend: CC-PVDZ
    Number of shells: 96
    Number of basis function: 196
    Number of Cartesian functions: 205
    Spherical Harmonics?: true
    Max angular momentum: 2

  ==> Pre-Iterations <==

   -------------------------------------------------------
    Irrep   Nso     Nmo     Nalpha   Nbeta   Ndocc  Nsocc
   -------------------------------------------------------
     A        196     196       0       0       0       0
   -------------------------------------------------------
    Total     196     196      34      34      34       0
   -------------------------------------------------------

  ==> Integral Setup <==

  Using integral reordering PK algorithm.
  Sizing the integral batches needed.
  Building batch lookup table.
   Calculation information:
      Number of atoms:                  23
      Number of AO shells:              96
      Number of primitives:            268
      Number of atomic orbitals:       205
      Number of basis functions:       196

      Integral cutoff                 1.00e-12
      Number of threads:                 1

	Batch   1 pq = [       0,    9405] index = [             0,44231715] size =     44231715
	Batch   2 pq = [    9405,   13301] index = [      44231715,88464951] size =     44233236
	Batch   3 pq = [   13301,   16290] index = [      88464951,132690195] size =     44225244
	Batch   4 pq = [   16290,   18810] index = [     132690195,176917455] size =     44227260
	Batch   5 pq = [   18810,   19306] index = [     176917455,186370471] size =      9453016
  Task number: 17
  Buffer size: 11059200
  Buffer per thread: 2
  We computed 10356633 shell quartets total.
  Whereas there are 10841496 unique shell quartets.

  ==> DiskJK: Disk-Based J/K Matrices <==

    J tasked:                  Yes
    K tasked:                  Yes
    wK tasked:                  No
    Memory [MiB]:              375
    Schwarz Cutoff:          1E-12

    OpenMP threads:              1

  Minimum eigenvalue in the overlap matrix is 3.0211945120E-04.
  Using Symmetric Orthogonalization.

  SCF Guess: Superposition of Atomic Densities via on-the-fly atomic UHF.

  ==> Iterations <==

                        Total Energy        Delta E     RMS |[F,P]|

   @RHF iter SAD:  -347.95842653461375   -3.47958e+02   0.00000e+00
   @RHF iter   1:  -348.76260945972064   -8.04183e-01   2.92006e-03 DIIS
   @RHF iter   2:  -348.95734282515832   -1.94733e-01   1.22186e-03 DIIS
   @RHF iter   3:  -348.98846524158517   -3.11224e-02   2.60035e-04 DIIS
   @RHF iter   4:  -348.99095460751391   -2.48937e-03   5.41427e-05 DIIS
   @RHF iter   5:  -348.99103138971361   -7.67822e-05   1.78624e-05 DIIS
   @RHF iter   6:  -348.99103936591865   -7.97621e-06   4.85739e-06 DIIS
   @RHF iter   7:  -348.99104006059321   -6.94675e-07   1.33078e-06 DIIS
   @RHF iter   8:  -348.99104013468013   -7.40869e-08   4.32610e-07 DIIS
   @RHF iter   9:  -348.99104015169314   -1.70130e-08   2.24874e-07 DIIS
   @RHF iter  10:  -348.99104015655121   -4.85807e-09   1.03140e-07 DIIS
   @RHF iter  11:  -348.99104015783701   -1.28580e-09   3.60723e-08 DIIS
   @RHF iter  12:  -348.99104015794290   -1.05899e-10   1.61508e-08 DIIS
   @RHF iter  13:  -348.99104015795632   -1.34150e-11   4.39644e-09 DIIS
   @RHF iter  14:  -348.99104015795672   -3.97904e-13   1.33874e-09 DIIS
   @RHF iter  15:  -348.99104015795706   -3.41061e-13   6.25846e-10 DIIS
   @RHF iter  16:  -348.99104015795609    9.66338e-13   2.70489e-10 DIIS
   @RHF iter  17:  -348.99104015795865   -2.55795e-12   8.84396e-11 DIIS
  Energy and wave function converged.

  ==> Post-Iterations <==

    Orbital Energies [Eh]
    ---------------------

    Doubly Occupied:

       1A    -11.239012     2A    -11.236352     3A    -11.231789
       4A    -11.231411     5A    -11.230072     6A    -11.228684
       7A    -11.227685     8A    -11.215485     9A    -11.209669
      10A     -1.157085    11A     -1.050475    12A     -1.014039
      13A     -1.010370    14A     -0.932885    15A     -0.832518
      16A     -0.828257    17A     -0.794363    18A     -0.692874
      19A     -0.634094    20A     -0.630434    21A     -0.594576
      22A     -0.590846    23A     -0.583179    24A     -0.576954
      25A     -0.563431    26A     -0.534897    27A     -0.499902
      28A     -0.491029    29A     -0.486399    30A     -0.481423
      31A     -0.479588    32A     -0.475981    33A     -0.333638
      34A     -0.323068

    Virtual:

      35A      0.133345    36A      0.142278    37A      0.170148
      38A      0.195522    39A      0.200768    40A      0.224247
      41A      0.234730    42A      0.242449    43A      0.256069
      44A      0.261711    45A      0.272474    46A      0.273166
      47A      0.283103    48A      0.290047    49A      0.320709
      50A      0.332654    51A      0.371159    52A      0.383397
      53A      0.406864    54A      0.458141    55A      0.464174
      56A      0.483873    57A      0.489960    58A      0.565222
      59A      0.583255    60A      0.590595    61A      0.603188
      62A      0.609272    63A      0.640639    64A      0.669313
      65A      0.682084    66A      0.691687    67A      0.699740
      68A      0.711501    69A      0.727103    70A      0.738887
      71A      0.747200    72A      0.751413    73A      0.764859
      74A      0.770294    75A      0.788009    76A      0.828009
      77A      0.842789    78A      0.857550    79A      0.859094
      80A      0.867066    81A      0.871305    82A      0.880015
      83A      0.896633    84A      0.897283    85A      0.904200
      86A      0.909568    87A      0.915861    88A      0.931171
      89A      0.936149    90A      0.949107    91A      0.973635
      92A      0.985004    93A      0.999621    94A      1.014817
      95A      1.035602    96A      1.059036    97A      1.125486
      98A      1.127566    99A      1.139129   100A      1.143471
     101A      1.160220   102A      1.165880   103A      1.190832
     104A      1.241866   105A      1.244520   106A      1.254484
     107A      1.256211   108A      1.264162   109A      1.310829
     110A      1.314700   111A      1.328165   112A      1.339946
     113A      1.415243   114A      1.466847   115A      1.480113
     116A      1.510463   117A      1.523114   118A      1.559512
     119A      1.582285   120A      1.604692   121A      1.675569
     122A      1.689843   123A      1.702001   124A      1.708279
     125A      1.742202   126A      1.757461   127A      1.764619
     128A      1.804938   129A      1.822090   130A      1.861836
     131A      1.869382   132A      1.874998   133A      1.890673
     134A      1.894715   135A      1.916601   136A      1.920446
     137A      1.921592   138A      1.940260   139A      1.944473
     140A      1.949084   141A      1.951758   142A      1.958432
     143A      1.966429   144A      1.972011   145A      1.975811
     146A      1.987441   147A      1.996640   148A      2.010623
     149A      2.041845   150A      2.065551   151A      2.074830
     152A      2.097969   153A      2.110315   154A      2.128702
     155A      2.147274   156A      2.161488   157A      2.173818
     158A      2.182421   159A      2.202629   160A      2.262734
     161A      2.278736   162A      2.297700   163A      2.303509
     164A      2.314909   165A      2.319452   166A      2.330328
     167A      2.332165   168A      2.455810   169A      2.464013
     170A      2.475503   171A      2.486277   172A      2.508628
     173A      2.549748   174A      2.560973   175A      2.583026
     176A      2.627385   177A      2.740220   178A      2.759808
     179A      2.768440   180A      2.773992   181A      2.789720
     182A      2.810358   183A      2.814318   184A      2.852444
     185A      2.868118   186A      2.873560   187A      2.887759
     188A      2.964138   189A      2.969870   190A      2.994788
     191A      3.027974   192A      3.039475   193A      3.164833
     194A      3.211019   195A      3.306978   196A      3.985698

    Final Occupation by Irrep:
              A
    DOCC [    34 ]

  @RHF Final Energy:  -348.99104015795865

   => Energetics <=

    Nuclear Repulsion Energy =            418.1729047527678631
    One-Electron Energy =               -1299.0429625063957246
    Two-Electron Energy =                 531.8790175956692110
    Total Energy =                       -348.9910401579586505

Computation Completed

Properties will be evaluated at   0.000000,   0.000000,   0.000000 [a0]

Properties computed using the SCF density matrix

  Nuclear Dipole Moment: [e a0]
     X:     6.4074      Y:    -2.0907      Z:    -8.9245

  Electronic Dipole Moment: [e a0]
     X:    -6.4132      Y:     1.9834      Z:     8.9869

  Dipole Moment: [e a0]
     X:    -0.0058      Y:    -0.1072      Z:     0.0624     Total:     0.1242

  Dipole Moment: [D]
     X:    -0.0147      Y:    -0.2725      Z:     0.1586     Total:     0.3156

*** tstop() called on ds3 at Tue Apr 28 09:03:38 2020
Module time:
	user time   =      79.45 seconds =       1.32 minutes
	system time =      29.02 seconds =       0.48 minutes
	total time  =        106 seconds =       1.77 minutes
Total time:
	user time   =      79.45 seconds =       1.32 minutes
	system time =      29.02 seconds =       0.48 minutes
	total time  =        106 seconds =       1.77 minutes
                                     G D M A

                                 by Anthony Stone

                           version 2.2.06, 22 June 2011

               Distributed Multipoles from Gaussian wavefunctions

Starting at 9:3:38 on 28 Apr 2020

Using SCF density matrix from file ./SSI/SSI-122VAL-152PHE-1-dimer.test.8965.fchk

                         Distributed Multipole Analysis

Standard DMA

Positions and radii in angstrom
Multipole moments in atomic units, ea_0^k for rank k

C          x =  2.175442  y =  0.142255  z = -1.968275 angstrom
           Maximum rank =  0   Radius =  0.650 angstrom
                   Q00  =  -0.236836

C          x =  1.479442  y =  0.621255  z = -3.239275 angstrom
           Maximum rank =  0   Radius =  0.650 angstrom
                   Q00  =  -0.237457

H          x =  3.206442  y =  0.496255  z = -1.923275 angstrom
           Maximum rank =  0   Radius =  0.325 angstrom
                   Q00  =   0.076420

H          x =  1.642442  y =  0.511255  z = -1.091275 angstrom
           Maximum rank =  0   Radius =  0.325 angstrom
                   Q00  =   0.096717

H          x =  2.167442  y = -0.948745  z = -1.937275 angstrom
           Maximum rank =  0   Radius =  0.325 angstrom
                   Q00  =   0.072067

H          x =  0.463442  y =  0.231255  z = -3.219275 angstrom
           Maximum rank =  0   Radius =  0.325 angstrom
                   Q00  =   0.070032

H          x =  1.968796  y =  0.266095  z = -4.158185 angstrom
           Maximum rank =  0   Radius =  0.325 angstrom
                   Q00  =   0.077980

H          x =  1.413813  y =  1.718835  z = -3.270955 angstrom
           Maximum rank =  0   Radius =  0.325 angstrom
                   Q00  =   0.078146

C          x = -0.163558  y = -2.482745  z =  0.413725 angstrom
           Maximum rank =  0   Radius =  0.650 angstrom
                   Q00  =  -0.198799

C          x = -0.924558  y = -0.201745  z = -0.311275 angstrom
           Maximum rank =  0   Radius =  0.650 angstrom
                   Q00  =  -0.008707

C          x = -0.436558  y = -1.042745  z =  0.691725 angstrom
           Maximum rank =  0   Radius =  0.650 angstrom
                   Q00  =  -0.103497

C          x = -1.178558  y =  1.146255  z = -0.069275 angstrom
           Maximum rank =  0   Radius =  0.650 angstrom
                   Q00  =  -0.069574

C          x = -0.907558  y =  1.661255  z =  1.154725 angstrom
           Maximum rank =  0   Radius =  0.650 angstrom
                   Q00  =  -0.051604

C          x = -0.182558  y = -0.505745  z =  1.943725 angstrom
           Maximum rank =  0   Radius =  0.650 angstrom
                   Q00  =  -0.089029

C          x = -0.435558  y =  0.849255  z =  2.183725 angstrom
           Maximum rank =  0   Radius =  0.650 angstrom
                   Q00  =  -0.074666

H          x = -1.128558  y = -0.604745  z = -1.294275 angstrom
           Maximum rank =  0   Radius =  0.325 angstrom
                   Q00  =   0.055170

H          x = -1.567558  y =  1.779255  z = -0.856275 angstrom
           Maximum rank =  0   Radius =  0.325 angstrom
                   Q00  =   0.062690

H          x =  0.717442  y = -2.791745  z =  0.978725 angstrom
           Maximum rank =  0   Radius =  0.325 angstrom
                   Q00  =   0.097853

H          x =  0.076442  y = -2.594745  z = -0.645275 angstrom
           Maximum rank =  0   Radius =  0.325 angstrom
                   Q00  =   0.097137

H          x = -1.078558  y =  2.713255  z =  1.341725 angstrom
           Maximum rank =  0   Radius =  0.325 angstrom
                   Q00  =   0.056530

H          x =  0.198442  y = -1.130745  z =  2.739725 angstrom
           Maximum rank =  0   Radius =  0.325 angstrom
                   Q00  =   0.058211

H          x = -0.240558  y =  1.273255  z =  3.159725 angstrom
           Maximum rank =  0   Radius =  0.325 angstrom
                   Q00  =   0.065690

H          x = -1.004642  y = -3.148845  z =  0.656405 angstrom
           Maximum rank =  0   Radius =  0.325 angstrom
                   Q00  =   0.105525

Total multipoles referred to origin at
           x =   0.000000,  y =    0.000000,  z =    0.000000 angstrom
                   Q00  =  -0.000000

Finished at 9:3:38 on 28 Apr 2020

  DMA results are available in the Python driver through the
	  variable('DMA DISTRIBUTED MULTIPOLES')
  and
	  variable('DMA TOTAL MULTIPOLES')
  commands.

    Psi4 stopped on: Tuesday, 28 April 2020 09:03AM
    Psi4 wall time for execution: 0:01:45.87

*** Psi4 exiting successfully. Buy a developer a beer!
