                               Psi4 1.3.2 release

  ==> Input File <==

--------------------------------------------------------------------------
import numpy as np
set {scf_type pk
basis cc-pvdz
d_convergence 10
gdma_switch   0
gdma_limit    0
gdma_origin   [ 0.0,  0.0,  0.0 ]
}
molecule test {
    units Angstrom
    0 1
    --
    0 1
    C                1.539199111055329     2.782913590032300     0.438821621918451
    C               -0.460800888944671    -0.349086409967701     1.219821621918451
    C               -0.125800888944671     0.978913590032299     0.982821621918451
    C                0.515199111055329    -1.332086409967701     1.130821621918451
    C                1.183199111055329     1.339913590032300     0.673821621918451
    C                1.824199111055329    -0.987086409967700     0.812821621918451
    C                2.155199111055329     0.344913590032300     0.587821621918451
    O                0.194199111055329    -2.638086409967701     1.352821621918451
    H               -1.479800888944671    -0.614086409967701     1.467821621918451
    H               -0.892800888944671     1.740913590032299     1.047821621918451
    H               -0.742800888944671    -2.749086409967700     1.548821621918451
    H                2.572199111055329    -1.761086409967701     0.746821621918451
    H                2.546199111055329     2.965913590032299     0.814821621918451
    H                0.857199111055329     3.403913590032300     1.022821621918451
    H                3.177199111055329     0.610913590032300     0.347821621918451
    H                1.485929111055329     3.088838590032299    -0.616437978081549
    C               -2.484800888944672    -0.181086409967700    -1.907178378081549
    C               -2.300800888944671     1.314913590032299    -2.162178378081549
    C               -1.396800888944671    -1.006086409967700    -2.596178378081549
    H               -2.444800888944671    -0.357086409967701    -0.832178378081549
    H               -3.457800888944671    -0.491086409967700    -2.277178378081548
    H               -1.295800888944671     1.569913590032300    -1.824178378081549
    H               -1.464800888944671    -0.867086409967701    -3.677178378081549
    H               -0.428800888944671    -0.641086409967700    -2.256178378081549
    H               -3.040710888944671     1.920565590032299    -1.618373378081549
    H               -2.369550888944671     1.528409590032299    -3.239068378081549
    H               -1.437290888944671    -2.083293409967701    -2.377122378081549

}
e, wfn = energy('scf', return_wfn=True)
gdma(wfn)
dmavals = variable('DMA DISTRIBUTED MULTIPOLES')
charges = np.array(dmavals)
print(charges)
np.save('SSI-029TYR-049GLU-1-dimer.npy', np.array(charges))--------------------------------------------------------------------------

*** tstart() called on ds3
*** at Tue Apr 28 11:57:50 2020

   => Loading Basis Set <=

    Name: CC-PVDZ
    Role: ORBITAL
    Keyword: BASIS
    atoms 1-7, 17-19  entry C          line   138 file /theoryfs2/ds/metcalf/miniconda2/envs/tf2gpu/share/psi4/basis/cc-pvdz.gbs
    atoms 8           entry O          line   198 file /theoryfs2/ds/metcalf/miniconda2/envs/tf2gpu/share/psi4/basis/cc-pvdz.gbs
    atoms 9-16, 20-27 entry H          line    22 file /theoryfs2/ds/metcalf/miniconda2/envs/tf2gpu/share/psi4/basis/cc-pvdz.gbs

         ---------------------------------------------------------
                                   SCF
               by Justin Turney, Rob Parrish, Andy Simmonett
                          and Daniel G. A. Smith
                              RHF Reference
                        1 Threads,    500 MiB Core
         ---------------------------------------------------------

  ==> Geometry <==

    Molecular point group: c1
    Full point group: C1

    Geometry (in Angstrom), charge = 0, multiplicity = 1:

       Center              X                  Y                   Z               Mass
    ------------   -----------------  -----------------  -----------------  -----------------
         C            1.539199111055     2.782913590032     0.438821621918    12.000000000000
         C           -0.460800888945    -0.349086409968     1.219821621918    12.000000000000
         C           -0.125800888945     0.978913590032     0.982821621918    12.000000000000
         C            0.515199111055    -1.332086409968     1.130821621918    12.000000000000
         C            1.183199111055     1.339913590032     0.673821621918    12.000000000000
         C            1.824199111055    -0.987086409968     0.812821621918    12.000000000000
         C            2.155199111055     0.344913590032     0.587821621918    12.000000000000
         O            0.194199111055    -2.638086409968     1.352821621918    15.994914619570
         H           -1.479800888945    -0.614086409968     1.467821621918     1.007825032230
         H           -0.892800888945     1.740913590032     1.047821621918     1.007825032230
         H           -0.742800888945    -2.749086409968     1.548821621918     1.007825032230
         H            2.572199111055    -1.761086409968     0.746821621918     1.007825032230
         H            2.546199111055     2.965913590032     0.814821621918     1.007825032230
         H            0.857199111055     3.403913590032     1.022821621918     1.007825032230
         H            3.177199111055     0.610913590032     0.347821621918     1.007825032230
         H            1.485929111055     3.088838590032    -0.616437978082     1.007825032230
         C           -2.484800888945    -0.181086409968    -1.907178378082    12.000000000000
         C           -2.300800888945     1.314913590032    -2.162178378082    12.000000000000
         C           -1.396800888945    -1.006086409968    -2.596178378082    12.000000000000
         H           -2.444800888945    -0.357086409968    -0.832178378082     1.007825032230
         H           -3.457800888945    -0.491086409968    -2.277178378082     1.007825032230
         H           -1.295800888945     1.569913590032    -1.824178378082     1.007825032230
         H           -1.464800888945    -0.867086409968    -3.677178378082     1.007825032230
         H           -0.428800888945    -0.641086409968    -2.256178378082     1.007825032230
         H           -3.040710888945     1.920565590032    -1.618373378082     1.007825032230
         H           -2.369550888945     1.528409590032    -3.239068378082     1.007825032230
         H           -1.437290888945    -2.083293409968    -2.377122378082     1.007825032230

  Running in c1 symmetry.

  Rotational constants: A =      0.03597  B =      0.02430  C =      0.01714 [cm^-1]
  Rotational constants: A =   1078.28811  B =    728.34831  C =    513.74520 [MHz]
  Nuclear repulsion =  594.542394010329076

  Charge       = 0
  Multiplicity = 1
  Electrons    = 84
  Nalpha       = 42
  Nbeta        = 42

  ==> Algorithm <==

  SCF Algorithm Type is PK.
  DIIS enabled.
  MOM disabled.
  Fractional occupation disabled.
  Guess Type is SAD.
  Energy threshold   = 1.00e-06
  Density threshold  = 1.00e-10
  Integral threshold = 0.00e+00

  ==> Primary Basis <==

  Basis Set: CC-PVDZ
    Blend: CC-PVDZ
    Number of shells: 114
    Number of basis function: 234
    Number of Cartesian functions: 245
    Spherical Harmonics?: true
    Max angular momentum: 2

  ==> Pre-Iterations <==

   -------------------------------------------------------
    Irrep   Nso     Nmo     Nalpha   Nbeta   Ndocc  Nsocc
   -------------------------------------------------------
     A        234     234       0       0       0       0
   -------------------------------------------------------
    Total     234     234      42      42      42       0
   -------------------------------------------------------

  ==> Integral Setup <==

  Using integral reordering PK algorithm.
  Sizing the integral batches needed.
  Building batch lookup table.
   Calculation information:
      Number of atoms:                  27
      Number of AO shells:             114
      Number of primitives:            322
      Number of atomic orbitals:       245
      Number of basis functions:       234

      Integral cutoff                 1.00e-12
      Number of threads:                 1

	Batch   1 pq = [       0,    9405] index = [             0,44231715] size =     44231715
	Batch   2 pq = [    9405,   13301] index = [      44231715,88464951] size =     44233236
	Batch   3 pq = [   13301,   16290] index = [      88464951,132690195] size =     44225244
	Batch   4 pq = [   16290,   18810] index = [     132690195,176917455] size =     44227260
	Batch   5 pq = [   18810,   21030] index = [     176917455,221140965] size =     44223510
	Batch   6 pq = [   21030,   23037] index = [     221140965,265363203] size =     44222238
	Batch   7 pq = [   23037,   24883] index = [     265363203,309594286] size =     44231083
	Batch   8 pq = [   24883,   26601] index = [     309594286,353819901] size =     44225615
	Batch   9 pq = [   26601,   27495] index = [     353819901,378001260] size =     24181359
  Task number: 35
  Buffer size: 11059200
  Buffer per thread: 2
  We computed 21893479 shell quartets total.
  Whereas there are 21487290 unique shell quartets.
     1.89 percent of shell quartets recomputed by reordering.

  ==> DiskJK: Disk-Based J/K Matrices <==

    J tasked:                  Yes
    K tasked:                  Yes
    wK tasked:                  No
    Memory [MiB]:              375
    Schwarz Cutoff:          1E-12

    OpenMP threads:              1

  Minimum eigenvalue in the overlap matrix is 3.1856415116E-04.
  Using Symmetric Orthogonalization.

  SCF Guess: Superposition of Atomic Densities via on-the-fly atomic UHF.

  ==> Iterations <==

                        Total Energy        Delta E     RMS |[F,P]|

   @RHF iter SAD:  -461.72785045348957   -4.61728e+02   0.00000e+00
   @RHF iter   1:  -462.60578214934378   -8.77932e-01   2.83082e-03 DIIS
   @RHF iter   2:  -462.84904481881449   -2.43263e-01   1.21734e-03 DIIS
   @RHF iter   3:  -462.88996616425862   -4.09213e-02   2.70051e-04 DIIS
   @RHF iter   4:  -462.89325896955881   -3.29281e-03   1.04198e-04 DIIS
   @RHF iter   5:  -462.89360671269299   -3.47743e-04   2.09892e-05 DIIS
   @RHF iter   6:  -462.89362691492062   -2.02022e-05   6.44189e-06 DIIS
   @RHF iter   7:  -462.89362896338150   -2.04846e-06   1.83661e-06 DIIS
   @RHF iter   8:  -462.89362919958211   -2.36201e-07   6.64896e-07 DIIS
   @RHF iter   9:  -462.89362923427626   -3.46942e-08   2.76212e-07 DIIS
   @RHF iter  10:  -462.89362924029297   -6.01671e-09   1.09942e-07 DIIS
   @RHF iter  11:  -462.89362924222246   -1.92949e-09   4.88674e-08 DIIS
   @RHF iter  12:  -462.89362924264032   -4.17856e-10   2.21988e-08 DIIS
   @RHF iter  13:  -462.89362924269585   -5.55360e-11   7.93650e-09 DIIS
   @RHF iter  14:  -462.89362924270620   -1.03455e-11   2.03398e-09 DIIS
   @RHF iter  15:  -462.89362924270335    2.84217e-12   7.62296e-10 DIIS
   @RHF iter  16:  -462.89362924270301    3.41061e-13   2.84445e-10 DIIS
   @RHF iter  17:  -462.89362924270279    2.27374e-13   1.36619e-10 DIIS
   @RHF iter  18:  -462.89362924270279    0.00000e+00   6.83836e-11 DIIS
  Energy and wave function converged.

  ==> Post-Iterations <==

    Orbital Energies [Eh]
    ---------------------

    Doubly Occupied:

       1A    -20.583586     2A    -11.299621     3A    -11.239349
       4A    -11.239159     5A    -11.233667     6A    -11.233533
       7A    -11.230930     8A    -11.228318     9A    -11.215894
      10A    -11.214656    11A    -11.210424    12A     -1.400153
      13A     -1.153315    14A     -1.050532    15A     -1.039065
      16A     -1.019974    17A     -0.926982    18A     -0.917928
      19A     -0.846066    20A     -0.803323    21A     -0.794042
      22A     -0.732942    23A     -0.669818    24A     -0.642794
      25A     -0.625274    26A     -0.607263    27A     -0.593882
      28A     -0.588234    29A     -0.586903    30A     -0.571432
      31A     -0.568256    32A     -0.538587    33A     -0.526556
      34A     -0.524507    35A     -0.499164    36A     -0.486125
      37A     -0.472108    38A     -0.470694    39A     -0.466180
      40A     -0.461285    41A     -0.340172    42A     -0.302790

    Virtual:

      43A      0.127742    44A      0.153452    45A      0.167967
      46A      0.178264    47A      0.202583    48A      0.206624
      49A      0.214658    50A      0.238987    51A      0.244685
      52A      0.250026    53A      0.256533    54A      0.263944
      55A      0.279766    56A      0.287055    57A      0.297895
      58A      0.299458    59A      0.324196    60A      0.331535
      61A      0.369517    62A      0.376590    63A      0.387195
      64A      0.424200    65A      0.435352    66A      0.455311
      67A      0.480806    68A      0.498802    69A      0.507973
      70A      0.575850    71A      0.592878    72A      0.602597
      73A      0.608117    74A      0.621553    75A      0.630129
      76A      0.639366    77A      0.653210    78A      0.670510
      79A      0.691093    80A      0.706996    81A      0.722528
      82A      0.736229    83A      0.738768    84A      0.763491
      85A      0.764581    86A      0.780810    87A      0.785689
      88A      0.799435    89A      0.813091    90A      0.822594
      91A      0.846705    92A      0.848712    93A      0.852932
      94A      0.870164    95A      0.876317    96A      0.879247
      97A      0.881745    98A      0.888862    99A      0.895922
     100A      0.910580   101A      0.915526   102A      0.918603
     103A      0.922225   104A      0.932828   105A      0.940420
     106A      0.944829   107A      0.949565   108A      0.974503
     109A      0.992016   110A      0.999085   111A      1.015913
     112A      1.029232   113A      1.032769   114A      1.074173
     115A      1.123667   116A      1.132945   117A      1.139584
     118A      1.143455   119A      1.151959   120A      1.170635
     121A      1.197183   122A      1.226570   123A      1.249340
     124A      1.259641   125A      1.270879   126A      1.286416
     127A      1.300358   128A      1.311825   129A      1.321430
     130A      1.349294   131A      1.361703   132A      1.368222
     133A      1.385986   134A      1.477280   135A      1.484137
     136A      1.485818   137A      1.519333   138A      1.529286
     139A      1.548368   140A      1.563062   141A      1.603338
     142A      1.612197   143A      1.624311   144A      1.675903
     145A      1.692142   146A      1.699322   147A      1.703876
     148A      1.715191   149A      1.736082   150A      1.756099
     151A      1.786275   152A      1.811330   153A      1.814933
     154A      1.843245   155A      1.870038   156A      1.874604
     157A      1.889082   158A      1.893695   159A      1.902619
     160A      1.906194   161A      1.917553   162A      1.920277
     163A      1.940067   164A      1.944474   165A      1.950141
     166A      1.954872   167A      1.962367   168A      1.964942
     169A      1.972308   170A      1.977789   171A      1.994149
     172A      1.997890   173A      2.011049   174A      2.027865
     175A      2.033252   176A      2.052479   177A      2.061087
     178A      2.064096   179A      2.070232   180A      2.081063
     181A      2.119651   182A      2.138023   183A      2.150023
     184A      2.158640   185A      2.175740   186A      2.203003
     187A      2.237679   188A      2.262413   189A      2.282013
     190A      2.294798   191A      2.299214   192A      2.320371
     193A      2.322266   194A      2.325681   195A      2.337502
     196A      2.373423   197A      2.428146   198A      2.457531
     199A      2.470697   200A      2.484528   201A      2.513481
     202A      2.536855   203A      2.541613   204A      2.549300
     205A      2.587865   206A      2.603311   207A      2.614328
     208A      2.637266   209A      2.648425   210A      2.752117
     211A      2.756240   212A      2.770555   213A      2.788153
     214A      2.792757   215A      2.805357   216A      2.814018
     217A      2.822626   218A      2.844058   219A      2.903574
     220A      2.928205   221A      2.959819   222A      2.979935
     223A      2.988341   224A      3.007395   225A      3.069553
     226A      3.094012   227A      3.112870   228A      3.250584
     229A      3.284267   230A      3.346530   231A      3.576764
     232A      3.676836   233A      3.977157   234A      4.192720

    Final Occupation by Irrep:
              A
    DOCC [    42 ]

  @RHF Final Energy:  -462.89362924270279

   => Energetics <=

    Nuclear Repulsion Energy =            594.5423940103290761
    One-Electron Energy =               -1806.5610771058609316
    Two-Electron Energy =                 749.1250538528289553
    Total Energy =                       -462.8936292427027865

Computation Completed

Properties will be evaluated at   0.000000,   0.000000,   0.000000 [a0]

Properties computed using the SCF density matrix

  Nuclear Dipole Moment: [e a0]
     X:    -7.8890      Y:     6.7985      Z:   -10.9817

  Electronic Dipole Moment: [e a0]
     X:     7.4999      Y:    -6.5010      Z:    11.0962

  Dipole Moment: [e a0]
     X:    -0.3891      Y:     0.2975      Z:     0.1145     Total:     0.5030

  Dipole Moment: [D]
     X:    -0.9891      Y:     0.7562      Z:     0.2910     Total:     1.2786

*** tstop() called on ds3 at Tue Apr 28 12:01:47 2020
Module time:
	user time   =     165.67 seconds =       2.76 minutes
	system time =      61.98 seconds =       1.03 minutes
	total time  =        237 seconds =       3.95 minutes
Total time:
	user time   =     165.67 seconds =       2.76 minutes
	system time =      61.98 seconds =       1.03 minutes
	total time  =        237 seconds =       3.95 minutes
                                     G D M A

                                 by Anthony Stone

                           version 2.2.06, 22 June 2011

               Distributed Multipoles from Gaussian wavefunctions

Starting at 12:1:47 on 28 Apr 2020

Using SCF density matrix from file ./SSI/SSI-029TYR-049GLU-1-dimer.test.24097.fchk

                         Distributed Multipole Analysis

Standard DMA

Positions and radii in angstrom
Multipole moments in atomic units, ea_0^k for rank k

C          x =  1.539199  y =  2.782914  z =  0.438822 angstrom
           Maximum rank =  0   Radius =  0.650 angstrom
                   Q00  =  -0.190175

C          x = -0.460801  y = -0.349086  z =  1.219822 angstrom
           Maximum rank =  0   Radius =  0.650 angstrom
                   Q00  =  -0.202318

C          x = -0.125801  y =  0.978914  z =  0.982822 angstrom
           Maximum rank =  0   Radius =  0.650 angstrom
                   Q00  =   0.026519

C          x =  0.515199  y = -1.332086  z =  1.130822 angstrom
           Maximum rank =  0   Radius =  0.650 angstrom
                   Q00  =   0.329570

C          x =  1.183199  y =  1.339914  z =  0.673822 angstrom
           Maximum rank =  0   Radius =  0.650 angstrom
                   Q00  =  -0.136265

C          x =  1.824199  y = -0.987086  z =  0.812822 angstrom
           Maximum rank =  0   Radius =  0.650 angstrom
                   Q00  =  -0.113261

C          x =  2.155199  y =  0.344914  z =  0.587822 angstrom
           Maximum rank =  0   Radius =  0.650 angstrom
                   Q00  =  -0.019993

O          x =  0.194199  y = -2.638086  z =  1.352822 angstrom
           Maximum rank =  0   Radius =  0.650 angstrom
                   Q00  =  -0.677968

H          x = -1.479801  y = -0.614086  z =  1.467822 angstrom
           Maximum rank =  0   Radius =  0.325 angstrom
                   Q00  =   0.072550

H          x = -0.892801  y =  1.740914  z =  1.047822 angstrom
           Maximum rank =  0   Radius =  0.325 angstrom
                   Q00  =   0.070285

H          x = -0.742801  y = -2.749086  z =  1.548822 angstrom
           Maximum rank =  0   Radius =  0.325 angstrom
                   Q00  =   0.406516

H          x =  2.572199  y = -1.761086  z =  0.746822 angstrom
           Maximum rank =  0   Radius =  0.325 angstrom
                   Q00  =   0.081525

H          x =  2.546199  y =  2.965914  z =  0.814822 angstrom
           Maximum rank =  0   Radius =  0.325 angstrom
                   Q00  =   0.096302

H          x =  0.857199  y =  3.403914  z =  1.022822 angstrom
           Maximum rank =  0   Radius =  0.325 angstrom
                   Q00  =   0.094544

H          x =  3.177199  y =  0.610914  z =  0.347822 angstrom
           Maximum rank =  0   Radius =  0.325 angstrom
                   Q00  =   0.063735

H          x =  1.485929  y =  3.088839  z = -0.616438 angstrom
           Maximum rank =  0   Radius =  0.325 angstrom
                   Q00  =   0.099787

C          x = -2.484801  y = -0.181086  z = -1.907178 angstrom
           Maximum rank =  0   Radius =  0.650 angstrom
                   Q00  =  -0.079772

C          x = -2.300801  y =  1.314914  z = -2.162178 angstrom
           Maximum rank =  0   Radius =  0.650 angstrom
                   Q00  =  -0.240233

C          x = -1.396801  y = -1.006086  z = -2.596178 angstrom
           Maximum rank =  0   Radius =  0.650 angstrom
                   Q00  =  -0.244939

H          x = -2.444801  y = -0.357086  z = -0.832178 angstrom
           Maximum rank =  0   Radius =  0.325 angstrom
                   Q00  =   0.043945

H          x = -3.457801  y = -0.491086  z = -2.277178 angstrom
           Maximum rank =  0   Radius =  0.325 angstrom
                   Q00  =   0.043003

H          x = -1.295801  y =  1.569914  z = -1.824178 angstrom
           Maximum rank =  0   Radius =  0.325 angstrom
                   Q00  =   0.079309

H          x = -1.464801  y = -0.867086  z = -3.677178 angstrom
           Maximum rank =  0   Radius =  0.325 angstrom
                   Q00  =   0.073093

H          x = -0.428801  y = -0.641086  z = -2.256178 angstrom
           Maximum rank =  0   Radius =  0.325 angstrom
                   Q00  =   0.084321

H          x = -3.040711  y =  1.920566  z = -1.618373 angstrom
           Maximum rank =  0   Radius =  0.325 angstrom
                   Q00  =   0.080707

H          x = -2.369551  y =  1.528410  z = -3.239068 angstrom
           Maximum rank =  0   Radius =  0.325 angstrom
                   Q00  =   0.075737

H          x = -1.437291  y = -2.083293  z = -2.377122 angstrom
           Maximum rank =  0   Radius =  0.325 angstrom
                   Q00  =   0.083476

Total multipoles referred to origin at
           x =   0.000000,  y =    0.000000,  z =    0.000000 angstrom
                   Q00  =  -0.000000

Finished at 12:1:47 on 28 Apr 2020

  DMA results are available in the Python driver through the
	  variable('DMA DISTRIBUTED MULTIPOLES')
  and
	  variable('DMA TOTAL MULTIPOLES')
  commands.

    Psi4 stopped on: Tuesday, 28 April 2020 12:01PM
    Psi4 wall time for execution: 0:03:57.07

*** Psi4 exiting successfully. Buy a developer a beer!
