                               Psi4 1.3.2 release

  ==> Input File <==

--------------------------------------------------------------------------
import numpy as np
set {scf_type pk
basis cc-pvdz
d_convergence 10
gdma_switch   0
gdma_limit    0
gdma_origin   [ 0.0,  0.0,  0.0 ]
}
molecule test {
    units Angstrom
    1 1
    --
    1 1
    C                2.412842675270436    -1.468201969738104    -1.116171955380651
    C                0.367842675270436    -2.097201969738104    -2.281171955380652
    N               -0.212157324729564    -0.967201969738104    -1.896171955380651
    N                1.620842675270436    -2.370201969738105    -1.927171955380651
    N               -0.300157324729564    -2.963201969738104    -3.023171955380651
    H                0.295842675270436    -0.300201969738104    -1.334171955380651
    H               -1.170157324729564    -0.764201969738105    -2.172171955380651
    H                2.042842675270436    -3.236201969738105    -2.233171955380651
    H                0.133842675270436    -3.823201969738105    -3.321171955380652
    H               -1.265157324729564    -2.762201969738105    -3.289171955380651
    H                2.197842675270436    -0.446201969738104    -1.432171955380651
    H                3.460842675270436    -1.679201969738104    -1.293171955380651
    H                2.194742675270436    -1.568051969738104    -0.042641955380651
    C               -2.477157324729565    -0.745201969738104     2.319828044619348
    C               -0.855157324729564     0.926798030261896     1.075828044619349
    C               -1.181157324729564    -0.002201969738104     2.135828044619349
    C                0.437842675270436     1.444798030261896     1.347828044619349
    C               -0.122157324729564    -0.013201969738104     2.981828044619349
    C               -1.511157324729564     1.384798030261896    -0.085171955380651
    C               -0.866157324729564     2.324798030261896    -0.914171955380651
    C                0.414842675270436     2.816798030261895    -0.613171955380651
    C                1.075842675270436     2.377798030261896     0.517828044619349
    N                0.847842675270436     0.853798030261896     2.520828044619349
    H               -2.500157324729564     1.028798030261896    -0.361171955380651
    H               -1.379157324729564     2.665798030261895    -1.802171955380651
    H                0.885842675270436     3.538798030261895    -1.265171955380651
    H               -2.247157324729564    -1.677201969738104     2.831828044619349
    H               -2.858157324729564    -0.976201969738104     1.319828044619349
    H               -0.139157324729564    -0.644201969738104     3.863828044619348
    H                1.731842675270436     1.038798030261896     2.980828044619349
    H                2.063842675270435     2.732798030261895     0.781828044619349
    H               -3.200757324729564    -0.197881969738104     2.941788044619349

}
e, wfn = energy('scf', return_wfn=True)
gdma(wfn)
dmavals = variable('DMA DISTRIBUTED MULTIPOLES')
charges = np.array(dmavals)
print(charges)
np.save('SSI-156ARG-200TRP-2-dimer.npy', np.array(charges))--------------------------------------------------------------------------

*** tstart() called on ds3
*** at Mon Apr 27 17:32:47 2020

   => Loading Basis Set <=

    Name: CC-PVDZ
    Role: ORBITAL
    Keyword: BASIS
    atoms 1-2, 14-22  entry C          line   138 file /theoryfs2/ds/metcalf/miniconda2/envs/tf2gpu/share/psi4/basis/cc-pvdz.gbs
    atoms 3-5, 23     entry N          line   168 file /theoryfs2/ds/metcalf/miniconda2/envs/tf2gpu/share/psi4/basis/cc-pvdz.gbs
    atoms 6-13, 24-32 entry H          line    22 file /theoryfs2/ds/metcalf/miniconda2/envs/tf2gpu/share/psi4/basis/cc-pvdz.gbs

         ---------------------------------------------------------
                                   SCF
               by Justin Turney, Rob Parrish, Andy Simmonett
                          and Daniel G. A. Smith
                              RHF Reference
                        1 Threads,    500 MiB Core
         ---------------------------------------------------------

  ==> Geometry <==

    Molecular point group: c1
    Full point group: C1

    Geometry (in Angstrom), charge = 1, multiplicity = 1:

       Center              X                  Y                   Z               Mass
    ------------   -----------------  -----------------  -----------------  -----------------
         C            2.412842675270    -1.468201969738    -1.116171955381    12.000000000000
         C            0.367842675270    -2.097201969738    -2.281171955381    12.000000000000
         N           -0.212157324730    -0.967201969738    -1.896171955381    14.003074004430
         N            1.620842675270    -2.370201969738    -1.927171955381    14.003074004430
         N           -0.300157324730    -2.963201969738    -3.023171955381    14.003074004430
         H            0.295842675270    -0.300201969738    -1.334171955381     1.007825032230
         H           -1.170157324730    -0.764201969738    -2.172171955381     1.007825032230
         H            2.042842675270    -3.236201969738    -2.233171955381     1.007825032230
         H            0.133842675270    -3.823201969738    -3.321171955381     1.007825032230
         H           -1.265157324730    -2.762201969738    -3.289171955381     1.007825032230
         H            2.197842675270    -0.446201969738    -1.432171955381     1.007825032230
         H            3.460842675270    -1.679201969738    -1.293171955381     1.007825032230
         H            2.194742675270    -1.568051969738    -0.042641955381     1.007825032230
         C           -2.477157324730    -0.745201969738     2.319828044619    12.000000000000
         C           -0.855157324730     0.926798030262     1.075828044619    12.000000000000
         C           -1.181157324730    -0.002201969738     2.135828044619    12.000000000000
         C            0.437842675270     1.444798030262     1.347828044619    12.000000000000
         C           -0.122157324730    -0.013201969738     2.981828044619    12.000000000000
         C           -1.511157324730     1.384798030262    -0.085171955381    12.000000000000
         C           -0.866157324730     2.324798030262    -0.914171955381    12.000000000000
         C            0.414842675270     2.816798030262    -0.613171955381    12.000000000000
         C            1.075842675270     2.377798030262     0.517828044619    12.000000000000
         N            0.847842675270     0.853798030262     2.520828044619    14.003074004430
         H           -2.500157324730     1.028798030262    -0.361171955381     1.007825032230
         H           -1.379157324730     2.665798030262    -1.802171955381     1.007825032230
         H            0.885842675270     3.538798030262    -1.265171955381     1.007825032230
         H           -2.247157324730    -1.677201969738     2.831828044619     1.007825032230
         H           -2.858157324730    -0.976201969738     1.319828044619     1.007825032230
         H           -0.139157324730    -0.644201969738     3.863828044619     1.007825032230
         H            1.731842675270     1.038798030262     2.980828044619     1.007825032230
         H            2.063842675270     2.732798030262     0.781828044619     1.007825032230
         H           -3.200757324730    -0.197881969738     2.941788044619     1.007825032230

  Running in c1 symmetry.

  Rotational constants: A =      0.02413  B =      0.01235  C =      0.01135 [cm^-1]
  Rotational constants: A =    723.45519  B =    370.32008  C =    340.13702 [MHz]
  Nuclear repulsion =  976.376024308130923

  Charge       = 1
  Multiplicity = 1
  Electrons    = 110
  Nalpha       = 55
  Nbeta        = 55

  ==> Algorithm <==

  SCF Algorithm Type is PK.
  DIIS enabled.
  MOM disabled.
  Fractional occupation disabled.
  Guess Type is SAD.
  Energy threshold   = 1.00e-06
  Density threshold  = 1.00e-10
  Integral threshold = 0.00e+00

  ==> Primary Basis <==

  Basis Set: CC-PVDZ
    Blend: CC-PVDZ
    Number of shells: 141
    Number of basis function: 295
    Number of Cartesian functions: 310
    Spherical Harmonics?: true
    Max angular momentum: 2

  ==> Pre-Iterations <==

   -------------------------------------------------------
    Irrep   Nso     Nmo     Nalpha   Nbeta   Ndocc  Nsocc
   -------------------------------------------------------
     A        295     295       0       0       0       0
   -------------------------------------------------------
    Total     295     295      55      55      55       0
   -------------------------------------------------------

  ==> Integral Setup <==

  Using integral reordering PK algorithm.
  Sizing the integral batches needed.
  Building batch lookup table.
   Calculation information:
      Number of atoms:                  32
      Number of AO shells:             141
      Number of primitives:            415
      Number of atomic orbitals:       310
      Number of basis functions:       295

      Integral cutoff                 1.00e-12
      Number of threads:                 1

	Batch   1 pq = [       0,    9405] index = [             0,44231715] size =     44231715
	Batch   2 pq = [    9405,   13301] index = [      44231715,88464951] size =     44233236
	Batch   3 pq = [   13301,   16290] index = [      88464951,132690195] size =     44225244
	Batch   4 pq = [   16290,   18810] index = [     132690195,176917455] size =     44227260
	Batch   5 pq = [   18810,   21030] index = [     176917455,221140965] size =     44223510
	Batch   6 pq = [   21030,   23037] index = [     221140965,265363203] size =     44222238
	Batch   7 pq = [   23037,   24883] index = [     265363203,309594286] size =     44231083
	Batch   8 pq = [   24883,   26601] index = [     309594286,353819901] size =     44225615
	Batch   9 pq = [   26601,   28214] index = [     353819901,398029005] size =     44209104
	Batch  10 pq = [   28214,   29740] index = [     398029005,442248670] size =     44219665
	Batch  11 pq = [   29740,   31191] index = [     442248670,486454836] size =     44206166
	Batch  12 pq = [   31191,   32578] index = [     486454836,530679331] size =     44224495
	Batch  13 pq = [   32578,   33908] index = [     530679331,574893186] size =     44213855
	Batch  14 pq = [   33908,   35188] index = [     574893186,619115266] size =     44222080
	Batch  15 pq = [   35188,   36423] index = [     619115266,663335676] size =     44220410
	Batch  16 pq = [   36423,   37617] index = [     663335676,707538153] size =     44202477
	Batch  17 pq = [   37617,   38775] index = [     707538153,751769700] size =     44231547
	Batch  18 pq = [   38775,   39899] index = [     751769700,795985050] size =     44215350
	Batch  19 pq = [   39899,   40992] index = [     795985050,840192528] size =     44207478
	Batch  20 pq = [   40992,   42057] index = [     840192528,884416653] size =     44224125
	Batch  21 pq = [   42057,   43095] index = [     884416653,928611060] size =     44194407
	Batch  22 pq = [   43095,   43660] index = [     928611060,953119630] size =     24508570
  Task number: 87
  Buffer size: 11059200
  Buffer per thread: 2
  We computed 54694218 shell quartets total.
  Whereas there are 50115066 unique shell quartets.
     9.14 percent of shell quartets recomputed by reordering.

  ==> DiskJK: Disk-Based J/K Matrices <==

    J tasked:                  Yes
    K tasked:                  Yes
    wK tasked:                  No
    Memory [MiB]:              375
    Schwarz Cutoff:          1E-12

    OpenMP threads:              1

  Minimum eigenvalue in the overlap matrix is 2.4980791035E-04.
  Using Symmetric Orthogonalization.

  SCF Guess: Superposition of Atomic Densities via on-the-fly atomic UHF.

  ==> Iterations <==

                        Total Energy        Delta E     RMS |[F,P]|

   @RHF iter SAD:  -643.71988343376904   -6.43720e+02   0.00000e+00
   @RHF iter   1:  -643.81585070599431   -9.59673e-02   2.34420e-03 DIIS
   @RHF iter   2:  -644.08065769400127   -2.64807e-01   9.62392e-04 DIIS
   @RHF iter   3:  -644.12104434234993   -4.03866e-02   2.76612e-04 DIIS
   @RHF iter   4:  -644.12543078933913   -4.38645e-03   1.11442e-04 DIIS
   @RHF iter   5:  -644.12602835255598   -5.97563e-04   1.95968e-05 DIIS
   @RHF iter   6:  -644.12606466732279   -3.63148e-05   8.38832e-06 DIIS
   @RHF iter   7:  -644.12607074472078   -6.07740e-06   2.88638e-06 DIIS
   @RHF iter   8:  -644.12607198765772   -1.24294e-06   1.05454e-06 DIIS
   @RHF iter   9:  -644.12607215803303   -1.70375e-07   4.93954e-07 DIIS
   @RHF iter  10:  -644.12607220427208   -4.62391e-08   2.14764e-07 DIIS
   @RHF iter  11:  -644.12607221605094   -1.17789e-08   8.56428e-08 DIIS
   @RHF iter  12:  -644.12607221804763   -1.99668e-09   3.91891e-08 DIIS
   @RHF iter  13:  -644.12607221832388   -2.76259e-10   1.42718e-08 DIIS
   @RHF iter  14:  -644.12607221836731   -4.34284e-11   5.62404e-09 DIIS
   @RHF iter  15:  -644.12607221836515    2.16005e-12   2.00808e-09 DIIS
   @RHF iter  16:  -644.12607221836333    1.81899e-12   8.29624e-10 DIIS
   @RHF iter  17:  -644.12607221836993   -6.59384e-12   4.42737e-10 DIIS
   @RHF iter  18:  -644.12607221837436   -4.43379e-12   2.07746e-10 DIIS
   @RHF iter  19:  -644.12607221835697    1.73941e-11   8.40797e-11 DIIS
  Energy and wave function converged.

  ==> Post-Iterations <==

    Orbital Energies [Eh]
    ---------------------

    Doubly Occupied:

       1A    -15.777295     2A    -15.772982     3A    -15.769149
       4A    -15.702095     5A    -11.575690     6A    -11.425305
       7A    -11.370603     8A    -11.361835     9A    -11.342427
      10A    -11.338308    11A    -11.335587    12A    -11.331255
      13A    -11.329069    14A    -11.319080    15A    -11.314734
      16A     -1.528738    17A     -1.392585    18A     -1.390304
      19A     -1.372587    20A     -1.231693    21A     -1.171922
      22A     -1.127959    23A     -1.098621    24A     -1.091693
      25A     -1.026513    26A     -1.021998    27A     -0.964417
      28A     -0.941131    29A     -0.923122    30A     -0.906362
      31A     -0.850346    32A     -0.845802    33A     -0.838997
      34A     -0.818904    35A     -0.811611    36A     -0.780847
      37A     -0.766579    38A     -0.742772    39A     -0.728065
      40A     -0.713218    41A     -0.704050    42A     -0.692741
      43A     -0.689572    44A     -0.665869    45A     -0.646644
      46A     -0.632799    47A     -0.625866    48A     -0.600220
      49A     -0.596350    50A     -0.571785    51A     -0.571381
      52A     -0.566703    53A     -0.475807    54A     -0.400868
      55A     -0.379438

    Virtual:

      56A      0.000855    57A      0.016634    58A      0.036344
      59A      0.038627    60A      0.048721    61A      0.062335
      62A      0.070439    63A      0.089017    64A      0.095762
      65A      0.106906    66A      0.117106    67A      0.124990
      68A      0.130953    69A      0.135670    70A      0.141275
      71A      0.156659    72A      0.167121    73A      0.171996
      74A      0.184034    75A      0.201712    76A      0.209140
      77A      0.210264    78A      0.274032    79A      0.275140
      80A      0.287621    81A      0.305385    82A      0.318907
      83A      0.332103    84A      0.344733    85A      0.349677
      86A      0.369896    87A      0.377441    88A      0.402439
      89A      0.414078    90A      0.455974    91A      0.462464
      92A      0.498127    93A      0.514564    94A      0.526992
      95A      0.530818    96A      0.534502    97A      0.539999
      98A      0.544748    99A      0.552570   100A      0.559717
     101A      0.564297   102A      0.567297   103A      0.585199
     104A      0.609791   105A      0.610794   106A      0.622554
     107A      0.630161   108A      0.634520   109A      0.637017
     110A      0.650900   111A      0.655121   112A      0.676371
     113A      0.679530   114A      0.691783   115A      0.703583
     116A      0.708981   117A      0.727333   118A      0.738703
     119A      0.742630   120A      0.753226   121A      0.770074
     122A      0.774710   123A      0.778137   124A      0.787500
     125A      0.791478   126A      0.793016   127A      0.802606
     128A      0.807205   129A      0.817216   130A      0.829509
     131A      0.841649   132A      0.851540   133A      0.853841
     134A      0.862598   135A      0.867491   136A      0.874422
     137A      0.882743   138A      0.904012   139A      0.916647
     140A      0.919986   141A      0.935158   142A      0.958416
     143A      0.973660   144A      0.983814   145A      0.997341
     146A      1.024788   147A      1.033638   148A      1.034315
     149A      1.048623   150A      1.065107   151A      1.069191
     152A      1.075537   153A      1.105016   154A      1.124039
     155A      1.131967   156A      1.140797   157A      1.142670
     158A      1.152827   159A      1.167355   160A      1.171215
     161A      1.182249   162A      1.186270   163A      1.192526
     164A      1.205176   165A      1.213927   166A      1.224069
     167A      1.229603   168A      1.247158   169A      1.257577
     170A      1.270390   171A      1.299727   172A      1.317905
     173A      1.339963   174A      1.409314   175A      1.434481
     176A      1.445138   177A      1.463053   178A      1.476167
     179A      1.503332   180A      1.507022   181A      1.514153
     182A      1.535489   183A      1.537939   184A      1.545492
     185A      1.553691   186A      1.582752   187A      1.594145
     188A      1.603942   189A      1.628797   190A      1.646223
     191A      1.657649   192A      1.666872   193A      1.677516
     194A      1.687342   195A      1.701833   196A      1.721488
     197A      1.729146   198A      1.734238   199A      1.738568
     200A      1.746322   201A      1.767509   202A      1.772771
     203A      1.786193   204A      1.789598   205A      1.794434
     206A      1.807961   207A      1.813089   208A      1.816604
     209A      1.825681   210A      1.833966   211A      1.841464
     212A      1.848253   213A      1.860227   214A      1.867906
     215A      1.873991   216A      1.893155   217A      1.907580
     218A      1.914576   219A      1.919149   220A      1.944419
     221A      1.970109   222A      1.982322   223A      1.987917
     224A      1.996250   225A      2.007172   226A      2.008227
     227A      2.020616   228A      2.030911   229A      2.038185
     230A      2.048350   231A      2.061563   232A      2.064671
     233A      2.075323   234A      2.124867   235A      2.140750
     236A      2.163376   237A      2.163554   238A      2.170340
     239A      2.198643   240A      2.202876   241A      2.207875
     242A      2.237142   243A      2.248097   244A      2.250079
     245A      2.268591   246A      2.295365   247A      2.300395
     248A      2.318941   249A      2.327027   250A      2.340888
     251A      2.349775   252A      2.358747   253A      2.386947
     254A      2.433497   255A      2.460036   256A      2.474960
     257A      2.475589   258A      2.488901   259A      2.528809
     260A      2.549298   261A      2.570797   262A      2.583799
     263A      2.616301   264A      2.618333   265A      2.622972
     266A      2.649949   267A      2.669174   268A      2.674541
     269A      2.680106   270A      2.691336   271A      2.737064
     272A      2.738735   273A      2.753602   274A      2.765421
     275A      2.788914   276A      2.791558   277A      2.811098
     278A      2.822232   279A      2.847616   280A      2.860440
     281A      2.898320   282A      2.909369   283A      2.934357
     284A      2.959876   285A      3.001861   286A      3.080947
     287A      3.086584   288A      3.099294   289A      3.156974
     290A      3.187795   291A      3.274379   292A      3.587047
     293A      3.634544   294A      3.645242   295A      3.821287

    Final Occupation by Irrep:
              A
    DOCC [    55 ]

  @RHF Final Energy:  -644.12607221835697

   => Energetics <=

    Nuclear Repulsion Energy =            976.3760243081309227
    One-Electron Energy =               -2797.0596056013587258
    Two-Electron Energy =                1176.5575090748707225
    Total Energy =                       -644.1260722183569669

Computation Completed

Properties will be evaluated at   0.000000,   0.000000,   0.000000 [a0]

Properties computed using the SCF density matrix

  Nuclear Dipole Moment: [e a0]
     X:     0.2265      Y:    -6.6121      Z:    -3.5746

  Electronic Dipole Moment: [e a0]
     X:     1.1095      Y:     2.9867      Z:     0.6182

  Dipole Moment: [e a0]
     X:     1.3360      Y:    -3.6254      Z:    -2.9564     Total:     4.8650

  Dipole Moment: [D]
     X:     3.3958      Y:    -9.2148      Z:    -7.5143     Total:    12.3656

*** tstop() called on ds3 at Mon Apr 27 17:45:00 2020
Module time:
	user time   =     466.78 seconds =       7.78 minutes
	system time =     165.64 seconds =       2.76 minutes
	total time  =        733 seconds =      12.22 minutes
Total time:
	user time   =     466.78 seconds =       7.78 minutes
	system time =     165.64 seconds =       2.76 minutes
	total time  =        733 seconds =      12.22 minutes
                                     G D M A

                                 by Anthony Stone

                           version 2.2.06, 22 June 2011

               Distributed Multipoles from Gaussian wavefunctions

Starting at 17:45:0 on 27 Apr 2020

Using SCF density matrix from file ./SSI/SSI-156ARG-200TRP-2-dimer.test.30265.fchk

                         Distributed Multipole Analysis

Standard DMA

Positions and radii in angstrom
Multipole moments in atomic units, ea_0^k for rank k

C          x =  2.412843  y = -1.468202  z = -1.116172 angstrom
           Maximum rank =  0   Radius =  0.650 angstrom
                   Q00  =  -0.124546

C          x =  0.367843  y = -2.097202  z = -2.281172 angstrom
           Maximum rank =  0   Radius =  0.650 angstrom
                   Q00  =   1.076500

N          x = -0.212157  y = -0.967202  z = -1.896172 angstrom
           Maximum rank =  0   Radius =  0.650 angstrom
                   Q00  =  -0.582849

N          x =  1.620843  y = -2.370202  z = -1.927172 angstrom
           Maximum rank =  0   Radius =  0.650 angstrom
                   Q00  =  -0.483254

N          x = -0.300157  y = -2.963202  z = -3.023172 angstrom
           Maximum rank =  0   Radius =  0.650 angstrom
                   Q00  =  -0.597884

H          x =  0.295843  y = -0.300202  z = -1.334172 angstrom
           Maximum rank =  0   Radius =  0.325 angstrom
                   Q00  =   0.298065

H          x = -1.170157  y = -0.764202  z = -2.172172 angstrom
           Maximum rank =  0   Radius =  0.325 angstrom
                   Q00  =   0.268189

H          x =  2.042843  y = -3.236202  z = -2.233172 angstrom
           Maximum rank =  0   Radius =  0.325 angstrom
                   Q00  =   0.235061

H          x =  0.133843  y = -3.823202  z = -3.321172 angstrom
           Maximum rank =  0   Radius =  0.325 angstrom
                   Q00  =   0.264569

H          x = -1.265157  y = -2.762202  z = -3.289172 angstrom
           Maximum rank =  0   Radius =  0.325 angstrom
                   Q00  =   0.266620

H          x =  2.197843  y = -0.446202  z = -1.432172 angstrom
           Maximum rank =  0   Radius =  0.325 angstrom
                   Q00  =   0.106459

H          x =  3.460843  y = -1.679202  z = -1.293172 angstrom
           Maximum rank =  0   Radius =  0.325 angstrom
                   Q00  =   0.156052

H          x =  2.194743  y = -1.568052  z = -0.042642 angstrom
           Maximum rank =  0   Radius =  0.325 angstrom
                   Q00  =   0.123508

C          x = -2.477157  y = -0.745202  z =  2.319828 angstrom
           Maximum rank =  0   Radius =  0.650 angstrom
                   Q00  =  -0.192793

C          x = -0.855157  y =  0.926798  z =  1.075828 angstrom
           Maximum rank =  0   Radius =  0.650 angstrom
                   Q00  =  -0.069377

C          x = -1.181157  y = -0.002202  z =  2.135828 angstrom
           Maximum rank =  0   Radius =  0.650 angstrom
                   Q00  =  -0.142178

C          x =  0.437843  y =  1.444798  z =  1.347828 angstrom
           Maximum rank =  0   Radius =  0.650 angstrom
                   Q00  =   0.247998

C          x = -0.122157  y = -0.013202  z =  2.981828 angstrom
           Maximum rank =  0   Radius =  0.650 angstrom
                   Q00  =   0.097163

C          x = -1.511157  y =  1.384798  z = -0.085172 angstrom
           Maximum rank =  0   Radius =  0.650 angstrom
                   Q00  =  -0.138159

C          x = -0.866157  y =  2.324798  z = -0.914172 angstrom
           Maximum rank =  0   Radius =  0.650 angstrom
                   Q00  =  -0.073433

C          x =  0.414843  y =  2.816798  z = -0.613172 angstrom
           Maximum rank =  0   Radius =  0.650 angstrom
                   Q00  =  -0.081773

C          x =  1.075843  y =  2.377798  z =  0.517828 angstrom
           Maximum rank =  0   Radius =  0.650 angstrom
                   Q00  =  -0.120244

N          x =  0.847843  y =  0.853798  z =  2.520828 angstrom
           Maximum rank =  0   Radius =  0.650 angstrom
                   Q00  =  -0.516043

H          x = -2.500157  y =  1.028798  z = -0.361172 angstrom
           Maximum rank =  0   Radius =  0.325 angstrom
                   Q00  =   0.073010

H          x = -1.379157  y =  2.665798  z = -1.802172 angstrom
           Maximum rank =  0   Radius =  0.325 angstrom
                   Q00  =   0.072997

H          x =  0.885843  y =  3.538798  z = -1.265172 angstrom
           Maximum rank =  0   Radius =  0.325 angstrom
                   Q00  =   0.085393

H          x = -2.247157  y = -1.677202  z =  2.831828 angstrom
           Maximum rank =  0   Radius =  0.325 angstrom
                   Q00  =   0.107322

H          x = -2.858157  y = -0.976202  z =  1.319828 angstrom
           Maximum rank =  0   Radius =  0.325 angstrom
                   Q00  =   0.085576

H          x = -0.139157  y = -0.644202  z =  3.863828 angstrom
           Maximum rank =  0   Radius =  0.325 angstrom
                   Q00  =   0.119045

H          x =  1.731843  y =  1.038798  z =  2.980828 angstrom
           Maximum rank =  0   Radius =  0.325 angstrom
                   Q00  =   0.228050

H          x =  2.063843  y =  2.732798  z =  0.781828 angstrom
           Maximum rank =  0   Radius =  0.325 angstrom
                   Q00  =   0.089105

H          x = -3.200757  y = -0.197882  z =  2.941788 angstrom
           Maximum rank =  0   Radius =  0.325 angstrom
                   Q00  =   0.121851

Total multipoles referred to origin at
           x =   0.000000,  y =    0.000000,  z =    0.000000 angstrom
                   Q00  =   1.000000

Finished at 17:45:0 on 27 Apr 2020

  DMA results are available in the Python driver through the
	  variable('DMA DISTRIBUTED MULTIPOLES')
  and
	  variable('DMA TOTAL MULTIPOLES')
  commands.

    Psi4 stopped on: Monday, 27 April 2020 05:45PM
    Psi4 wall time for execution: 0:12:13.07

*** Psi4 exiting successfully. Buy a developer a beer!
