                               Psi4 1.3.2 release

  ==> Input File <==

--------------------------------------------------------------------------
import numpy as np
set {scf_type pk
basis cc-pvdz
d_convergence 10
gdma_switch   0
gdma_limit    0
gdma_origin   [ 0.0,  0.0,  0.0 ]
}
molecule test {
    units Angstrom
    0 1
    --
    0 1
    C               -2.304466735280719     2.205467574643322    -0.342137270055235
    C               -1.605466735280719     3.149467574643322    -1.347137270055235
    H               -2.701466735280719     1.325467574643322    -0.847137270055235
    H               -1.576466735280719     1.859467574643322     0.386862729944765
    H               -3.109466735280719     2.731467574643322     0.170862729944765
    H               -0.782466735280719     2.588467574643322    -1.782137270055235
    H               -2.286091935280719     3.456177574643322    -2.155017270055235
    H               -1.190733735280719     4.031137574643322    -0.836587270055235
    C                2.272533264719281     1.600467574643322     0.968862729944765
    C                0.678533264719281    -0.250532425356678     0.021862729944765
    C                1.348533264719281     0.427467574643322     1.099862729944765
    C               -0.038466735280719    -1.336532425356677     0.591862729944765
    C                1.017533264719281    -0.252532425356678     2.245862729944765
    C                0.615533264719281    -0.058532425356678    -1.370137270055235
    C               -0.146466735280719    -0.938532425356678    -2.138137270055235
    C               -0.848466735280719    -1.995532425356678    -1.540137270055235
    C               -0.791466735280719    -2.209532425356677    -0.175137270055235
    N                0.178533264719281    -1.299532425356678     1.942862729944765
    H                1.134533264719281     0.767467574643322    -1.826137270055235
    H               -0.206466735280719    -0.799532425356678    -3.210137270055235
    H               -1.428466735280719    -2.665532425356678    -2.163137270055235
    H                1.849533264719281     2.457467574643322     1.495862729944765
    H                2.348533264719280     1.860467574643322    -0.086137270055235
    H                1.349533264719281     0.005467574643322     3.242862729944765
    H               -0.222466735280719    -1.958532425356678     2.615862729944765
    H               -1.295466735280719    -3.049532425356678     0.276862729944765
    H                3.280867264719281     1.384297574643322     1.351656729944765

}
e, wfn = energy('scf', return_wfn=True)
gdma(wfn)
dmavals = variable('DMA DISTRIBUTED MULTIPOLES')
charges = np.array(dmavals)
print(charges)
np.save('SSI-036VAL-070TRP-1-dimer.npy', np.array(charges))--------------------------------------------------------------------------

*** tstart() called on ds3
*** at Sun Apr 26 19:50:11 2020

   => Loading Basis Set <=

    Name: CC-PVDZ
    Role: ORBITAL
    Keyword: BASIS
    atoms 1-2, 9-17  entry C          line   138 file /theoryfs2/ds/metcalf/miniconda2/envs/tf2gpu/share/psi4/basis/cc-pvdz.gbs
    atoms 3-8, 19-27 entry H          line    22 file /theoryfs2/ds/metcalf/miniconda2/envs/tf2gpu/share/psi4/basis/cc-pvdz.gbs
    atoms 18         entry N          line   168 file /theoryfs2/ds/metcalf/miniconda2/envs/tf2gpu/share/psi4/basis/cc-pvdz.gbs

         ---------------------------------------------------------
                                   SCF
               by Justin Turney, Rob Parrish, Andy Simmonett
                          and Daniel G. A. Smith
                              RHF Reference
                        1 Threads,    500 MiB Core
         ---------------------------------------------------------

  ==> Geometry <==

    Molecular point group: c1
    Full point group: C1

    Geometry (in Angstrom), charge = 0, multiplicity = 1:

       Center              X                  Y                   Z               Mass
    ------------   -----------------  -----------------  -----------------  -----------------
         C           -2.304466735281     2.205467574643    -0.342137270055    12.000000000000
         C           -1.605466735281     3.149467574643    -1.347137270055    12.000000000000
         H           -2.701466735281     1.325467574643    -0.847137270055     1.007825032230
         H           -1.576466735281     1.859467574643     0.386862729945     1.007825032230
         H           -3.109466735281     2.731467574643     0.170862729945     1.007825032230
         H           -0.782466735281     2.588467574643    -1.782137270055     1.007825032230
         H           -2.286091935281     3.456177574643    -2.155017270055     1.007825032230
         H           -1.190733735281     4.031137574643    -0.836587270055     1.007825032230
         C            2.272533264719     1.600467574643     0.968862729945    12.000000000000
         C            0.678533264719    -0.250532425357     0.021862729945    12.000000000000
         C            1.348533264719     0.427467574643     1.099862729945    12.000000000000
         C           -0.038466735281    -1.336532425357     0.591862729945    12.000000000000
         C            1.017533264719    -0.252532425357     2.245862729945    12.000000000000
         C            0.615533264719    -0.058532425357    -1.370137270055    12.000000000000
         C           -0.146466735281    -0.938532425357    -2.138137270055    12.000000000000
         C           -0.848466735281    -1.995532425357    -1.540137270055    12.000000000000
         C           -0.791466735281    -2.209532425357    -0.175137270055    12.000000000000
         N            0.178533264719    -1.299532425357     1.942862729945    14.003074004430
         H            1.134533264719     0.767467574643    -1.826137270055     1.007825032230
         H           -0.206466735281    -0.799532425357    -3.210137270055     1.007825032230
         H           -1.428466735281    -2.665532425357    -2.163137270055     1.007825032230
         H            1.849533264719     2.457467574643     1.495862729945     1.007825032230
         H            2.348533264719     1.860467574643    -0.086137270055     1.007825032230
         H            1.349533264719     0.005467574643     3.242862729945     1.007825032230
         H           -0.222466735281    -1.958532425357     2.615862729945     1.007825032230
         H           -1.295466735281    -3.049532425357     0.276862729945     1.007825032230
         H            3.280867264719     1.384297574643     1.351656729945     1.007825032230

  Running in c1 symmetry.

  Rotational constants: A =      0.03073  B =      0.02590  C =      0.01876 [cm^-1]
  Rotational constants: A =    921.28363  B =    776.35955  C =    562.51392 [MHz]
  Nuclear repulsion =  668.888903112688695

  Charge       = 0
  Multiplicity = 1
  Electrons    = 88
  Nalpha       = 44
  Nbeta        = 44

  ==> Algorithm <==

  SCF Algorithm Type is PK.
  DIIS enabled.
  MOM disabled.
  Fractional occupation disabled.
  Guess Type is SAD.
  Energy threshold   = 1.00e-06
  Density threshold  = 1.00e-10
  Integral threshold = 0.00e+00

  ==> Primary Basis <==

  Basis Set: CC-PVDZ
    Blend: CC-PVDZ
    Number of shells: 117
    Number of basis function: 243
    Number of Cartesian functions: 255
    Spherical Harmonics?: true
    Max angular momentum: 2

  ==> Pre-Iterations <==

   -------------------------------------------------------
    Irrep   Nso     Nmo     Nalpha   Nbeta   Ndocc  Nsocc
   -------------------------------------------------------
     A        243     243       0       0       0       0
   -------------------------------------------------------
    Total     243     243      44      44      44       0
   -------------------------------------------------------

  ==> Integral Setup <==

  Using integral reordering PK algorithm.
  Sizing the integral batches needed.
  Building batch lookup table.
   Calculation information:
      Number of atoms:                  27
      Number of AO shells:             117
      Number of primitives:            339
      Number of atomic orbitals:       255
      Number of basis functions:       243

      Integral cutoff                 1.00e-12
      Number of threads:                 1

	Batch   1 pq = [       0,    9405] index = [             0,44231715] size =     44231715
	Batch   2 pq = [    9405,   13301] index = [      44231715,88464951] size =     44233236
	Batch   3 pq = [   13301,   16290] index = [      88464951,132690195] size =     44225244
	Batch   4 pq = [   16290,   18810] index = [     132690195,176917455] size =     44227260
	Batch   5 pq = [   18810,   21030] index = [     176917455,221140965] size =     44223510
	Batch   6 pq = [   21030,   23037] index = [     221140965,265363203] size =     44222238
	Batch   7 pq = [   23037,   24883] index = [     265363203,309594286] size =     44231083
	Batch   8 pq = [   24883,   26601] index = [     309594286,353819901] size =     44225615
	Batch   9 pq = [   26601,   28214] index = [     353819901,398029005] size =     44209104
	Batch  10 pq = [   28214,   29646] index = [     398029005,439457481] size =     41428476
  Task number: 40
  Buffer size: 11059200
  Buffer per thread: 2
  We computed 25738430 shell quartets total.
  Whereas there are 23829156 unique shell quartets.
     8.01 percent of shell quartets recomputed by reordering.

  ==> DiskJK: Disk-Based J/K Matrices <==

    J tasked:                  Yes
    K tasked:                  Yes
    wK tasked:                  No
    Memory [MiB]:              375
    Schwarz Cutoff:          1E-12

    OpenMP threads:              1

  Minimum eigenvalue in the overlap matrix is 2.3982580037E-04.
  Using Symmetric Orthogonalization.

  SCF Guess: Superposition of Atomic Densities via on-the-fly atomic UHF.

  ==> Iterations <==

                        Total Energy        Delta E     RMS |[F,P]|

   @RHF iter SAD:  -478.97121578464828   -4.78971e+02   0.00000e+00
   @RHF iter   1:  -479.48926131983842   -5.18046e-01   2.59743e-03 DIIS
   @RHF iter   2:  -479.71949082698814   -2.30230e-01   1.16872e-03 DIIS
   @RHF iter   3:  -479.76196606905285   -4.24752e-02   3.09436e-04 DIIS
   @RHF iter   4:  -479.76585544187731   -3.88937e-03   1.42713e-04 DIIS
   @RHF iter   5:  -479.76653805375173   -6.82612e-04   2.01393e-05 DIIS
   @RHF iter   6:  -479.76656743330540   -2.93796e-05   9.40198e-06 DIIS
   @RHF iter   7:  -479.76657356636713   -6.13306e-06   3.90046e-06 DIIS
   @RHF iter   8:  -479.76657533980472   -1.77344e-06   1.56689e-06 DIIS
   @RHF iter   9:  -479.76657570173785   -3.61933e-07   6.94977e-07 DIIS
   @RHF iter  10:  -479.76657577495507   -7.32172e-08   3.19394e-07 DIIS
   @RHF iter  11:  -479.76657579256903   -1.76140e-08   1.20282e-07 DIIS
   @RHF iter  12:  -479.76657579507184   -2.50282e-09   4.11045e-08 DIIS
   @RHF iter  13:  -479.76657579524976   -1.77920e-10   1.26045e-08 DIIS
   @RHF iter  14:  -479.76657579526011   -1.03455e-11   5.31904e-09 DIIS
   @RHF iter  15:  -479.76657579526335   -3.24007e-12   2.26763e-09 DIIS
   @RHF iter  16:  -479.76657579526432   -9.66338e-13   9.74968e-10 DIIS
   @RHF iter  17:  -479.76657579526102    3.29692e-12   4.72598e-10 DIIS
   @RHF iter  18:  -479.76657579526761   -6.59384e-12   1.72678e-10 DIIS
   @RHF iter  19:  -479.76657579526164    5.96856e-12   6.12487e-11 DIIS
  Energy and wave function converged.

  ==> Post-Iterations <==

    Orbital Energies [Eh]
    ---------------------

    Doubly Occupied:

       1A    -15.604133     2A    -11.265858     3A    -11.262963
       4A    -11.231853     5A    -11.230280     6A    -11.228978
       7A    -11.227163     8A    -11.222746     9A    -11.222487
      10A    -11.219969    11A    -11.209431    12A    -11.203189
      13A     -1.294832    14A     -1.128320    15A     -1.072498
      16A     -1.001738    17A     -0.997444    18A     -0.986695
      19A     -0.931895    20A     -0.839914    21A     -0.826178
      22A     -0.802912    23A     -0.753249    24A     -0.720191
      25A     -0.661804    26A     -0.643240    27A     -0.604510
      28A     -0.594437    29A     -0.590762    30A     -0.583496
      31A     -0.581744    32A     -0.569100    33A     -0.554051
      34A     -0.538325    35A     -0.525089    36A     -0.494931
      37A     -0.485455    38A     -0.475457    39A     -0.474981
      40A     -0.470722    41A     -0.461207    42A     -0.373055
      43A     -0.296100    44A     -0.272968

    Virtual:

      45A      0.122617    46A      0.170351    47A      0.174184
      48A      0.179187    49A      0.201549    50A      0.212443
      51A      0.215343    52A      0.225429    53A      0.229591
      54A      0.251118    55A      0.255128    56A      0.267057
      57A      0.269434    58A      0.279248    59A      0.296339
      60A      0.303236    61A      0.318826    62A      0.342884
      63A      0.369374    64A      0.385092    65A      0.402955
      66A      0.409767    67A      0.424758    68A      0.442562
      69A      0.467629    70A      0.478330    71A      0.511977
      72A      0.526287    73A      0.586175    74A      0.595302
      75A      0.600628    76A      0.613868    77A      0.637767
      78A      0.640535    79A      0.650135    80A      0.661029
      81A      0.665376    82A      0.696803    83A      0.701016
      84A      0.709016    85A      0.724820    86A      0.731131
      87A      0.735951    88A      0.741424    89A      0.755674
      90A      0.760052    91A      0.763825    92A      0.773253
      93A      0.786004    94A      0.790604    95A      0.827876
      96A      0.844057    97A      0.853655    98A      0.863293
      99A      0.868966   100A      0.881443   101A      0.886229
     102A      0.888969   103A      0.901398   104A      0.903367
     105A      0.907892   106A      0.918783   107A      0.932238
     108A      0.941268   109A      0.951423   110A      0.959681
     111A      0.967960   112A      0.981912   113A      0.988139
     114A      1.009246   115A      1.015047   116A      1.037431
     117A      1.054452   118A      1.082525   119A      1.090388
     120A      1.128568   121A      1.134173   122A      1.138497
     123A      1.145019   124A      1.146066   125A      1.159627
     126A      1.171434   127A      1.209388   128A      1.215929
     129A      1.233197   130A      1.242200   131A      1.250219
     132A      1.274403   133A      1.284206   134A      1.285973
     135A      1.299644   136A      1.328418   137A      1.333544
     138A      1.360420   139A      1.366223   140A      1.430420
     141A      1.447878   142A      1.476471   143A      1.491232
     144A      1.519295   145A      1.541752   146A      1.556301
     147A      1.591558   148A      1.603125   149A      1.625801
     150A      1.646309   151A      1.660975   152A      1.682244
     153A      1.690679   154A      1.695150   155A      1.720432
     156A      1.742976   157A      1.749166   158A      1.762287
     159A      1.782735   160A      1.815666   161A      1.823255
     162A      1.837193   163A      1.870911   164A      1.879117
     165A      1.882352   166A      1.890637   167A      1.897060
     168A      1.897560   169A      1.905341   170A      1.919562
     171A      1.937300   172A      1.941917   173A      1.954363
     174A      1.957780   175A      1.960559   176A      1.964048
     177A      1.974662   178A      1.989332   179A      1.993958
     180A      2.005569   181A      2.007518   182A      2.010228
     183A      2.021571   184A      2.068379   185A      2.079804
     186A      2.085324   187A      2.088688   188A      2.107336
     189A      2.124751   190A      2.131793   191A      2.135630
     192A      2.138280   193A      2.166935   194A      2.176173
     195A      2.191739   196A      2.227901   197A      2.263311
     198A      2.273607   199A      2.304463   200A      2.309267
     201A      2.313592   202A      2.327196   203A      2.338549
     204A      2.369132   205A      2.401298   206A      2.405724
     207A      2.451526   208A      2.465224   209A      2.468554
     210A      2.477197   211A      2.539699   212A      2.568090
     213A      2.585419   214A      2.588006   215A      2.600044
     216A      2.617095   217A      2.667253   218A      2.682531
     219A      2.740151   220A      2.767822   221A      2.773120
     222A      2.779225   223A      2.782800   224A      2.797742
     225A      2.803403   226A      2.817341   227A      2.842423
     228A      2.859244   229A      2.871701   230A      2.874693
     231A      2.918959   232A      2.961818   233A      2.972679
     234A      2.975533   235A      3.028746   236A      3.061303
     237A      3.071290   238A      3.114506   239A      3.202750
     240A      3.295374   241A      3.372498   242A      3.731383
     243A      3.948286

    Final Occupation by Irrep:
              A
    DOCC [    44 ]

  @RHF Final Energy:  -479.76657579526164

   => Energetics <=

    Nuclear Repulsion Energy =            668.8889031126886948
    One-Electron Energy =               -1975.8382657143738470
    Two-Electron Energy =                 827.1827868064234508
    Total Energy =                       -479.7665757952617014

Computation Completed

Properties will be evaluated at   0.000000,   0.000000,   0.000000 [a0]

Properties computed using the SCF density matrix

  Nuclear Dipole Moment: [e a0]
     X:    -4.5346      Y:    13.1229      Z:    -3.1608

  Electronic Dipole Moment: [e a0]
     X:     4.5603      Y:   -13.4573      Z:     3.9746

  Dipole Moment: [e a0]
     X:     0.0257      Y:    -0.3344      Z:     0.8138     Total:     0.8802

  Dipole Moment: [D]
     X:     0.0653      Y:    -0.8499      Z:     2.0685     Total:     2.2372

*** tstop() called on ds3 at Sun Apr 26 19:54:19 2020
Module time:
	user time   =     188.65 seconds =       3.14 minutes
	system time =      67.24 seconds =       1.12 minutes
	total time  =        248 seconds =       4.13 minutes
Total time:
	user time   =     188.65 seconds =       3.14 minutes
	system time =      67.24 seconds =       1.12 minutes
	total time  =        248 seconds =       4.13 minutes
                                     G D M A

                                 by Anthony Stone

                           version 2.2.06, 22 June 2011

               Distributed Multipoles from Gaussian wavefunctions

Starting at 19:54:19 on 26 Apr 2020

Using SCF density matrix from file ./SSI/SSI-036VAL-070TRP-1-dimer.test.9314.fchk

                         Distributed Multipole Analysis

Standard DMA

Positions and radii in angstrom
Multipole moments in atomic units, ea_0^k for rank k

C          x = -2.304467  y =  2.205468  z = -0.342137 angstrom
           Maximum rank =  0   Radius =  0.650 angstrom
                   Q00  =  -0.242097

C          x = -1.605467  y =  3.149468  z = -1.347137 angstrom
           Maximum rank =  0   Radius =  0.650 angstrom
                   Q00  =  -0.238775

H          x = -2.701467  y =  1.325468  z = -0.847137 angstrom
           Maximum rank =  0   Radius =  0.325 angstrom
                   Q00  =   0.087359

H          x = -1.576467  y =  1.859468  z =  0.386863 angstrom
           Maximum rank =  0   Radius =  0.325 angstrom
                   Q00  =   0.089561

H          x = -3.109467  y =  2.731468  z =  0.170863 angstrom
           Maximum rank =  0   Radius =  0.325 angstrom
                   Q00  =   0.070061

H          x = -0.782467  y =  2.588468  z = -1.782137 angstrom
           Maximum rank =  0   Radius =  0.325 angstrom
                   Q00  =   0.078521

H          x = -2.286092  y =  3.456178  z = -2.155017 angstrom
           Maximum rank =  0   Radius =  0.325 angstrom
                   Q00  =   0.077315

H          x = -1.190734  y =  4.031138  z = -0.836587 angstrom
           Maximum rank =  0   Radius =  0.325 angstrom
                   Q00  =   0.075012

C          x =  2.272533  y =  1.600468  z =  0.968863 angstrom
           Maximum rank =  0   Radius =  0.650 angstrom
                   Q00  =  -0.219750

C          x =  0.678533  y = -0.250532  z =  0.021863 angstrom
           Maximum rank =  0   Radius =  0.650 angstrom
                   Q00  =  -0.044817

C          x =  1.348533  y =  0.427468  z =  1.099863 angstrom
           Maximum rank =  0   Radius =  0.650 angstrom
                   Q00  =  -0.129222

C          x = -0.038467  y = -1.336532  z =  0.591863 angstrom
           Maximum rank =  0   Radius =  0.650 angstrom
                   Q00  =   0.273669

C          x =  1.017533  y = -0.252532  z =  2.245863 angstrom
           Maximum rank =  0   Radius =  0.650 angstrom
                   Q00  =   0.075880

C          x =  0.615533  y = -0.058532  z = -1.370137 angstrom
           Maximum rank =  0   Radius =  0.650 angstrom
                   Q00  =  -0.102063

C          x = -0.146467  y = -0.938532  z = -2.138137 angstrom
           Maximum rank =  0   Radius =  0.650 angstrom
                   Q00  =  -0.096167

C          x = -0.848467  y = -1.995532  z = -1.540137 angstrom
           Maximum rank =  0   Radius =  0.650 angstrom
                   Q00  =  -0.042781

C          x = -0.791467  y = -2.209532  z = -0.175137 angstrom
           Maximum rank =  0   Radius =  0.650 angstrom
                   Q00  =  -0.117413

N          x =  0.178533  y = -1.299532  z =  1.942863 angstrom
           Maximum rank =  0   Radius =  0.650 angstrom
                   Q00  =  -0.499074

H          x =  1.134533  y =  0.767468  z = -1.826137 angstrom
           Maximum rank =  0   Radius =  0.325 angstrom
                   Q00  =   0.071845

H          x = -0.206467  y = -0.799532  z = -3.210137 angstrom
           Maximum rank =  0   Radius =  0.325 angstrom
                   Q00  =   0.061225

H          x = -1.428467  y = -2.665532  z = -2.163137 angstrom
           Maximum rank =  0   Radius =  0.325 angstrom
                   Q00  =   0.064595

H          x =  1.849533  y =  2.457468  z =  1.495863 angstrom
           Maximum rank =  0   Radius =  0.325 angstrom
                   Q00  =   0.102422

H          x =  2.348533  y =  1.860468  z = -0.086137 angstrom
           Maximum rank =  0   Radius =  0.325 angstrom
                   Q00  =   0.109224

H          x =  1.349533  y =  0.005468  z =  3.242863 angstrom
           Maximum rank =  0   Radius =  0.325 angstrom
                   Q00  =   0.099136

H          x = -0.222467  y = -1.958532  z =  2.615863 angstrom
           Maximum rank =  0   Radius =  0.325 angstrom
                   Q00  =   0.219833

H          x = -1.295467  y = -3.049532  z =  0.276863 angstrom
           Maximum rank =  0   Radius =  0.325 angstrom
                   Q00  =   0.072774

H          x =  3.280867  y =  1.384298  z =  1.351657 angstrom
           Maximum rank =  0   Radius =  0.325 angstrom
                   Q00  =   0.103726

Total multipoles referred to origin at
           x =   0.000000,  y =    0.000000,  z =    0.000000 angstrom
                   Q00  =  -0.000000

Finished at 19:54:19 on 26 Apr 2020

  DMA results are available in the Python driver through the
	  variable('DMA DISTRIBUTED MULTIPOLES')
  and
	  variable('DMA TOTAL MULTIPOLES')
  commands.

    Psi4 stopped on: Sunday, 26 April 2020 07:54PM
    Psi4 wall time for execution: 0:04:08.12

*** Psi4 exiting successfully. Buy a developer a beer!
