                               Psi4 1.3.2 release

  ==> Input File <==

--------------------------------------------------------------------------
import numpy as np
set {scf_type pk
basis cc-pvdz
d_convergence 10
gdma_switch   0
gdma_limit    0
gdma_origin   [ 0.0,  0.0,  0.0 ]
}
molecule test {
    units Angstrom
    0 1
    --
    0 1
    C               -1.659998150796368     0.400104913816638     2.730463695565790
    C               -1.120998150796367     1.619104913816638     3.474463695565790
    H               -1.502998150796368     0.520104913816638     1.657463695565790
    H               -1.135998150796367    -0.494895086183362     3.066463695565790
    H               -2.724998150796367     0.275104913816638     2.928463695565791
    H               -1.302998150796367     1.467104913816638     4.538463695565790
    H               -1.632727150796367     2.535056913816637     3.144061695565791
    H               -0.034567150796368     1.735075913816638     3.347108695565790
    C                0.824001849203633     2.450104913816638    -1.861536304434210
    C                1.041001849203632    -0.677895086183362     0.284463695565790
    C                0.198001849203633    -1.564895086183362    -0.397536304434210
    C                1.240001849203632     0.620104913816638    -0.173536304434210
    C                0.601001849203633     1.052104913816638    -1.343536304434210
    C               -0.441998150796368    -1.147895086183362    -1.570536304434210
    C               -0.231998150796368     0.162104913816638    -2.025536304434210
    O               -0.041998150796368    -2.818895086183363     0.110463695565790
    H                1.525001849203633    -1.007895086183362     1.192463695565790
    H                1.889001849203632     1.290104913816638     0.370463695565790
    H               -1.098998150796368    -1.817895086183362    -2.106536304434210
    H               -0.657998150796367    -3.316895086183362    -0.438536304434210
    H                0.900001849203632     2.410104913816637    -2.949536304434210
    H                1.779001849203633     2.818104913816637    -1.484536304434210
    H               -0.717998150796368     0.479104913816638    -2.934536304434210
    H                0.036450849203632     3.161695913816637    -1.572743304434210

}
e, wfn = energy('scf', return_wfn=True)
gdma(wfn)
dmavals = variable('DMA DISTRIBUTED MULTIPOLES')
charges = np.array(dmavals)
print(charges)
np.save('SSI-162VAL-167TYR-1-dimer.npy', np.array(charges))--------------------------------------------------------------------------

*** tstart() called on ds3
*** at Mon Apr 27 23:35:02 2020

   => Loading Basis Set <=

    Name: CC-PVDZ
    Role: ORBITAL
    Keyword: BASIS
    atoms 1-2, 9-15  entry C          line   138 file /theoryfs2/ds/metcalf/miniconda2/envs/tf2gpu/share/psi4/basis/cc-pvdz.gbs
    atoms 3-8, 17-24 entry H          line    22 file /theoryfs2/ds/metcalf/miniconda2/envs/tf2gpu/share/psi4/basis/cc-pvdz.gbs
    atoms 16         entry O          line   198 file /theoryfs2/ds/metcalf/miniconda2/envs/tf2gpu/share/psi4/basis/cc-pvdz.gbs

         ---------------------------------------------------------
                                   SCF
               by Justin Turney, Rob Parrish, Andy Simmonett
                          and Daniel G. A. Smith
                              RHF Reference
                        1 Threads,    500 MiB Core
         ---------------------------------------------------------

  ==> Geometry <==

    Molecular point group: c1
    Full point group: C1

    Geometry (in Angstrom), charge = 0, multiplicity = 1:

       Center              X                  Y                   Z               Mass
    ------------   -----------------  -----------------  -----------------  -----------------
         C           -1.659998150796     0.400104913817     2.730463695566    12.000000000000
         C           -1.120998150796     1.619104913817     3.474463695566    12.000000000000
         H           -1.502998150796     0.520104913817     1.657463695566     1.007825032230
         H           -1.135998150796    -0.494895086183     3.066463695566     1.007825032230
         H           -2.724998150796     0.275104913817     2.928463695566     1.007825032230
         H           -1.302998150796     1.467104913817     4.538463695566     1.007825032230
         H           -1.632727150796     2.535056913817     3.144061695566     1.007825032230
         H           -0.034567150796     1.735075913817     3.347108695566     1.007825032230
         C            0.824001849204     2.450104913817    -1.861536304434    12.000000000000
         C            1.041001849204    -0.677895086183     0.284463695566    12.000000000000
         C            0.198001849204    -1.564895086183    -0.397536304434    12.000000000000
         C            1.240001849204     0.620104913817    -0.173536304434    12.000000000000
         C            0.601001849204     1.052104913817    -1.343536304434    12.000000000000
         C           -0.441998150796    -1.147895086183    -1.570536304434    12.000000000000
         C           -0.231998150796     0.162104913817    -2.025536304434    12.000000000000
         O           -0.041998150796    -2.818895086183     0.110463695566    15.994914619570
         H            1.525001849204    -1.007895086183     1.192463695566     1.007825032230
         H            1.889001849204     1.290104913817     0.370463695566     1.007825032230
         H           -1.098998150796    -1.817895086183    -2.106536304434     1.007825032230
         H           -0.657998150796    -3.316895086183    -0.438536304434     1.007825032230
         H            0.900001849204     2.410104913817    -2.949536304434     1.007825032230
         H            1.779001849204     2.818104913817    -1.484536304434     1.007825032230
         H           -0.717998150796     0.479104913817    -2.934536304434     1.007825032230
         H            0.036450849204     3.161695913817    -1.572743304434     1.007825032230

  Running in c1 symmetry.

  Rotational constants: A =      0.03965  B =      0.02824  C =      0.01924 [cm^-1]
  Rotational constants: A =   1188.65308  B =    846.50160  C =    576.67225 [MHz]
  Nuclear repulsion =  496.570759881333004

  Charge       = 0
  Multiplicity = 1
  Electrons    = 76
  Nalpha       = 38
  Nbeta        = 38

  ==> Algorithm <==

  SCF Algorithm Type is PK.
  DIIS enabled.
  MOM disabled.
  Fractional occupation disabled.
  Guess Type is SAD.
  Energy threshold   = 1.00e-06
  Density threshold  = 1.00e-10
  Integral threshold = 0.00e+00

  ==> Primary Basis <==

  Basis Set: CC-PVDZ
    Blend: CC-PVDZ
    Number of shells: 102
    Number of basis function: 210
    Number of Cartesian functions: 220
    Spherical Harmonics?: true
    Max angular momentum: 2

  ==> Pre-Iterations <==

   -------------------------------------------------------
    Irrep   Nso     Nmo     Nalpha   Nbeta   Ndocc  Nsocc
   -------------------------------------------------------
     A        210     210       0       0       0       0
   -------------------------------------------------------
    Total     210     210      38      38      38       0
   -------------------------------------------------------

  ==> Integral Setup <==

  Using integral reordering PK algorithm.
  Sizing the integral batches needed.
  Building batch lookup table.
   Calculation information:
      Number of atoms:                  24
      Number of AO shells:             102
      Number of primitives:            290
      Number of atomic orbitals:       220
      Number of basis functions:       210

      Integral cutoff                 1.00e-12
      Number of threads:                 1

	Batch   1 pq = [       0,    9405] index = [             0,44231715] size =     44231715
	Batch   2 pq = [    9405,   13301] index = [      44231715,88464951] size =     44233236
	Batch   3 pq = [   13301,   16290] index = [      88464951,132690195] size =     44225244
	Batch   4 pq = [   16290,   18810] index = [     132690195,176917455] size =     44227260
	Batch   5 pq = [   18810,   21030] index = [     176917455,221140965] size =     44223510
	Batch   6 pq = [   21030,   22155] index = [     221140965,245433090] size =     24292125
  Task number: 23
  Buffer size: 11059200
  Buffer per thread: 2
  We computed 12050528 shell quartets total.
  Whereas there are 13799631 unique shell quartets.

  ==> DiskJK: Disk-Based J/K Matrices <==

    J tasked:                  Yes
    K tasked:                  Yes
    wK tasked:                  No
    Memory [MiB]:              375
    Schwarz Cutoff:          1E-12

    OpenMP threads:              1

  Minimum eigenvalue in the overlap matrix is 3.3648632947E-04.
  Using Symmetric Orthogonalization.

  SCF Guess: Superposition of Atomic Densities via on-the-fly atomic UHF.

  ==> Iterations <==

                        Total Energy        Delta E     RMS |[F,P]|

   @RHF iter SAD:  -422.58277640785445   -4.22583e+02   0.00000e+00
   @RHF iter   1:  -423.60207835163914   -1.01930e+00   2.97922e-03 DIIS
   @RHF iter   2:  -423.81742176147588   -2.15343e-01   1.27248e-03 DIIS
   @RHF iter   3:  -423.85298852006548   -3.55668e-02   2.89787e-04 DIIS
   @RHF iter   4:  -423.85590196837137   -2.91345e-03   1.24088e-04 DIIS
   @RHF iter   5:  -423.85630007704947   -3.98109e-04   2.05953e-05 DIIS
   @RHF iter   6:  -423.85631774576655   -1.76687e-05   6.46265e-06 DIIS
   @RHF iter   7:  -423.85631944899450   -1.70323e-06   2.13879e-06 DIIS
   @RHF iter   8:  -423.85631968973121   -2.40737e-07   7.95936e-07 DIIS
   @RHF iter   9:  -423.85631972922477   -3.94936e-08   3.13077e-07 DIIS
   @RHF iter  10:  -423.85631973650254   -7.27778e-09   1.26962e-07 DIIS
   @RHF iter  11:  -423.85631973863525   -2.13271e-09   6.05587e-08 DIIS
   @RHF iter  12:  -423.85631973907221   -4.36955e-10   2.83513e-08 DIIS
   @RHF iter  13:  -423.85631973916196   -8.97558e-11   8.52045e-09 DIIS
   @RHF iter  14:  -423.85631973916759   -5.62750e-12   2.42468e-09 DIIS
   @RHF iter  15:  -423.85631973916753    5.68434e-14   8.63246e-10 DIIS
   @RHF iter  16:  -423.85631973916765   -1.13687e-13   3.69147e-10 DIIS
   @RHF iter  17:  -423.85631973916736    2.84217e-13   1.75865e-10 DIIS
   @RHF iter  18:  -423.85631973916566    1.70530e-12   8.59937e-11 DIIS
  Energy and wave function converged.

  ==> Post-Iterations <==

    Orbital Energies [Eh]
    ---------------------

    Doubly Occupied:

       1A    -20.583278     2A    -11.302525     3A    -11.240392
       4A    -11.239803     5A    -11.236940     6A    -11.235542
       7A    -11.232091     8A    -11.228762     9A    -11.212856
      10A    -11.207013    11A     -1.394577    12A     -1.148470
      13A     -1.036316    14A     -1.017047    15A     -1.010282
      16A     -0.925718    17A     -0.843182    18A     -0.828599
      19A     -0.801056    20A     -0.729937    21A     -0.665847
      22A     -0.641661    23A     -0.608784    24A     -0.591022
      25A     -0.590129    26A     -0.586258    27A     -0.582428
      28A     -0.570401    29A     -0.565998    30A     -0.525759
      31A     -0.500388    32A     -0.494444    33A     -0.483174
      34A     -0.478557    35A     -0.476777    36A     -0.464102
      37A     -0.338552    38A     -0.301497

    Virtual:

      39A      0.128381    40A      0.151632    41A      0.174657
      42A      0.179701    43A      0.197292    44A      0.214332
      45A      0.222446    46A      0.239847    47A      0.254366
      48A      0.256810    49A      0.268454    50A      0.275548
      51A      0.283916    52A      0.285858    53A      0.302526
      54A      0.314306    55A      0.368261    56A      0.370412
      57A      0.404048    58A      0.426257    59A      0.452001
      60A      0.480871    61A      0.491905    62A      0.505994
      63A      0.588236    64A      0.598269    65A      0.605996
      66A      0.610551    67A      0.634375    68A      0.647552
      69A      0.659592    70A      0.669919    71A      0.683208
      72A      0.685904    73A      0.704642    74A      0.722195
      75A      0.730664    76A      0.736607    77A      0.763656
      78A      0.768218    79A      0.783440    80A      0.793384
      81A      0.814390    82A      0.839487    83A      0.843521
      84A      0.860310    85A      0.862760    86A      0.877372
      87A      0.879676    88A      0.889829    89A      0.897237
      90A      0.901150    91A      0.903908    92A      0.916107
      93A      0.925243    94A      0.933765    95A      0.936639
      96A      0.938947    97A      0.950862    98A      0.965920
      99A      1.001818   100A      1.010600   101A      1.028323
     102A      1.061405   103A      1.122418   104A      1.129173
     105A      1.134448   106A      1.141886   107A      1.146802
     108A      1.168487   109A      1.198118   110A      1.239645
     111A      1.248154   112A      1.255925   113A      1.267075
     114A      1.283461   115A      1.293457   116A      1.303220
     117A      1.306984   118A      1.346452   119A      1.363227
     120A      1.383781   121A      1.474268   122A      1.482044
     123A      1.490437   124A      1.505971   125A      1.524669
     126A      1.552489   127A      1.576118   128A      1.611038
     129A      1.622421   130A      1.684260   131A      1.691398
     132A      1.698885   133A      1.707225   134A      1.728706
     135A      1.745726   136A      1.780809   137A      1.803501
     138A      1.812532   139A      1.863241   140A      1.870175
     141A      1.874167   142A      1.886870   143A      1.893842
     144A      1.900820   145A      1.907781   146A      1.914467
     147A      1.921488   148A      1.936742   149A      1.950311
     150A      1.954991   151A      1.957029   152A      1.963152
     153A      1.969778   154A      1.975048   155A      1.984367
     156A      1.990078   157A      2.040583   158A      2.042122
     159A      2.054719   160A      2.063042   161A      2.064354
     162A      2.097626   163A      2.129006   164A      2.135764
     165A      2.139387   166A      2.159036   167A      2.191957
     168A      2.226792   169A      2.256862   170A      2.271708
     171A      2.297121   172A      2.306989   173A      2.320785
     174A      2.322559   175A      2.375060   176A      2.415046
     177A      2.450148   178A      2.458910   179A      2.468977
     180A      2.475154   181A      2.485639   182A      2.531819
     183A      2.540403   184A      2.560014   185A      2.584472
     186A      2.599732   187A      2.630101   188A      2.744978
     189A      2.766354   190A      2.766764   191A      2.783547
     192A      2.802785   193A      2.804529   194A      2.841738
     195A      2.862203   196A      2.870154   197A      2.895938
     198A      2.948658   199A      2.961496   200A      2.970840
     201A      2.993589   202A      3.072817   203A      3.108857
     204A      3.244718   205A      3.271629   206A      3.339979
     207A      3.562779   208A      3.653783   209A      3.956368
     210A      4.179581

    Final Occupation by Irrep:
              A
    DOCC [    38 ]

  @RHF Final Energy:  -423.85631973916566

   => Energetics <=

    Nuclear Repulsion Energy =            496.5707598813330037
    One-Electron Energy =               -1559.0138331289117559
    Two-Electron Energy =                 638.5867535084130395
    Total Energy =                       -423.8563197391656558

Computation Completed

Properties will be evaluated at   0.000000,   0.000000,   0.000000 [a0]

Properties computed using the SCF density matrix

  Nuclear Dipole Moment: [e a0]
     X:    -4.3874      Y:     9.4118      Z:     8.2114

  Electronic Dipole Moment: [e a0]
     X:     4.0993      Y:    -9.3622      Z:    -8.7414

  Dipole Moment: [e a0]
     X:    -0.2881      Y:     0.0496      Z:    -0.5301     Total:     0.6053

  Dipole Moment: [D]
     X:    -0.7324      Y:     0.1260      Z:    -1.3473     Total:     1.5386

*** tstop() called on ds3 at Mon Apr 27 23:37:33 2020
Module time:
	user time   =     111.71 seconds =       1.86 minutes
	system time =      45.68 seconds =       0.76 minutes
	total time  =        151 seconds =       2.52 minutes
Total time:
	user time   =     111.71 seconds =       1.86 minutes
	system time =      45.68 seconds =       0.76 minutes
	total time  =        151 seconds =       2.52 minutes
                                     G D M A

                                 by Anthony Stone

                           version 2.2.06, 22 June 2011

               Distributed Multipoles from Gaussian wavefunctions

Starting at 23:37:33 on 27 Apr 2020

Using SCF density matrix from file ./SSI/SSI-162VAL-167TYR-1-dimer.test.3348.fchk

                         Distributed Multipole Analysis

Standard DMA

Positions and radii in angstrom
Multipole moments in atomic units, ea_0^k for rank k

C          x = -1.659998  y =  0.400105  z =  2.730464 angstrom
           Maximum rank =  0   Radius =  0.650 angstrom
                   Q00  =  -0.233423

C          x = -1.120998  y =  1.619105  z =  3.474464 angstrom
           Maximum rank =  0   Radius =  0.650 angstrom
                   Q00  =  -0.236981

H          x = -1.502998  y =  0.520105  z =  1.657464 angstrom
           Maximum rank =  0   Radius =  0.325 angstrom
                   Q00  =   0.089680

H          x = -1.135998  y = -0.494895  z =  3.066464 angstrom
           Maximum rank =  0   Radius =  0.325 angstrom
                   Q00  =   0.079082

H          x = -2.724998  y =  0.275105  z =  2.928464 angstrom
           Maximum rank =  0   Radius =  0.325 angstrom
                   Q00  =   0.073954

H          x = -1.302998  y =  1.467105  z =  4.538464 angstrom
           Maximum rank =  0   Radius =  0.325 angstrom
                   Q00  =   0.072858

H          x = -1.632727  y =  2.535057  z =  3.144062 angstrom
           Maximum rank =  0   Radius =  0.325 angstrom
                   Q00  =   0.076728

H          x = -0.034567  y =  1.735076  z =  3.347109 angstrom
           Maximum rank =  0   Radius =  0.325 angstrom
                   Q00  =   0.075777

C          x =  0.824002  y =  2.450105  z = -1.861536 angstrom
           Maximum rank =  0   Radius =  0.650 angstrom
                   Q00  =  -0.192063

C          x =  1.041002  y = -0.677895  z =  0.284464 angstrom
           Maximum rank =  0   Radius =  0.650 angstrom
                   Q00  =  -0.080812

C          x =  0.198002  y = -1.564895  z = -0.397536 angstrom
           Maximum rank =  0   Radius =  0.650 angstrom
                   Q00  =   0.314199

C          x =  1.240002  y =  0.620105  z = -0.173536 angstrom
           Maximum rank =  0   Radius =  0.650 angstrom
                   Q00  =  -0.053750

C          x =  0.601002  y =  1.052105  z = -1.343536 angstrom
           Maximum rank =  0   Radius =  0.650 angstrom
                   Q00  =  -0.142280

C          x = -0.441998  y = -1.147895  z = -1.570536 angstrom
           Maximum rank =  0   Radius =  0.650 angstrom
                   Q00  =  -0.203610

C          x = -0.231998  y =  0.162105  z = -2.025536 angstrom
           Maximum rank =  0   Radius =  0.650 angstrom
                   Q00  =   0.050029

O          x = -0.041998  y = -2.818895  z =  0.110464 angstrom
           Maximum rank =  0   Radius =  0.650 angstrom
                   Q00  =  -0.679238

H          x =  1.525002  y = -1.007895  z =  1.192464 angstrom
           Maximum rank =  0   Radius =  0.325 angstrom
                   Q00  =   0.080416

H          x =  1.889002  y =  1.290105  z =  0.370464 angstrom
           Maximum rank =  0   Radius =  0.325 angstrom
                   Q00  =   0.066994

H          x = -1.098998  y = -1.817895  z = -2.106536 angstrom
           Maximum rank =  0   Radius =  0.325 angstrom
                   Q00  =   0.075056

H          x = -0.657998  y = -3.316895  z = -0.438536 angstrom
           Maximum rank =  0   Radius =  0.325 angstrom
                   Q00  =   0.407461

H          x =  0.900002  y =  2.410105  z = -2.949536 angstrom
           Maximum rank =  0   Radius =  0.325 angstrom
                   Q00  =   0.096129

H          x =  1.779002  y =  2.818105  z = -1.484536 angstrom
           Maximum rank =  0   Radius =  0.325 angstrom
                   Q00  =   0.095583

H          x = -0.717998  y =  0.479105  z = -2.934536 angstrom
           Maximum rank =  0   Radius =  0.325 angstrom
                   Q00  =   0.067478

H          x =  0.036451  y =  3.161696  z = -1.572743 angstrom
           Maximum rank =  0   Radius =  0.325 angstrom
                   Q00  =   0.100731

Total multipoles referred to origin at
           x =   0.000000,  y =    0.000000,  z =    0.000000 angstrom
                   Q00  =  -0.000000

Finished at 23:37:33 on 27 Apr 2020

  DMA results are available in the Python driver through the
	  variable('DMA DISTRIBUTED MULTIPOLES')
  and
	  variable('DMA TOTAL MULTIPOLES')
  commands.

    Psi4 stopped on: Monday, 27 April 2020 11:37PM
    Psi4 wall time for execution: 0:02:31.08

*** Psi4 exiting successfully. Buy a developer a beer!
