                               Psi4 1.3.2 release

  ==> Input File <==

--------------------------------------------------------------------------
import numpy as np
set {scf_type pk
basis cc-pvdz
d_convergence 10
gdma_switch   0
gdma_limit    0
gdma_origin   [ 0.0,  0.0,  0.0 ]
}
molecule test {
    units Angstrom
    0 1
    --
    0 1
    C               -1.320205742228156     0.210868242555072    -1.428693695020603
    C               -1.329205742228156     1.307868242555072    -2.485693695020602
    H               -0.650205742228156    -0.601131757444928    -1.708693695020603
    H               -0.970205742228156     0.635868242555072    -0.489693695020603
    H               -2.331205742228156    -0.170131757444928    -1.289693695020603
    H               -0.308205742228156     1.657868242555072    -2.647693695020603
    H               -1.900205742228156     2.132868242555072    -2.060693695020603
    H               -1.769080742228156     0.995718242555072    -3.444373695020603
    C                1.123794257771844    -0.502131757444928     1.264306304979397
    C                1.519794257771844    -1.019131757444928     2.646306304979397
    H                0.414794257771844     0.319868242555072     1.369306304979397
    H                2.008794257771844    -0.145131757444928     0.736306304979397
    H                0.666794257771844    -1.305131757444928     0.684306304979397
    H                2.262794257771844    -1.807131757444928     2.509306304979397
    H                0.646641257771844    -1.459481757444928     3.149986304979397
    H                1.998624257771844    -0.223961757444928     3.236576304979397

}
e, wfn = energy('scf', return_wfn=True)
gdma(wfn)
dmavals = variable('DMA DISTRIBUTED MULTIPOLES')
charges = np.array(dmavals)
print(charges)
np.save('SSI-020ILE-309ALA-1-dimer.npy', np.array(charges))--------------------------------------------------------------------------

*** tstart() called on ds3
*** at Tue Apr 28 00:13:49 2020

   => Loading Basis Set <=

    Name: CC-PVDZ
    Role: ORBITAL
    Keyword: BASIS
    atoms 1-2, 9-10  entry C          line   138 file /theoryfs2/ds/metcalf/miniconda2/envs/tf2gpu/share/psi4/basis/cc-pvdz.gbs
    atoms 3-8, 11-16 entry H          line    22 file /theoryfs2/ds/metcalf/miniconda2/envs/tf2gpu/share/psi4/basis/cc-pvdz.gbs

         ---------------------------------------------------------
                                   SCF
               by Justin Turney, Rob Parrish, Andy Simmonett
                          and Daniel G. A. Smith
                              RHF Reference
                        1 Threads,    500 MiB Core
         ---------------------------------------------------------

  ==> Geometry <==

    Molecular point group: c1
    Full point group: C1

    Geometry (in Angstrom), charge = 0, multiplicity = 1:

       Center              X                  Y                   Z               Mass
    ------------   -----------------  -----------------  -----------------  -----------------
         C           -1.320205742228     0.210868242555    -1.428693695021    12.000000000000
         C           -1.329205742228     1.307868242555    -2.485693695021    12.000000000000
         H           -0.650205742228    -0.601131757445    -1.708693695021     1.007825032230
         H           -0.970205742228     0.635868242555    -0.489693695021     1.007825032230
         H           -2.331205742228    -0.170131757445    -1.289693695021     1.007825032230
         H           -0.308205742228     1.657868242555    -2.647693695021     1.007825032230
         H           -1.900205742228     2.132868242555    -2.060693695021     1.007825032230
         H           -1.769080742228     0.995718242555    -3.444373695021     1.007825032230
         C            1.123794257772    -0.502131757445     1.264306304979    12.000000000000
         C            1.519794257772    -1.019131757445     2.646306304979    12.000000000000
         H            0.414794257772     0.319868242555     1.369306304979     1.007825032230
         H            2.008794257772    -0.145131757445     0.736306304979     1.007825032230
         H            0.666794257772    -1.305131757445     0.684306304979     1.007825032230
         H            2.262794257772    -1.807131757445     2.509306304979     1.007825032230
         H            0.646641257772    -1.459481757445     3.149986304979     1.007825032230
         H            1.998624257772    -0.223961757445     3.236576304979     1.007825032230

  Running in c1 symmetry.

  Rotational constants: A =      0.78765  B =      0.04097  C =      0.04024 [cm^-1]
  Rotational constants: A =  23613.12966  B =   1228.28689  C =   1206.38115 [MHz]
  Nuclear repulsion =  120.384322864696529

  Charge       = 0
  Multiplicity = 1
  Electrons    = 36
  Nalpha       = 18
  Nbeta        = 18

  ==> Algorithm <==

  SCF Algorithm Type is PK.
  DIIS enabled.
  MOM disabled.
  Fractional occupation disabled.
  Guess Type is SAD.
  Energy threshold   = 1.00e-06
  Density threshold  = 1.00e-10
  Integral threshold = 0.00e+00

  ==> Primary Basis <==

  Basis Set: CC-PVDZ
    Blend: CC-PVDZ
    Number of shells: 60
    Number of basis function: 116
    Number of Cartesian functions: 120
    Spherical Harmonics?: true
    Max angular momentum: 2

  ==> Pre-Iterations <==

   -------------------------------------------------------
    Irrep   Nso     Nmo     Nalpha   Nbeta   Ndocc  Nsocc
   -------------------------------------------------------
     A        116     116       0       0       0       0
   -------------------------------------------------------
    Total     116     116      18      18      18       0
   -------------------------------------------------------

  ==> Integral Setup <==

  Using integral reordering PK algorithm.
  Sizing the integral batches needed.
  Building batch lookup table.
   Calculation information:
      Number of atoms:                  16
      Number of AO shells:              60
      Number of primitives:            148
      Number of atomic orbitals:       120
      Number of basis functions:       116

      Integral cutoff                 1.00e-12
      Number of threads:                 1

	Batch   1 pq = [       0,    6786] index = [             0,23028291] size =     23028291
  Task number: 3
  Buffer size: 11059200
  Buffer per thread: 2
  We computed 1355560 shell quartets total.
  Whereas there are 1675365 unique shell quartets.

  ==> DiskJK: Disk-Based J/K Matrices <==

    J tasked:                  Yes
    K tasked:                  Yes
    wK tasked:                  No
    Memory [MiB]:              375
    Schwarz Cutoff:          1E-12

    OpenMP threads:              1

  Minimum eigenvalue in the overlap matrix is 6.7109204395E-03.
  Using Symmetric Orthogonalization.

  SCF Guess: Superposition of Atomic Densities via on-the-fly atomic UHF.

  ==> Iterations <==

                        Total Energy        Delta E     RMS |[F,P]|

   @RHF iter SAD:  -157.36608704432308   -1.57366e+02   0.00000e+00
   @RHF iter   1:  -158.30554543895647   -9.39458e-01   4.22717e-03 DIIS
   @RHF iter   2:  -158.43967685534790   -1.34131e-01   1.80068e-03 DIIS
   @RHF iter   3:  -158.46319539708063   -2.35185e-02   3.50474e-04 DIIS
   @RHF iter   4:  -158.46503081478124   -1.83542e-03   3.88496e-05 DIIS
   @RHF iter   5:  -158.46505453460142   -2.37198e-05   6.62891e-06 DIIS
   @RHF iter   6:  -158.46505518348377   -6.48882e-07   1.08201e-06 DIIS
   @RHF iter   7:  -158.46505519503793   -1.15542e-08   3.13016e-07 DIIS
   @RHF iter   8:  -158.46505519589851   -8.60581e-10   3.97365e-08 DIIS
   @RHF iter   9:  -158.46505519592182   -2.33058e-11   7.78065e-09 DIIS
   @RHF iter  10:  -158.46505519592284   -1.02318e-12   1.88914e-09 DIIS
   @RHF iter  11:  -158.46505519592293   -8.52651e-14   5.06967e-10 DIIS
   @RHF iter  12:  -158.46505519592290    2.84217e-14   1.60944e-10 DIIS
   @RHF iter  13:  -158.46505519592247    4.26326e-13   2.44413e-11 DIIS
  Energy and wave function converged.

  ==> Post-Iterations <==

    Orbital Energies [Eh]
    ---------------------

    Doubly Occupied:

       1A    -11.219155     2A    -11.216782     3A    -11.216694
       4A    -11.214302     5A     -1.020011     6A     -1.017791
       7A     -0.838655     8A     -0.832227     9A     -0.601514
      10A     -0.600442    11A     -0.598105    12A     -0.594165
      13A     -0.506253    14A     -0.495150    15A     -0.488914
      16A     -0.487182    17A     -0.482521    18A     -0.477494

    Virtual:

      19A      0.177570    20A      0.193530    21A      0.224299
      22A      0.234925    23A      0.245438    24A      0.257313
      25A      0.267491    26A      0.276065    27A      0.280376
      28A      0.284898    29A      0.306262    30A      0.352415
      31A      0.392824    32A      0.404553    33A      0.575321
      34A      0.589417    35A      0.595035    36A      0.603549
      37A      0.611973    38A      0.626526    39A      0.675309
      40A      0.687698    41A      0.690087    42A      0.766160
      43A      0.851997    44A      0.879584    45A      0.891729
      46A      0.892040    47A      0.894059    48A      0.895373
      49A      0.902483    50A      0.909914    51A      0.915045
      52A      0.919875    53A      0.923474    54A      0.947138
      55A      0.969241    56A      0.996722    57A      1.125751
      58A      1.126517    59A      1.132257    60A      1.155638
      61A      1.225457    62A      1.255998    63A      1.457586
      64A      1.477817    65A      1.488800    66A      1.494138
      67A      1.571007    68A      1.589307    69A      1.676156
      70A      1.682489    71A      1.691440    72A      1.697347
      73A      1.847675    74A      1.855109    75A      1.863419
      76A      1.873748    77A      1.887433    78A      1.921576
      79A      1.936929    80A      1.942991    81A      1.946984
      82A      1.950496    83A      1.952702    84A      1.967230
      85A      1.972214    86A      1.980573    87A      1.982599
      88A      2.025832    89A      2.087207    90A      2.105356
      91A      2.122479    92A      2.134490    93A      2.294287
      94A      2.303586    95A      2.309944    96A      2.324647
      97A      2.448178    98A      2.456219    99A      2.469083
     100A      2.487331   101A      2.558346   102A      2.565586
     103A      2.573292   104A      2.586143   105A      2.759222
     106A      2.768384   107A      2.785395   108A      2.795860
     109A      2.839573   110A      2.845983   111A      2.856764
     112A      2.869564   113A      2.933283   114A      2.957668
     115A      2.964514   116A      2.976711

    Final Occupation by Irrep:
              A
    DOCC [    18 ]

  @RHF Final Energy:  -158.46505519592247

   => Energetics <=

    Nuclear Repulsion Energy =            120.3843228646965287
    One-Electron Energy =                -449.8840396066990479
    Two-Electron Energy =                 171.0346615460800592
    Total Energy =                       -158.4650551959224742

Computation Completed

Properties will be evaluated at   0.000000,   0.000000,   0.000000 [a0]

Properties computed using the SCF density matrix

  Nuclear Dipole Moment: [e a0]
     X:     0.0650      Y:     0.0282      Z:     0.0421

  Electronic Dipole Moment: [e a0]
     X:    -0.0497      Y:    -0.0319      Z:    -0.0298

  Dipole Moment: [e a0]
     X:     0.0153      Y:    -0.0037      Z:     0.0124     Total:     0.0201

  Dipole Moment: [D]
     X:     0.0390      Y:    -0.0095      Z:     0.0314     Total:     0.0510

*** tstop() called on ds3 at Tue Apr 28 00:14:01 2020
Module time:
	user time   =       7.49 seconds =       0.12 minutes
	system time =       3.12 seconds =       0.05 minutes
	total time  =         12 seconds =       0.20 minutes
Total time:
	user time   =       7.49 seconds =       0.12 minutes
	system time =       3.12 seconds =       0.05 minutes
	total time  =         12 seconds =       0.20 minutes
                                     G D M A

                                 by Anthony Stone

                           version 2.2.06, 22 June 2011

               Distributed Multipoles from Gaussian wavefunctions

Starting at 0:14:1 on 28 Apr 2020

Using SCF density matrix from file ./SSI/SSI-020ILE-309ALA-1-dimer.test.4995.fchk

                         Distributed Multipole Analysis

Standard DMA

Positions and radii in angstrom
Multipole moments in atomic units, ea_0^k for rank k

C          x = -1.320206  y =  0.210868  z = -1.428694 angstrom
           Maximum rank =  0   Radius =  0.650 angstrom
                   Q00  =  -0.238769

C          x = -1.329206  y =  1.307868  z = -2.485694 angstrom
           Maximum rank =  0   Radius =  0.650 angstrom
                   Q00  =  -0.231937

H          x = -0.650206  y = -0.601132  z = -1.708694 angstrom
           Maximum rank =  0   Radius =  0.325 angstrom
                   Q00  =   0.077613

H          x = -0.970206  y =  0.635868  z = -0.489694 angstrom
           Maximum rank =  0   Radius =  0.325 angstrom
                   Q00  =   0.082221

H          x = -2.331206  y = -0.170132  z = -1.289694 angstrom
           Maximum rank =  0   Radius =  0.325 angstrom
                   Q00  =   0.077405

H          x = -0.308206  y =  1.657868  z = -2.647694 angstrom
           Maximum rank =  0   Radius =  0.325 angstrom
                   Q00  =   0.077116

H          x = -1.900206  y =  2.132868  z = -2.060694 angstrom
           Maximum rank =  0   Radius =  0.325 angstrom
                   Q00  =   0.074194

H          x = -1.769081  y =  0.995718  z = -3.444374 angstrom
           Maximum rank =  0   Radius =  0.325 angstrom
                   Q00  =   0.081129

C          x =  1.123794  y = -0.502132  z =  1.264306 angstrom
           Maximum rank =  0   Radius =  0.650 angstrom
                   Q00  =  -0.236357

C          x =  1.519794  y = -1.019132  z =  2.646306 angstrom
           Maximum rank =  0   Radius =  0.650 angstrom
                   Q00  =  -0.235074

H          x =  0.414794  y =  0.319868  z =  1.369306 angstrom
           Maximum rank =  0   Radius =  0.325 angstrom
                   Q00  =   0.076142

H          x =  2.008794  y = -0.145132  z =  0.736306 angstrom
           Maximum rank =  0   Radius =  0.325 angstrom
                   Q00  =   0.078969

H          x =  0.666794  y = -1.305132  z =  0.684306 angstrom
           Maximum rank =  0   Radius =  0.325 angstrom
                   Q00  =   0.081140

H          x =  2.262794  y = -1.807132  z =  2.509306 angstrom
           Maximum rank =  0   Radius =  0.325 angstrom
                   Q00  =   0.075575

H          x =  0.646641  y = -1.459482  z =  3.149986 angstrom
           Maximum rank =  0   Radius =  0.325 angstrom
                   Q00  =   0.080326

H          x =  1.998624  y = -0.223962  z =  3.236576 angstrom
           Maximum rank =  0   Radius =  0.325 angstrom
                   Q00  =   0.080307

Total multipoles referred to origin at
           x =   0.000000,  y =    0.000000,  z =    0.000000 angstrom
                   Q00  =  -0.000000

Finished at 0:14:1 on 28 Apr 2020

  DMA results are available in the Python driver through the
	  variable('DMA DISTRIBUTED MULTIPOLES')
  and
	  variable('DMA TOTAL MULTIPOLES')
  commands.

    Psi4 stopped on: Tuesday, 28 April 2020 12:14AM
    Psi4 wall time for execution: 0:00:12.14

*** Psi4 exiting successfully. Buy a developer a beer!
