                               Psi4 1.3.2 release

  ==> Input File <==

--------------------------------------------------------------------------
import numpy as np
set {scf_type pk
basis cc-pvdz
d_convergence 10
gdma_switch   0
gdma_limit    0
gdma_origin   [ 0.0,  0.0,  0.0 ]
}
molecule test {
    units Angstrom
    -2 1
    --
    -2 1
    C                1.655241747282733    -0.238716338413162     0.465998470438306
    C                3.178241747282733    -0.124716338413162     0.324998470438306
    C                1.010241747282733     0.995283661586838     1.099998470438306
    O                0.360241747282733     1.773283661586838     0.368998470438306
    O                1.134241747282733     1.186283661586838     2.331998470438307
    H                1.233241747282733    -0.408716338413162    -0.528001529561694
    H                1.412241747282733    -1.112716338413162     1.073998470438307
    H                3.623241747282734     0.066283661586838     1.301998470438307
    H                3.390241747282734     0.735283661586838    -0.311001529561694
    H                3.637665747282734    -1.019949338413162    -0.119401529561694
    C               -2.421758252717267     0.330283661586838    -1.560001529561693
    C               -1.774758252717267    -0.966716338413162    -1.121001529561694
    O               -1.134758252717267    -1.658716338413162    -1.948001529561694
    O               -1.940758252717267    -1.308716338413162     0.066998470438306
    H               -2.480758252717266     1.031283661586838    -0.728001529561694
    H               -3.431758252717267     0.086283661586838    -1.888001529561694
    H               -1.905007252717267     0.801629661586838    -2.409001529561694

}
e, wfn = energy('scf', return_wfn=True)
gdma(wfn)
dmavals = variable('DMA DISTRIBUTED MULTIPOLES')
charges = np.array(dmavals)
print(charges)
np.save('SSI-069GLU-123ASP-1-dimer.npy', np.array(charges))--------------------------------------------------------------------------

*** tstart() called on ds3
*** at Tue Apr 28 10:55:11 2020

   => Loading Basis Set <=

    Name: CC-PVDZ
    Role: ORBITAL
    Keyword: BASIS
    atoms 1-3, 11-12  entry C          line   138 file /theoryfs2/ds/metcalf/miniconda2/envs/tf2gpu/share/psi4/basis/cc-pvdz.gbs
    atoms 4-5, 13-14  entry O          line   198 file /theoryfs2/ds/metcalf/miniconda2/envs/tf2gpu/share/psi4/basis/cc-pvdz.gbs
    atoms 6-10, 15-17 entry H          line    22 file /theoryfs2/ds/metcalf/miniconda2/envs/tf2gpu/share/psi4/basis/cc-pvdz.gbs

         ---------------------------------------------------------
                                   SCF
               by Justin Turney, Rob Parrish, Andy Simmonett
                          and Daniel G. A. Smith
                              RHF Reference
                        1 Threads,    500 MiB Core
         ---------------------------------------------------------

  ==> Geometry <==

    Molecular point group: c1
    Full point group: C1

    Geometry (in Angstrom), charge = -2, multiplicity = 1:

       Center              X                  Y                   Z               Mass
    ------------   -----------------  -----------------  -----------------  -----------------
         C            1.655241747283    -0.238716338413     0.465998470438    12.000000000000
         C            3.178241747283    -0.124716338413     0.324998470438    12.000000000000
         C            1.010241747283     0.995283661587     1.099998470438    12.000000000000
         O            0.360241747283     1.773283661587     0.368998470438    15.994914619570
         O            1.134241747283     1.186283661587     2.331998470438    15.994914619570
         H            1.233241747283    -0.408716338413    -0.528001529562     1.007825032230
         H            1.412241747283    -1.112716338413     1.073998470438     1.007825032230
         H            3.623241747283     0.066283661587     1.301998470438     1.007825032230
         H            3.390241747283     0.735283661587    -0.311001529562     1.007825032230
         H            3.637665747283    -1.019949338413    -0.119401529562     1.007825032230
         C           -2.421758252717     0.330283661587    -1.560001529562    12.000000000000
         C           -1.774758252717    -0.966716338413    -1.121001529562    12.000000000000
         O           -1.134758252717    -1.658716338413    -1.948001529562    15.994914619570
         O           -1.940758252717    -1.308716338413     0.066998470438    15.994914619570
         H           -2.480758252717     1.031283661587    -0.728001529562     1.007825032230
         H           -3.431758252717     0.086283661587    -1.888001529562     1.007825032230
         H           -1.905007252717     0.801629661587    -2.409001529562     1.007825032230

  Running in c1 symmetry.

  Rotational constants: A =      0.07428  B =      0.02467  C =      0.02181 [cm^-1]
  Rotational constants: A =   2226.81565  B =    739.63355  C =    653.97369 [MHz]
  Nuclear repulsion =  423.359869476280380

  Charge       = -2
  Multiplicity = 1
  Electrons    = 72
  Nalpha       = 36
  Nbeta        = 36

  ==> Algorithm <==

  SCF Algorithm Type is PK.
  DIIS enabled.
  MOM disabled.
  Fractional occupation disabled.
  Guess Type is SAD.
  Energy threshold   = 1.00e-06
  Density threshold  = 1.00e-10
  Integral threshold = 0.00e+00

  ==> Primary Basis <==

  Basis Set: CC-PVDZ
    Blend: CC-PVDZ
    Number of shells: 78
    Number of basis function: 166
    Number of Cartesian functions: 175
    Spherical Harmonics?: true
    Max angular momentum: 2

  ==> Pre-Iterations <==

   -------------------------------------------------------
    Irrep   Nso     Nmo     Nalpha   Nbeta   Ndocc  Nsocc
   -------------------------------------------------------
     A        166     166       0       0       0       0
   -------------------------------------------------------
    Total     166     166      36      36      36       0
   -------------------------------------------------------

  ==> Integral Setup <==

  Using integral reordering PK algorithm.
  Sizing the integral batches needed.
  Building batch lookup table.
   Calculation information:
      Number of atoms:                  17
      Number of AO shells:              78
      Number of primitives:            238
      Number of atomic orbitals:       175
      Number of basis functions:       166

      Integral cutoff                 1.00e-12
      Number of threads:                 1

	Batch   1 pq = [       0,    9405] index = [             0,44231715] size =     44231715
	Batch   2 pq = [    9405,   13301] index = [      44231715,88464951] size =     44233236
	Batch   3 pq = [   13301,   13861] index = [      88464951,96070591] size =      7605640
  Task number: 9
  Buffer size: 11059200
  Buffer per thread: 2
  We computed 3843260 shell quartets total.
  Whereas there are 4747821 unique shell quartets.

  ==> DiskJK: Disk-Based J/K Matrices <==

    J tasked:                  Yes
    K tasked:                  Yes
    wK tasked:                  No
    Memory [MiB]:              375
    Schwarz Cutoff:          1E-12

    OpenMP threads:              1

  Minimum eigenvalue in the overlap matrix is 4.7418149053E-03.
  Using Symmetric Orthogonalization.

  SCF Guess: Superposition of Atomic Densities via on-the-fly atomic UHF.

  ==> Iterations <==

                        Total Energy        Delta E     RMS |[F,P]|

   @RHF iter SAD:  -491.32660736499531   -4.91327e+02   0.00000e+00
   @RHF iter   1:  -493.02346569997201   -1.69686e+00   5.54089e-03 DIIS
   @RHF iter   2:  -493.31051814452900   -2.87052e-01   3.19846e-03 DIIS
   @RHF iter   3:  -493.40842949187572   -9.79113e-02   4.22767e-04 DIIS
   @RHF iter   4:  -493.41171940108472   -3.28991e-03   1.54972e-04 DIIS
   @RHF iter   5:  -493.41222976771360   -5.10367e-04   2.45282e-05 DIIS
   @RHF iter   6:  -493.41224626961980   -1.65019e-05   6.82068e-06 DIIS
   @RHF iter   7:  -493.41224723907396   -9.69454e-07   2.67149e-06 DIIS
   @RHF iter   8:  -493.41224737051027   -1.31436e-07   9.17269e-07 DIIS
   @RHF iter   9:  -493.41224738786980   -1.73595e-08   2.88035e-07 DIIS
   @RHF iter  10:  -493.41224739106735   -3.19756e-09   1.06011e-07 DIIS
   @RHF iter  11:  -493.41224739154950   -4.82146e-10   4.01415e-08 DIIS
   @RHF iter  12:  -493.41224739160589   -5.63887e-11   1.74376e-08 DIIS
   @RHF iter  13:  -493.41224739161748   -1.15961e-11   5.01179e-09 DIIS
   @RHF iter  14:  -493.41224739161822   -7.38964e-13   1.28410e-09 DIIS
   @RHF iter  15:  -493.41224739161896   -7.38964e-13   4.95035e-10 DIIS
   @RHF iter  16:  -493.41224739161777    1.19371e-12   1.87441e-10 DIIS
   @RHF iter  17:  -493.41224739161748    2.84217e-13   6.48533e-11 DIIS
  Energy and wave function converged.

  ==> Post-Iterations <==

    Orbital Energies [Eh]
    ---------------------

    Doubly Occupied:

       1A    -20.140840     2A    -20.140385     3A    -20.138654
       4A    -20.136934     5A    -10.996649     6A    -10.994294
       7A    -10.974368     8A    -10.930284     9A    -10.925513
      10A     -1.029978    11A     -1.029393    12A     -0.916043
      13A     -0.914281    14A     -0.757395    15A     -0.678128
      16A     -0.586918    17A     -0.388235    18A     -0.382337
      19A     -0.340175    20A     -0.319493    21A     -0.292667
      22A     -0.289350    23A     -0.283569    24A     -0.271906
      25A     -0.255752    26A     -0.244610    27A     -0.222992
      28A     -0.201302    29A     -0.183294    30A     -0.180834
      31A     -0.065799    32A     -0.062497    33A     -0.052620
      34A     -0.051505    35A     -0.043097    36A     -0.040243

    Virtual:

      37A      0.429814    38A      0.465318    39A      0.487843
      40A      0.502440    41A      0.508974    42A      0.527172
      43A      0.547616    44A      0.570715    45A      0.585485
      46A      0.606844    47A      0.658147    48A      0.691063
      49A      0.729639    50A      0.788156    51A      0.810174
      52A      0.831797    53A      0.844954    54A      0.863033
      55A      0.907286    56A      0.949908    57A      0.958708
      58A      0.992504    59A      1.073139    60A      1.083698
      61A      1.099060    62A      1.107149    63A      1.130305
      64A      1.139726    65A      1.146536    66A      1.150784
      67A      1.154119    68A      1.164638    69A      1.168146
      70A      1.182260    71A      1.186104    72A      1.201961
      73A      1.215724    74A      1.233298    75A      1.272122
      76A      1.273927    77A      1.362298    78A      1.367070
      79A      1.422422    80A      1.426533    81A      1.446223
      82A      1.483718    83A      1.507611    84A      1.519156
      85A      1.618528    86A      1.647564    87A      1.659027
      88A      1.662325    89A      1.691434    90A      1.698499
      91A      1.704551    92A      1.713293    93A      1.739377
      94A      1.773168    95A      1.787219    96A      1.789799
      97A      1.798738    98A      1.823230    99A      1.844093
     100A      1.875636   101A      1.929473   102A      1.935904
     103A      1.963622   104A      1.972345   105A      2.083185
     106A      2.134518   107A      2.161332   108A      2.172579
     109A      2.188752   110A      2.201357   111A      2.219649
     112A      2.232540   113A      2.234669   114A      2.254114
     115A      2.270040   116A      2.276881   117A      2.294643
     118A      2.330920   119A      2.335571   120A      2.366670
     121A      2.398663   122A      2.432882   123A      2.473851
     124A      2.516682   125A      2.551726   126A      2.559460
     127A      2.601026   128A      2.619773   129A      2.676854
     130A      2.709779   131A      2.740611   132A      2.808671
     133A      2.817700   134A      2.830734   135A      2.859325
     136A      2.870247   137A      2.905535   138A      2.950154
     139A      3.009887   140A      3.038487   141A      3.099867
     142A      3.106260   143A      3.111137   144A      3.113686
     145A      3.153025   146A      3.246770   147A      3.361671
     148A      3.362671   149A      3.395681   150A      3.405458
     151A      3.416607   152A      3.417075   153A      3.480664
     154A      3.484348   155A      3.756578   156A      3.761786
     157A      3.897773   158A      3.900810   159A      3.944333
     160A      3.963564   161A      4.175120   162A      4.183512
     163A      4.201863   164A      4.204614   165A      4.314396
     166A      4.316280

    Final Occupation by Irrep:
              A
    DOCC [    36 ]

  @RHF Final Energy:  -493.41224739161748

   => Energetics <=

    Nuclear Repulsion Energy =            423.3598694762803802
    One-Electron Energy =               -1542.6195661628794369
    Two-Electron Energy =                 625.8474492949815158
    Total Energy =                       -493.4122473916174840

Computation Completed

Properties will be evaluated at   0.000000,   0.000000,   0.000000 [a0]

Properties computed using the SCF density matrix

  Nuclear Dipole Moment: [e a0]
     X:     5.1289      Y:     0.1681      Z:    -3.3779

  Electronic Dipole Moment: [e a0]
     X:    -4.0116      Y:    -0.1176      Z:     2.5172

  Dipole Moment: [e a0]
     X:     1.1173      Y:     0.0506      Z:    -0.8607     Total:     1.4113

  Dipole Moment: [D]
     X:     2.8398      Y:     0.1285      Z:    -2.1877     Total:     3.5871

*** tstop() called on ds3 at Tue Apr 28 10:55:55 2020
Module time:
	user time   =      30.72 seconds =       0.51 minutes
	system time =      13.65 seconds =       0.23 minutes
	total time  =         44 seconds =       0.73 minutes
Total time:
	user time   =      30.72 seconds =       0.51 minutes
	system time =      13.65 seconds =       0.23 minutes
	total time  =         44 seconds =       0.73 minutes
                                     G D M A

                                 by Anthony Stone

                           version 2.2.06, 22 June 2011

               Distributed Multipoles from Gaussian wavefunctions

Starting at 10:55:55 on 28 Apr 2020

Using SCF density matrix from file ./SSI/SSI-069GLU-123ASP-1-dimer.test.22140.fchk

                         Distributed Multipole Analysis

Standard DMA

Positions and radii in angstrom
Multipole moments in atomic units, ea_0^k for rank k

C          x =  1.655242  y = -0.238716  z =  0.465998 angstrom
           Maximum rank =  0   Radius =  0.650 angstrom
                   Q00  =  -0.074403

C          x =  3.178242  y = -0.124716  z =  0.324998 angstrom
           Maximum rank =  0   Radius =  0.650 angstrom
                   Q00  =  -0.211951

C          x =  1.010242  y =  0.995284  z =  1.099998 angstrom
           Maximum rank =  0   Radius =  0.650 angstrom
                   Q00  =   0.965847

O          x =  0.360242  y =  1.773284  z =  0.368998 angstrom
           Maximum rank =  0   Radius =  0.650 angstrom
                   Q00  =  -0.926879

O          x =  1.134242  y =  1.186284  z =  2.331998 angstrom
           Maximum rank =  0   Radius =  0.650 angstrom
                   Q00  =  -0.958703

H          x =  1.233242  y = -0.408716  z = -0.528002 angstrom
           Maximum rank =  0   Radius =  0.325 angstrom
                   Q00  =   0.057151

H          x =  1.412242  y = -1.112716  z =  1.073998 angstrom
           Maximum rank =  0   Radius =  0.325 angstrom
                   Q00  =   0.036211

H          x =  3.623242  y =  0.066284  z =  1.301998 angstrom
           Maximum rank =  0   Radius =  0.325 angstrom
                   Q00  =   0.045656

H          x =  3.390242  y =  0.735284  z = -0.311002 angstrom
           Maximum rank =  0   Radius =  0.325 angstrom
                   Q00  =   0.045674

H          x =  3.637666  y = -1.019949  z = -0.119402 angstrom
           Maximum rank =  0   Radius =  0.325 angstrom
                   Q00  =   0.019340

C          x = -2.421758  y =  0.330284  z = -1.560002 angstrom
           Maximum rank =  0   Radius =  0.650 angstrom
                   Q00  =  -0.268231

C          x = -1.774758  y = -0.966716  z = -1.121002 angstrom
           Maximum rank =  0   Radius =  0.650 angstrom
                   Q00  =   0.992859

O          x = -1.134758  y = -1.658716  z = -1.948002 angstrom
           Maximum rank =  0   Radius =  0.650 angstrom
                   Q00  =  -0.957303

O          x = -1.940758  y = -1.308716  z =  0.066998 angstrom
           Maximum rank =  0   Radius =  0.650 angstrom
                   Q00  =  -0.927044

H          x = -2.480758  y =  1.031284  z = -0.728002 angstrom
           Maximum rank =  0   Radius =  0.325 angstrom
                   Q00  =   0.093157

H          x = -3.431758  y =  0.086284  z = -1.888002 angstrom
           Maximum rank =  0   Radius =  0.325 angstrom
                   Q00  =   0.024642

H          x = -1.905007  y =  0.801630  z = -2.409002 angstrom
           Maximum rank =  0   Radius =  0.325 angstrom
                   Q00  =   0.043975

Total multipoles referred to origin at
           x =   0.000000,  y =    0.000000,  z =    0.000000 angstrom
                   Q00  =  -2.000000

Finished at 10:55:55 on 28 Apr 2020

  DMA results are available in the Python driver through the
	  variable('DMA DISTRIBUTED MULTIPOLES')
  and
	  variable('DMA TOTAL MULTIPOLES')
  commands.

    Psi4 stopped on: Tuesday, 28 April 2020 10:55AM
    Psi4 wall time for execution: 0:00:43.47

*** Psi4 exiting successfully. Buy a developer a beer!
