                               Psi4 1.3.2 release

  ==> Input File <==

--------------------------------------------------------------------------
import numpy as np
set {scf_type pk
basis cc-pvdz
d_convergence 10
gdma_switch   0
gdma_limit    0
gdma_origin   [ 0.0,  0.0,  0.0 ]
}
molecule test {
    units Angstrom
    0 1
    --
    0 1
    C                0.322591409215229     1.657866741331095    -0.673164963702984
    C                0.191591409215229     2.456866741331095    -1.962164963702983
    H                0.763591409215229     0.681866741331094    -0.877164963702984
    H                0.977591409215229     2.187866741331094     0.017835036297016
    H               -0.656408590784771     1.530866741331094    -0.211164963702984
    H                1.172591409215229     2.521866741331094    -2.434164963702984
    H               -0.139408590784771     3.449866741331094    -1.667164963702984
    H               -0.542888590784771     2.046586741331095    -2.670824963702984
    C               -0.364408590784771    -1.333133258668905     1.112835036297017
    C               -0.152408590784771    -2.787133258668905     1.519835036297016
    H                0.493591409215229    -0.735133258668906     1.419835036297016
    H               -0.468408590784771    -1.273133258668906     0.028835036297016
    H               -1.265408590784771    -0.943133258668906     1.583835036297016
    H                0.765591409215229    -3.143133258668906     1.053835036297016
    H               -0.070528590784771    -2.859673258668905     2.614385036297016
    H               -0.998538590784771    -3.398833258668906     1.173595036297016

}
e, wfn = energy('scf', return_wfn=True)
gdma(wfn)
dmavals = variable('DMA DISTRIBUTED MULTIPOLES')
charges = np.array(dmavals)
print(charges)
np.save('SSI-134ILE-167LEU-1-dimer.npy', np.array(charges))--------------------------------------------------------------------------

*** tstart() called on ds3
*** at Mon Apr 27 06:50:05 2020

   => Loading Basis Set <=

    Name: CC-PVDZ
    Role: ORBITAL
    Keyword: BASIS
    atoms 1-2, 9-10  entry C          line   138 file /theoryfs2/ds/metcalf/miniconda2/envs/tf2gpu/share/psi4/basis/cc-pvdz.gbs
    atoms 3-8, 11-16 entry H          line    22 file /theoryfs2/ds/metcalf/miniconda2/envs/tf2gpu/share/psi4/basis/cc-pvdz.gbs

         ---------------------------------------------------------
                                   SCF
               by Justin Turney, Rob Parrish, Andy Simmonett
                          and Daniel G. A. Smith
                              RHF Reference
                        1 Threads,    500 MiB Core
         ---------------------------------------------------------

  ==> Geometry <==

    Molecular point group: c1
    Full point group: C1

    Geometry (in Angstrom), charge = 0, multiplicity = 1:

       Center              X                  Y                   Z               Mass
    ------------   -----------------  -----------------  -----------------  -----------------
         C            0.322591409215     1.657866741331    -0.673164963703    12.000000000000
         C            0.191591409215     2.456866741331    -1.962164963703    12.000000000000
         H            0.763591409215     0.681866741331    -0.877164963703     1.007825032230
         H            0.977591409215     2.187866741331     0.017835036297     1.007825032230
         H           -0.656408590785     1.530866741331    -0.211164963703     1.007825032230
         H            1.172591409215     2.521866741331    -2.434164963703     1.007825032230
         H           -0.139408590785     3.449866741331    -1.667164963703     1.007825032230
         H           -0.542888590785     2.046586741331    -2.670824963703     1.007825032230
         C           -0.364408590785    -1.333133258669     1.112835036297    12.000000000000
         C           -0.152408590785    -2.787133258669     1.519835036297    12.000000000000
         H            0.493591409215    -0.735133258669     1.419835036297     1.007825032230
         H           -0.468408590785    -1.273133258669     0.028835036297     1.007825032230
         H           -1.265408590785    -0.943133258669     1.583835036297     1.007825032230
         H            0.765591409215    -3.143133258669     1.053835036297     1.007825032230
         H           -0.070528590785    -2.859673258669     2.614385036297     1.007825032230
         H           -0.998538590785    -3.398833258669     1.173595036297     1.007825032230

  Running in c1 symmetry.

  Rotational constants: A =      0.87425  B =      0.04135  C =      0.04101 [cm^-1]
  Rotational constants: A =  26209.50064  B =   1239.57242  C =   1229.32823 [MHz]
  Nuclear repulsion =  121.042236546728788

  Charge       = 0
  Multiplicity = 1
  Electrons    = 36
  Nalpha       = 18
  Nbeta        = 18

  ==> Algorithm <==

  SCF Algorithm Type is PK.
  DIIS enabled.
  MOM disabled.
  Fractional occupation disabled.
  Guess Type is SAD.
  Energy threshold   = 1.00e-06
  Density threshold  = 1.00e-10
  Integral threshold = 0.00e+00

  ==> Primary Basis <==

  Basis Set: CC-PVDZ
    Blend: CC-PVDZ
    Number of shells: 60
    Number of basis function: 116
    Number of Cartesian functions: 120
    Spherical Harmonics?: true
    Max angular momentum: 2

  ==> Pre-Iterations <==

   -------------------------------------------------------
    Irrep   Nso     Nmo     Nalpha   Nbeta   Ndocc  Nsocc
   -------------------------------------------------------
     A        116     116       0       0       0       0
   -------------------------------------------------------
    Total     116     116      18      18      18       0
   -------------------------------------------------------

  ==> Integral Setup <==

  Using integral reordering PK algorithm.
  Sizing the integral batches needed.
  Building batch lookup table.
   Calculation information:
      Number of atoms:                  16
      Number of AO shells:              60
      Number of primitives:            148
      Number of atomic orbitals:       120
      Number of basis functions:       116

      Integral cutoff                 1.00e-12
      Number of threads:                 1

	Batch   1 pq = [       0,    6786] index = [             0,23028291] size =     23028291
  Task number: 3
  Buffer size: 11059200
  Buffer per thread: 2
  We computed 1359304 shell quartets total.
  Whereas there are 1675365 unique shell quartets.

  ==> DiskJK: Disk-Based J/K Matrices <==

    J tasked:                  Yes
    K tasked:                  Yes
    wK tasked:                  No
    Memory [MiB]:              375
    Schwarz Cutoff:          1E-12

    OpenMP threads:              1

  Minimum eigenvalue in the overlap matrix is 6.0611586409E-03.
  Using Symmetric Orthogonalization.

  SCF Guess: Superposition of Atomic Densities via on-the-fly atomic UHF.

  ==> Iterations <==

                        Total Energy        Delta E     RMS |[F,P]|

   @RHF iter SAD:  -157.37945524503010   -1.57379e+02   0.00000e+00
   @RHF iter   1:  -158.30491150224117   -9.25456e-01   4.23624e-03 DIIS
   @RHF iter   2:  -158.43973144489146   -1.34820e-01   1.80091e-03 DIIS
   @RHF iter   3:  -158.46325857171598   -2.35271e-02   3.51738e-04 DIIS
   @RHF iter   4:  -158.46510903709762   -1.85047e-03   3.93613e-05 DIIS
   @RHF iter   5:  -158.46513334990070   -2.43128e-05   6.98590e-06 DIIS
   @RHF iter   6:  -158.46513405598165   -7.06081e-07   1.23824e-06 DIIS
   @RHF iter   7:  -158.46513407070378   -1.47221e-08   3.33650e-07 DIIS
   @RHF iter   8:  -158.46513407178483   -1.08105e-09   4.47235e-08 DIIS
   @RHF iter   9:  -158.46513407181988   -3.50440e-11   8.34914e-09 DIIS
   @RHF iter  10:  -158.46513407182175   -1.87583e-12   2.00122e-09 DIIS
   @RHF iter  11:  -158.46513407182201   -2.55795e-13   3.12325e-10 DIIS
   @RHF iter  12:  -158.46513407182158    4.26326e-13   4.82928e-11 DIIS
  Energy and wave function converged.

  ==> Post-Iterations <==

    Orbital Energies [Eh]
    ---------------------

    Doubly Occupied:

       1A    -11.217800     2A    -11.216437     3A    -11.214714
       4A    -11.214599     5A     -1.020559     6A     -1.017872
       7A     -0.838849     8A     -0.830520     9A     -0.602707
      10A     -0.599896    11A     -0.597604    12A     -0.594604
      13A     -0.505362    14A     -0.496457    15A     -0.488997
      16A     -0.485590    17A     -0.483515    18A     -0.475328

    Virtual:

      19A      0.177492    20A      0.194355    21A      0.223212
      22A      0.237693    23A      0.244546    24A      0.260660
      25A      0.265905    26A      0.276438    27A      0.282379
      28A      0.289265    29A      0.301199    30A      0.311008
      31A      0.383562    32A      0.421684    33A      0.566589
      34A      0.597936    35A      0.601536    36A      0.605673
      37A      0.609277    38A      0.656389    39A      0.659815
      40A      0.686334    41A      0.706357    42A      0.772123
      43A      0.843361    44A      0.880610    45A      0.893129
      46A      0.893831    47A      0.896900    48A      0.898936
      49A      0.911834    50A      0.912951    51A      0.915646
      52A      0.920659    53A      0.923062    54A      0.955778
      55A      0.958780    56A      0.992888    57A      1.119685
      58A      1.127796    59A      1.137731    60A      1.165086
      61A      1.218482    62A      1.266534    63A      1.456414
      64A      1.478302    65A      1.485188    66A      1.496076
      67A      1.576563    68A      1.588419    69A      1.677616
      70A      1.682070    71A      1.691478    72A      1.697541
      73A      1.849226    74A      1.856962    75A      1.872455
      76A      1.883159    77A      1.893731    78A      1.924086
      79A      1.938716    80A      1.943929    81A      1.948005
      82A      1.949955    83A      1.957025    84A      1.962454
      85A      1.970748    86A      1.986629    87A      1.999198
      88A      2.049302    89A      2.090533    90A      2.106752
      91A      2.113367    92A      2.141755    93A      2.294721
      94A      2.305368    95A      2.315271    96A      2.338881
      97A      2.447175    98A      2.460389    99A      2.470760
     100A      2.492369   101A      2.558159   102A      2.566109
     103A      2.576301   104A      2.592121   105A      2.761679
     106A      2.772138   107A      2.789783   108A      2.795340
     109A      2.842533   110A      2.845874   111A      2.851665
     112A      2.863705   113A      2.941997   114A      2.948053
     115A      2.963083   116A      2.974065

    Final Occupation by Irrep:
              A
    DOCC [    18 ]

  @RHF Final Energy:  -158.46513407182158

   => Energetics <=

    Nuclear Repulsion Energy =            121.0422365467287875
    One-Electron Energy =                -451.2119176591309042
    Two-Electron Energy =                 171.7045470405805645
    Total Energy =                       -158.4651340718215806

Computation Completed

Properties will be evaluated at   0.000000,   0.000000,   0.000000 [a0]

Properties computed using the SCF density matrix

  Nuclear Dipole Moment: [e a0]
     X:     0.0294      Y:     0.0618      Z:     0.0297

  Electronic Dipole Moment: [e a0]
     X:    -0.0243      Y:    -0.0483      Z:    -0.0232

  Dipole Moment: [e a0]
     X:     0.0051      Y:     0.0134      Z:     0.0065     Total:     0.0158

  Dipole Moment: [D]
     X:     0.0129      Y:     0.0341      Z:     0.0165     Total:     0.0401

*** tstop() called on ds3 at Mon Apr 27 06:50:15 2020
Module time:
	user time   =       7.34 seconds =       0.12 minutes
	system time =       2.91 seconds =       0.05 minutes
	total time  =         10 seconds =       0.17 minutes
Total time:
	user time   =       7.34 seconds =       0.12 minutes
	system time =       2.91 seconds =       0.05 minutes
	total time  =         10 seconds =       0.17 minutes
                                     G D M A

                                 by Anthony Stone

                           version 2.2.06, 22 June 2011

               Distributed Multipoles from Gaussian wavefunctions

Starting at 6:50:15 on 27 Apr 2020

Using SCF density matrix from file ./SSI/SSI-134ILE-167LEU-1-dimer.test.347.fchk

                         Distributed Multipole Analysis

Standard DMA

Positions and radii in angstrom
Multipole moments in atomic units, ea_0^k for rank k

C          x =  0.322591  y =  1.657867  z = -0.673165 angstrom
           Maximum rank =  0   Radius =  0.650 angstrom
                   Q00  =  -0.232568

C          x =  0.191591  y =  2.456867  z = -1.962165 angstrom
           Maximum rank =  0   Radius =  0.650 angstrom
                   Q00  =  -0.234073

H          x =  0.763591  y =  0.681867  z = -0.877165 angstrom
           Maximum rank =  0   Radius =  0.325 angstrom
                   Q00  =   0.075572

H          x =  0.977591  y =  2.187867  z =  0.017835 angstrom
           Maximum rank =  0   Radius =  0.325 angstrom
                   Q00  =   0.078173

H          x = -0.656409  y =  1.530867  z = -0.211165 angstrom
           Maximum rank =  0   Radius =  0.325 angstrom
                   Q00  =   0.079077

H          x =  1.172591  y =  2.521867  z = -2.434165 angstrom
           Maximum rank =  0   Radius =  0.325 angstrom
                   Q00  =   0.078340

H          x = -0.139409  y =  3.449867  z = -1.667165 angstrom
           Maximum rank =  0   Radius =  0.325 angstrom
                   Q00  =   0.074836

H          x = -0.542889  y =  2.046587  z = -2.670825 angstrom
           Maximum rank =  0   Radius =  0.325 angstrom
                   Q00  =   0.080614

C          x = -0.364409  y = -1.333133  z =  1.112835 angstrom
           Maximum rank =  0   Radius =  0.650 angstrom
                   Q00  =  -0.235677

C          x = -0.152409  y = -2.787133  z =  1.519835 angstrom
           Maximum rank =  0   Radius =  0.650 angstrom
                   Q00  =  -0.232139

H          x =  0.493591  y = -0.735133  z =  1.419835 angstrom
           Maximum rank =  0   Radius =  0.325 angstrom
                   Q00  =   0.078296

H          x = -0.468409  y = -1.273133  z =  0.028835 angstrom
           Maximum rank =  0   Radius =  0.325 angstrom
                   Q00  =   0.076831

H          x = -1.265409  y = -0.943133  z =  1.583835 angstrom
           Maximum rank =  0   Radius =  0.325 angstrom
                   Q00  =   0.078307

H          x =  0.765591  y = -3.143133  z =  1.053835 angstrom
           Maximum rank =  0   Radius =  0.325 angstrom
                   Q00  =   0.078510

H          x = -0.070529  y = -2.859673  z =  2.614385 angstrom
           Maximum rank =  0   Radius =  0.325 angstrom
                   Q00  =   0.078149

H          x = -0.998539  y = -3.398833  z =  1.173595 angstrom
           Maximum rank =  0   Radius =  0.325 angstrom
                   Q00  =   0.077753

Total multipoles referred to origin at
           x =   0.000000,  y =    0.000000,  z =    0.000000 angstrom
                   Q00  =  -0.000000

Finished at 6:50:15 on 27 Apr 2020

  DMA results are available in the Python driver through the
	  variable('DMA DISTRIBUTED MULTIPOLES')
  and
	  variable('DMA TOTAL MULTIPOLES')
  commands.

    Psi4 stopped on: Monday, 27 April 2020 06:50AM
    Psi4 wall time for execution: 0:00:10.03

*** Psi4 exiting successfully. Buy a developer a beer!
