                               Psi4 1.3.2 release

  ==> Input File <==

--------------------------------------------------------------------------
import numpy as np
set {scf_type pk
basis cc-pvdz
d_convergence 10
gdma_switch   0
gdma_limit    0
gdma_origin   [ 0.0,  0.0,  0.0 ]
}
molecule test {
    units Angstrom
    0 1
    --
    0 1
    C               -2.492442762111125    -2.510630981797807     0.439791834911377
    C               -1.516442762111126    -1.792630981797808     1.357791834911377
    O               -0.848442762111126    -0.854630981797808     0.890791834911377
    O               -1.471442762111125    -2.161630981797808     2.552791834911377
    H               -3.196442762111126    -3.089630981797808     1.041791834911377
    H               -1.934442762111126    -3.211630981797807    -0.184208165088623
    H               -3.057702762111125    -1.827970981797808    -0.211708165088623
    C                2.236557237888874     2.121369018202192    -2.671208165088623
    C                1.023557237888875     1.310369018202192    -0.649208165088623
    N                1.835557237888874     2.165369018202192    -1.254208165088623
    N                0.497557237888874     0.287369018202192    -1.291208165088623
    N                0.741557237888875     1.463369018202192     0.630791834911377
    H                2.280557237888874     2.860369018202193    -0.671208165088623
    H                0.698557237888875     0.116369018202192    -2.260208165088623
    H               -0.088442762111126    -0.330630981797808    -0.730208165088623
    H                1.130557237888875     2.213369018202192     1.181791834911377
    H                0.110557237888874     0.770369018202192     1.034791834911377
    H                1.750557237888875     1.310369018202192    -3.214208165088623
    H                3.314557237888874     1.955369018202192    -2.725208165088624
    H                2.004877237888874     3.069239018202192    -3.179019165088623

}
e, wfn = energy('scf', return_wfn=True)
gdma(wfn)
dmavals = variable('DMA DISTRIBUTED MULTIPOLES')
charges = np.array(dmavals)
print(charges)
np.save('SSI-153ASP-200ARG-1-dimer.npy', np.array(charges))--------------------------------------------------------------------------

*** tstart() called on ds3
*** at Tue Apr 28 04:43:45 2020

   => Loading Basis Set <=

    Name: CC-PVDZ
    Role: ORBITAL
    Keyword: BASIS
    atoms 1-2, 8-9   entry C          line   138 file /theoryfs2/ds/metcalf/miniconda2/envs/tf2gpu/share/psi4/basis/cc-pvdz.gbs
    atoms 3-4        entry O          line   198 file /theoryfs2/ds/metcalf/miniconda2/envs/tf2gpu/share/psi4/basis/cc-pvdz.gbs
    atoms 5-7, 13-20 entry H          line    22 file /theoryfs2/ds/metcalf/miniconda2/envs/tf2gpu/share/psi4/basis/cc-pvdz.gbs
    atoms 10-12      entry N          line   168 file /theoryfs2/ds/metcalf/miniconda2/envs/tf2gpu/share/psi4/basis/cc-pvdz.gbs

         ---------------------------------------------------------
                                   SCF
               by Justin Turney, Rob Parrish, Andy Simmonett
                          and Daniel G. A. Smith
                              RHF Reference
                        1 Threads,    500 MiB Core
         ---------------------------------------------------------

  ==> Geometry <==

    Molecular point group: c1
    Full point group: C1

    Geometry (in Angstrom), charge = 0, multiplicity = 1:

       Center              X                  Y                   Z               Mass
    ------------   -----------------  -----------------  -----------------  -----------------
         C           -2.492442762111    -2.510630981798     0.439791834911    12.000000000000
         C           -1.516442762111    -1.792630981798     1.357791834911    12.000000000000
         O           -0.848442762111    -0.854630981798     0.890791834911    15.994914619570
         O           -1.471442762111    -2.161630981798     2.552791834911    15.994914619570
         H           -3.196442762111    -3.089630981798     1.041791834911     1.007825032230
         H           -1.934442762111    -3.211630981798    -0.184208165089     1.007825032230
         H           -3.057702762111    -1.827970981798    -0.211708165089     1.007825032230
         C            2.236557237889     2.121369018202    -2.671208165089    12.000000000000
         C            1.023557237889     1.310369018202    -0.649208165089    12.000000000000
         N            1.835557237889     2.165369018202    -1.254208165089    14.003074004430
         N            0.497557237889     0.287369018202    -1.291208165089    14.003074004430
         N            0.741557237889     1.463369018202     0.630791834911    14.003074004430
         H            2.280557237889     2.860369018202    -0.671208165089     1.007825032230
         H            0.698557237889     0.116369018202    -2.260208165089     1.007825032230
         H           -0.088442762111    -0.330630981798    -0.730208165089     1.007825032230
         H            1.130557237889     2.213369018202     1.181791834911     1.007825032230
         H            0.110557237889     0.770369018202     1.034791834911     1.007825032230
         H            1.750557237889     1.310369018202    -3.214208165089     1.007825032230
         H            3.314557237889     1.955369018202    -2.725208165089     1.007825032230
         H            2.004877237889     3.069239018202    -3.179019165089     1.007825032230

  Running in c1 symmetry.

  Rotational constants: A =      0.14354  B =      0.01745  C =      0.01586 [cm^-1]
  Rotational constants: A =   4303.28748  B =    523.20091  C =    475.36698 [MHz]
  Nuclear repulsion =  449.278806613324832

  Charge       = 0
  Multiplicity = 1
  Electrons    = 72
  Nalpha       = 36
  Nbeta        = 36

  ==> Algorithm <==

  SCF Algorithm Type is PK.
  DIIS enabled.
  MOM disabled.
  Fractional occupation disabled.
  Guess Type is SAD.
  Energy threshold   = 1.00e-06
  Density threshold  = 1.00e-10
  Integral threshold = 0.00e+00

  ==> Primary Basis <==

  Basis Set: CC-PVDZ
    Blend: CC-PVDZ
    Number of shells: 87
    Number of basis function: 181
    Number of Cartesian functions: 190
    Spherical Harmonics?: true
    Max angular momentum: 2

  ==> Pre-Iterations <==

   -------------------------------------------------------
    Irrep   Nso     Nmo     Nalpha   Nbeta   Ndocc  Nsocc
   -------------------------------------------------------
     A        181     181       0       0       0       0
   -------------------------------------------------------
    Total     181     181      36      36      36       0
   -------------------------------------------------------

  ==> Integral Setup <==

  Using integral reordering PK algorithm.
  Sizing the integral batches needed.
  Building batch lookup table.
   Calculation information:
      Number of atoms:                  20
      Number of AO shells:              87
      Number of primitives:            253
      Number of atomic orbitals:       190
      Number of basis functions:       181

      Integral cutoff                 1.00e-12
      Number of threads:                 1

	Batch   1 pq = [       0,    9405] index = [             0,44231715] size =     44231715
	Batch   2 pq = [    9405,   13301] index = [      44231715,88464951] size =     44233236
	Batch   3 pq = [   13301,   16471] index = [      88464951,135655156] size =     47190205
  Task number: 13
  Buffer size: 11059200
  Buffer per thread: 2
  We computed 5383762 shell quartets total.
  Whereas there are 7328706 unique shell quartets.

  ==> DiskJK: Disk-Based J/K Matrices <==

    J tasked:                  Yes
    K tasked:                  Yes
    wK tasked:                  No
    Memory [MiB]:              375
    Schwarz Cutoff:          1E-12

    OpenMP threads:              1

  Minimum eigenvalue in the overlap matrix is 3.9071502880E-03.
  Using Symmetric Orthogonalization.

  SCF Guess: Superposition of Atomic Densities via on-the-fly atomic UHF.

  ==> Iterations <==

                        Total Energy        Delta E     RMS |[F,P]|

   @RHF iter SAD:  -469.74289174200669   -4.69743e+02   0.00000e+00
   @RHF iter   1:  -470.70307455883989   -9.60183e-01   4.21156e-03 DIIS
   @RHF iter   2:  -470.92669775374310   -2.23623e-01   2.21813e-03 DIIS
   @RHF iter   3:  -470.98506687808316   -5.83691e-02   4.05963e-04 DIIS
   @RHF iter   4:  -470.98842434690619   -3.35747e-03   1.58829e-04 DIIS
   @RHF iter   5:  -470.98889646728577   -4.72120e-04   3.26731e-05 DIIS
   @RHF iter   6:  -470.98892460650052   -2.81392e-05   1.68398e-05 DIIS
   @RHF iter   7:  -470.98893087462244   -6.26812e-06   4.35687e-06 DIIS
   @RHF iter   8:  -470.98893180798086   -9.33358e-07   1.93296e-06 DIIS
   @RHF iter   9:  -470.98893195737759   -1.49397e-07   6.95121e-07 DIIS
   @RHF iter  10:  -470.98893198226949   -2.48919e-08   2.06260e-07 DIIS
   @RHF iter  11:  -470.98893198414748   -1.87799e-09   5.11437e-08 DIIS
   @RHF iter  12:  -470.98893198423008   -8.25935e-11   1.80275e-08 DIIS
   @RHF iter  13:  -470.98893198424093   -1.08571e-11   4.77088e-09 DIIS
   @RHF iter  14:  -470.98893198423866    2.27374e-12   1.33694e-09 DIIS
   @RHF iter  15:  -470.98893198424207   -3.41061e-12   4.65279e-10 DIIS
   @RHF iter  16:  -470.98893198423934    2.72848e-12   1.50979e-10 DIIS
   @RHF iter  17:  -470.98893198424025   -9.09495e-13   6.07807e-11 DIIS
  Energy and wave function converged.

  ==> Post-Iterations <==

    Orbital Energies [Eh]
    ---------------------

    Doubly Occupied:

       1A    -20.432341     2A    -20.397116     3A    -15.658980
       4A    -15.622949     5A    -15.622003     6A    -11.439987
       7A    -11.339700     8A    -11.261385     9A    -11.167240
      10A     -1.398810    11A     -1.307861    12A     -1.263928
      13A     -1.230371    14A     -1.189639    15A     -1.024166
      16A     -0.917705    17A     -0.891743    18A     -0.836586
      19A     -0.783334    20A     -0.715848    21A     -0.704531
      22A     -0.693780    23A     -0.671134    24A     -0.633710
      25A     -0.620244    26A     -0.618034    27A     -0.554588
      28A     -0.537850    29A     -0.536134    30A     -0.476584
      31A     -0.458503    32A     -0.452191    33A     -0.449166
      34A     -0.343273    35A     -0.315383    36A     -0.313054

    Virtual:

      37A      0.118311    38A      0.137743    39A      0.171729
      40A      0.173641    41A      0.207507    42A      0.215320
      43A      0.236231    44A      0.262289    45A      0.275193
      46A      0.286620    47A      0.315972    48A      0.327524
      49A      0.346678    50A      0.362918    51A      0.420242
      52A      0.454210    53A      0.470601    54A      0.496217
      55A      0.532802    56A      0.550709    57A      0.570606
      58A      0.623107    59A      0.630316    60A      0.667422
      61A      0.680188    62A      0.684181    63A      0.695547
      64A      0.702764    65A      0.725032    66A      0.753478
      67A      0.773988    68A      0.792167    69A      0.798203
      70A      0.805259    71A      0.829622    72A      0.846245
      73A      0.864477    74A      0.876821    75A      0.892026
      76A      0.919545    77A      0.927130    78A      0.939952
      79A      0.950976    80A      0.963422    81A      0.976489
      82A      1.000602    83A      1.026248    84A      1.040805
      85A      1.080824    86A      1.091756    87A      1.125388
      88A      1.150589    89A      1.191883    90A      1.218035
      91A      1.226463    92A      1.274883    93A      1.277140
      94A      1.296962    95A      1.311864    96A      1.322108
      97A      1.347170    98A      1.409531    99A      1.422867
     100A      1.444023   101A      1.460366   102A      1.486281
     103A      1.492672   104A      1.520826   105A      1.564216
     106A      1.586079   107A      1.603078   108A      1.610078
     109A      1.629812   110A      1.646456   111A      1.659818
     112A      1.695418   113A      1.713662   114A      1.730439
     115A      1.749866   116A      1.830363   117A      1.831672
     118A      1.861962   119A      1.879960   120A      1.886871
     121A      1.896651   122A      1.898669   123A      1.919836
     124A      1.957068   125A      1.970624   126A      1.992033
     127A      2.011222   128A      2.018820   129A      2.039279
     130A      2.057213   131A      2.089707   132A      2.108649
     133A      2.131033   134A      2.168919   135A      2.198807
     136A      2.209307   137A      2.215839   138A      2.284251
     139A      2.285907   140A      2.309811   141A      2.327990
     142A      2.404342   143A      2.424783   144A      2.433220
     145A      2.437246   146A      2.485261   147A      2.498361
     148A      2.542504   149A      2.565467   150A      2.575579
     151A      2.596483   152A      2.635955   153A      2.660654
     154A      2.678411   155A      2.701914   156A      2.715227
     157A      2.753276   158A      2.801189   159A      2.841409
     160A      2.851692   161A      2.869965   162A      2.896199
     163A      2.934556   164A      2.972536   165A      2.999206
     166A      3.049613   167A      3.092826   168A      3.120271
     169A      3.146945   170A      3.198757   171A      3.211108
     172A      3.290073   173A      3.335221   174A      3.479080
     175A      3.660801   176A      3.684354   177A      3.722154
     178A      3.842789   179A      3.926080   180A      3.987112
     181A      4.062063

    Final Occupation by Irrep:
              A
    DOCC [    36 ]

  @RHF Final Energy:  -470.98893198424025

   => Energetics <=

    Nuclear Repulsion Energy =            449.2788066133248321
    One-Electron Energy =               -1534.7757757472579669
    Two-Electron Energy =                 614.5080371496928819
    Total Energy =                       -470.9889319842402529

Computation Completed

Properties will be evaluated at   0.000000,   0.000000,   0.000000 [a0]

Properties computed using the SCF density matrix

  Nuclear Dipole Moment: [e a0]
     X:     2.8047      Y:     3.5699      Z:    -9.2753

  Electronic Dipole Moment: [e a0]
     X:     0.4204      Y:     0.4817      Z:     5.2758

  Dipole Moment: [e a0]
     X:     3.2251      Y:     4.0515      Z:    -3.9995     Total:     6.5431

  Dipole Moment: [D]
     X:     8.1974      Y:    10.2980      Z:   -10.1658     Total:    16.6310

*** tstop() called on ds3 at Tue Apr 28 04:46:31 2020
Module time:
	user time   =      39.73 seconds =       0.66 minutes
	system time =      18.19 seconds =       0.30 minutes
	total time  =        166 seconds =       2.77 minutes
Total time:
	user time   =      39.73 seconds =       0.66 minutes
	system time =      18.19 seconds =       0.30 minutes
	total time  =        166 seconds =       2.77 minutes
                                     G D M A

                                 by Anthony Stone

                           version 2.2.06, 22 June 2011

               Distributed Multipoles from Gaussian wavefunctions

Starting at 4:46:31 on 28 Apr 2020

Using SCF density matrix from file ./SSI/SSI-153ASP-200ARG-1-dimer.test.27783.fchk

                         Distributed Multipole Analysis

Standard DMA

Positions and radii in angstrom
Multipole moments in atomic units, ea_0^k for rank k

C          x = -2.492443  y = -2.510631  z =  0.439792 angstrom
           Maximum rank =  0   Radius =  0.650 angstrom
                   Q00  =  -0.285012

C          x = -1.516443  y = -1.792631  z =  1.357792 angstrom
           Maximum rank =  0   Radius =  0.650 angstrom
                   Q00  =   0.926607

O          x = -0.848443  y = -0.854631  z =  0.890792 angstrom
           Maximum rank =  0   Radius =  0.650 angstrom
                   Q00  =  -0.938992

O          x = -1.471443  y = -2.161631  z =  2.552792 angstrom
           Maximum rank =  0   Radius =  0.650 angstrom
                   Q00  =  -0.869903

H          x = -3.196443  y = -3.089631  z =  1.041792 angstrom
           Maximum rank =  0   Radius =  0.325 angstrom
                   Q00  =   0.094347

H          x = -1.934443  y = -3.211631  z = -0.184208 angstrom
           Maximum rank =  0   Radius =  0.325 angstrom
                   Q00  =   0.087447

H          x = -3.057703  y = -1.827971  z = -0.211708 angstrom
           Maximum rank =  0   Radius =  0.325 angstrom
                   Q00  =   0.067064

C          x =  2.236557  y =  2.121369  z = -2.671208 angstrom
           Maximum rank =  0   Radius =  0.650 angstrom
                   Q00  =  -0.108361

C          x =  1.023557  y =  1.310369  z = -0.649208 angstrom
           Maximum rank =  0   Radius =  0.650 angstrom
                   Q00  =   1.074509

N          x =  1.835557  y =  2.165369  z = -1.254208 angstrom
           Maximum rank =  0   Radius =  0.650 angstrom
                   Q00  =  -0.513484

N          x =  0.497557  y =  0.287369  z = -1.291208 angstrom
           Maximum rank =  0   Radius =  0.650 angstrom
                   Q00  =  -0.583801

N          x =  0.741557  y =  1.463369  z =  0.630792 angstrom
           Maximum rank =  0   Radius =  0.650 angstrom
                   Q00  =  -0.578741

H          x =  2.280557  y =  2.860369  z = -0.671208 angstrom
           Maximum rank =  0   Radius =  0.325 angstrom
                   Q00  =   0.210192

H          x =  0.698557  y =  0.116369  z = -2.260208 angstrom
           Maximum rank =  0   Radius =  0.325 angstrom
                   Q00  =   0.231771

H          x = -0.088443  y = -0.330631  z = -0.730208 angstrom
           Maximum rank =  0   Radius =  0.325 angstrom
                   Q00  =   0.291417

H          x =  1.130557  y =  2.213369  z =  1.181792 angstrom
           Maximum rank =  0   Radius =  0.325 angstrom
                   Q00  =   0.234668

H          x =  0.110557  y =  0.770369  z =  1.034792 angstrom
           Maximum rank =  0   Radius =  0.325 angstrom
                   Q00  =   0.303683

H          x =  1.750557  y =  1.310369  z = -3.214208 angstrom
           Maximum rank =  0   Radius =  0.325 angstrom
                   Q00  =   0.113262

H          x =  3.314557  y =  1.955369  z = -2.725208 angstrom
           Maximum rank =  0   Radius =  0.325 angstrom
                   Q00  =   0.119096

H          x =  2.004877  y =  3.069239  z = -3.179019 angstrom
           Maximum rank =  0   Radius =  0.325 angstrom
                   Q00  =   0.124231

Total multipoles referred to origin at
           x =   0.000000,  y =    0.000000,  z =    0.000000 angstrom
                   Q00  =  -0.000000

Finished at 4:46:31 on 28 Apr 2020

  DMA results are available in the Python driver through the
	  variable('DMA DISTRIBUTED MULTIPOLES')
  and
	  variable('DMA TOTAL MULTIPOLES')
  commands.

    Psi4 stopped on: Tuesday, 28 April 2020 04:46AM
    Psi4 wall time for execution: 0:02:46.74

*** Psi4 exiting successfully. Buy a developer a beer!
