                               Psi4 1.3.2 release

  ==> Input File <==

--------------------------------------------------------------------------
import numpy as np
set {scf_type pk
basis cc-pvdz
d_convergence 10
gdma_switch   0
gdma_limit    0
gdma_origin   [ 0.0,  0.0,  0.0 ]
}
molecule test {
    units Angstrom
    -1 1
    --
    -1 1
    C                2.549161941405478     0.309125674776481    -0.193440085173323
    C                1.183161941405478    -0.330874325223519    -0.076440085173323
    O                0.694161941405478    -0.443874325223519     1.070559914826677
    O                0.610161941405478    -0.728874325223519    -1.118440085173323
    H                2.418161941405478     1.383125674776481    -0.337440085173323
    H                3.071161941405478    -0.086874325223519    -1.067440085173323
    H                3.161011941405478     0.145917174776481     0.706004114826677
    C               -2.072838058594522     0.926125674776481    -0.390440085173323
    C               -2.873838058594522     0.236125674776481     0.703559914826677
    H               -1.767838058594522     0.201125674776481    -1.145440085173323
    H               -2.687838058594522     1.688125674776481    -0.873440085173323
    H               -1.189838058594522     1.402125674776481     0.035559914826677
    H               -3.271838058594522     1.018125674776481     1.353559914826677
    H               -2.242448058594522    -0.427861925223519     1.312215214826677
    H               -3.732018058594522    -0.291207425223519     0.261467014826677

}
e, wfn = energy('scf', return_wfn=True)
gdma(wfn)
dmavals = variable('DMA DISTRIBUTED MULTIPOLES')
charges = np.array(dmavals)
print(charges)
np.save('SSI-018ASP-034ALA-1-dimer.npy', np.array(charges))--------------------------------------------------------------------------

*** tstart() called on ds3
*** at Mon Apr 27 13:03:09 2020

   => Loading Basis Set <=

    Name: CC-PVDZ
    Role: ORBITAL
    Keyword: BASIS
    atoms 1-2, 8-9   entry C          line   138 file /theoryfs2/ds/metcalf/miniconda2/envs/tf2gpu/share/psi4/basis/cc-pvdz.gbs
    atoms 3-4        entry O          line   198 file /theoryfs2/ds/metcalf/miniconda2/envs/tf2gpu/share/psi4/basis/cc-pvdz.gbs
    atoms 5-7, 10-15 entry H          line    22 file /theoryfs2/ds/metcalf/miniconda2/envs/tf2gpu/share/psi4/basis/cc-pvdz.gbs

         ---------------------------------------------------------
                                   SCF
               by Justin Turney, Rob Parrish, Andy Simmonett
                          and Daniel G. A. Smith
                              RHF Reference
                        1 Threads,    500 MiB Core
         ---------------------------------------------------------

  ==> Geometry <==

    Molecular point group: c1
    Full point group: C1

    Geometry (in Angstrom), charge = -1, multiplicity = 1:

       Center              X                  Y                   Z               Mass
    ------------   -----------------  -----------------  -----------------  -----------------
         C            2.549161941405     0.309125674776    -0.193440085173    12.000000000000
         C            1.183161941405    -0.330874325224    -0.076440085173    12.000000000000
         O            0.694161941405    -0.443874325224     1.070559914827    15.994914619570
         O            0.610161941405    -0.728874325224    -1.118440085173    15.994914619570
         H            2.418161941405     1.383125674776    -0.337440085173     1.007825032230
         H            3.071161941405    -0.086874325224    -1.067440085173     1.007825032230
         H            3.161011941405     0.145917174776     0.706004114827     1.007825032230
         C           -2.072838058595     0.926125674776    -0.390440085173    12.000000000000
         C           -2.873838058595     0.236125674776     0.703559914827    12.000000000000
         H           -1.767838058595     0.201125674776    -1.145440085173     1.007825032230
         H           -2.687838058595     1.688125674776    -0.873440085173     1.007825032230
         H           -1.189838058595     1.402125674776     0.035559914827     1.007825032230
         H           -3.271838058595     1.018125674776     1.353559914827     1.007825032230
         H           -2.242448058595    -0.427861925224     1.312215214827     1.007825032230
         H           -3.732018058595    -0.291207425224     0.261467014827     1.007825032230

  Running in c1 symmetry.

  Rotational constants: A =      0.21404  B =      0.04659  C =      0.04358 [cm^-1]
  Rotational constants: A =   6416.80378  B =   1396.66823  C =   1306.57601 [MHz]
  Nuclear repulsion =  229.212104874173519

  Charge       = -1
  Multiplicity = 1
  Electrons    = 50
  Nalpha       = 25
  Nbeta        = 25

  ==> Algorithm <==

  SCF Algorithm Type is PK.
  DIIS enabled.
  MOM disabled.
  Fractional occupation disabled.
  Guess Type is SAD.
  Energy threshold   = 1.00e-06
  Density threshold  = 1.00e-10
  Integral threshold = 0.00e+00

  ==> Primary Basis <==

  Basis Set: CC-PVDZ
    Blend: CC-PVDZ
    Number of shells: 63
    Number of basis function: 129
    Number of Cartesian functions: 135
    Spherical Harmonics?: true
    Max angular momentum: 2

  ==> Pre-Iterations <==

   -------------------------------------------------------
    Irrep   Nso     Nmo     Nalpha   Nbeta   Ndocc  Nsocc
   -------------------------------------------------------
     A        129     129       0       0       0       0
   -------------------------------------------------------
    Total     129     129      25      25      25       0
   -------------------------------------------------------

  ==> Integral Setup <==

  Using integral reordering PK algorithm.
  Sizing the integral batches needed.
  Building batch lookup table.
   Calculation information:
      Number of atoms:                  15
      Number of AO shells:              63
      Number of primitives:            177
      Number of atomic orbitals:       135
      Number of basis functions:       129

      Integral cutoff                 1.00e-12
      Number of threads:                 1

	Batch   1 pq = [       0,    8385] index = [             0,35158305] size =     35158305
  Task number: 4
  Buffer size: 11059200
  Buffer per thread: 2
  We computed 1764090 shell quartets total.
  Whereas there are 2033136 unique shell quartets.

  ==> DiskJK: Disk-Based J/K Matrices <==

    J tasked:                  Yes
    K tasked:                  Yes
    wK tasked:                  No
    Memory [MiB]:              375
    Schwarz Cutoff:          1E-12

    OpenMP threads:              1

  Minimum eigenvalue in the overlap matrix is 5.1568991628E-03.
  Using Symmetric Orthogonalization.

  SCF Guess: Superposition of Atomic Densities via on-the-fly atomic UHF.

  ==> Iterations <==

                        Total Energy        Delta E     RMS |[F,P]|

   @RHF iter SAD:  -304.86926812913259   -3.04869e+02   0.00000e+00
   @RHF iter   1:  -306.20963949203349   -1.34037e+00   5.66853e-03 DIIS
   @RHF iter   2:  -306.41273863812870   -2.03099e-01   3.18881e-03 DIIS
   @RHF iter   3:  -306.47524229433043   -6.25037e-02   4.73697e-04 DIIS
   @RHF iter   4:  -306.47780257518878   -2.56028e-03   1.78254e-04 DIIS
   @RHF iter   5:  -306.47818495162807   -3.82376e-04   2.55568e-05 DIIS
   @RHF iter   6:  -306.47819509802071   -1.01464e-05   5.54143e-06 DIIS
   @RHF iter   7:  -306.47819556955642   -4.71536e-07   1.73060e-06 DIIS
   @RHF iter   8:  -306.47819561177556   -4.22191e-08   5.96325e-07 DIIS
   @RHF iter   9:  -306.47819561707774   -5.30218e-09   2.75583e-07 DIIS
   @RHF iter  10:  -306.47819561843778   -1.36004e-09   1.00967e-07 DIIS
   @RHF iter  11:  -306.47819561879544   -3.57659e-10   2.77602e-08 DIIS
   @RHF iter  12:  -306.47819561882613   -3.06954e-11   7.04763e-09 DIIS
   @RHF iter  13:  -306.47819561882841   -2.27374e-12   1.94565e-09 DIIS
   @RHF iter  14:  -306.47819561882903   -6.25278e-13   6.16086e-10 DIIS
   @RHF iter  15:  -306.47819561882875    2.84217e-13   2.00793e-10 DIIS
   @RHF iter  16:  -306.47819561882841    3.41061e-13   6.63863e-11 DIIS
  Energy and wave function converged.

  ==> Post-Iterations <==

    Orbital Energies [Eh]
    ---------------------

    Doubly Occupied:

       1A    -20.259969     2A    -20.259512     3A    -11.115852
       4A    -11.077285     5A    -11.060370     6A    -11.050609
       7A     -1.147972     8A     -1.035681     9A     -0.870926
      10A     -0.797901    11A     -0.687068    12A     -0.501911
      13A     -0.452800    14A     -0.447355    15A     -0.412029
      16A     -0.408108    17A     -0.403025    18A     -0.353963
      19A     -0.343869    20A     -0.339710    21A     -0.329975
      22A     -0.299978    23A     -0.182599    24A     -0.172471
      25A     -0.161263

    Virtual:

      26A      0.324794    27A      0.348161    28A      0.376165
      29A      0.386210    30A      0.392268    31A      0.415838
      32A      0.429372    33A      0.438536    34A      0.450581
      35A      0.501607    36A      0.541132    37A      0.574147
      38A      0.686138    39A      0.709342    40A      0.747349
      41A      0.751043    42A      0.778396    43A      0.819727
      44A      0.821299    45A      0.861295    46A      0.879596
      47A      0.962444    48A      0.993066    49A      1.009381
      50A      1.016617    51A      1.028611    52A      1.032508
      53A      1.036168    54A      1.044368    55A      1.058203
      56A      1.067382    57A      1.088402    58A      1.121956
      59A      1.144909    60A      1.148072    61A      1.225504
      62A      1.269423    63A      1.290947    64A      1.349670
      65A      1.354414    66A      1.385866    67A      1.440545
      68A      1.539010    69A      1.574854    70A      1.582487
      71A      1.605414    72A      1.617083    73A      1.643141
      74A      1.670264    75A      1.694494    76A      1.741807
      77A      1.760629    78A      1.819602    79A      1.838913
      80A      1.841058    81A      1.895584    82A      2.008173
      83A      2.026608    84A      2.047777    85A      2.054235
      86A      2.072960    87A      2.092701    88A      2.100289
      89A      2.104346    90A      2.111213    91A      2.122346
      92A      2.145761    93A      2.157133    94A      2.214893
      95A      2.239395    96A      2.253198    97A      2.296514
      98A      2.402203    99A      2.423193   100A      2.432207
     101A      2.455428   102A      2.487036   103A      2.558384
     104A      2.600908   105A      2.624535   106A      2.687016
     107A      2.709579   108A      2.715447   109A      2.736378
     110A      2.767377   111A      2.905587   112A      2.910723
     113A      2.950211   114A      2.968226   115A      2.981894
     116A      2.988327   117A      3.011830   118A      3.098481
     119A      3.127237   120A      3.243926   121A      3.274924
     122A      3.303596   123A      3.361685   124A      3.630988
     125A      3.796161   126A      3.834050   127A      4.065911
     128A      4.082549   129A      4.196824

    Final Occupation by Irrep:
              A
    DOCC [    25 ]

  @RHF Final Energy:  -306.47819561882841

   => Energetics <=

    Nuclear Repulsion Energy =            229.2121048741735194
    One-Electron Energy =                -883.0361983488321584
    Two-Electron Energy =                 347.3458978558302306
    Total Energy =                       -306.4781956188284084

Computation Completed

Properties will be evaluated at   0.000000,   0.000000,   0.000000 [a0]

Properties computed using the SCF density matrix

  Nuclear Dipole Moment: [e a0]
     X:    -5.8449      Y:     4.7123      Z:     0.2295

  Electronic Dipole Moment: [e a0]
     X:     5.3595      Y:    -3.6965      Z:    -0.2385

  Dipole Moment: [e a0]
     X:    -0.4854      Y:     1.0157      Z:    -0.0090     Total:     1.1258

  Dipole Moment: [D]
     X:    -1.2337      Y:     2.5818      Z:    -0.0230     Total:     2.8615

*** tstop() called on ds3 at Mon Apr 27 13:03:34 2020
Module time:
	user time   =      18.50 seconds =       0.31 minutes
	system time =       6.99 seconds =       0.12 minutes
	total time  =         25 seconds =       0.42 minutes
Total time:
	user time   =      18.50 seconds =       0.31 minutes
	system time =       6.99 seconds =       0.12 minutes
	total time  =         25 seconds =       0.42 minutes
                                     G D M A

                                 by Anthony Stone

                           version 2.2.06, 22 June 2011

               Distributed Multipoles from Gaussian wavefunctions

Starting at 13:3:34 on 27 Apr 2020

Using SCF density matrix from file ./SSI/SSI-018ASP-034ALA-1-dimer.test.5155.fchk

                         Distributed Multipole Analysis

Standard DMA

Positions and radii in angstrom
Multipole moments in atomic units, ea_0^k for rank k

C          x =  2.549162  y =  0.309126  z = -0.193440 angstrom
           Maximum rank =  0   Radius =  0.650 angstrom
                   Q00  =  -0.267961

C          x =  1.183162  y = -0.330874  z = -0.076440 angstrom
           Maximum rank =  0   Radius =  0.650 angstrom
                   Q00  =   0.951889

O          x =  0.694162  y = -0.443874  z =  1.070560 angstrom
           Maximum rank =  0   Radius =  0.650 angstrom
                   Q00  =  -0.925353

O          x =  0.610162  y = -0.728874  z = -1.118440 angstrom
           Maximum rank =  0   Radius =  0.650 angstrom
                   Q00  =  -0.923136

H          x =  2.418162  y =  1.383126  z = -0.337440 angstrom
           Maximum rank =  0   Radius =  0.325 angstrom
                   Q00  =   0.075690

H          x =  3.071162  y = -0.086874  z = -1.067440 angstrom
           Maximum rank =  0   Radius =  0.325 angstrom
                   Q00  =   0.051620

H          x =  3.161012  y =  0.145917  z =  0.706004 angstrom
           Maximum rank =  0   Radius =  0.325 angstrom
                   Q00  =   0.054344

C          x = -2.072838  y =  0.926126  z = -0.390440 angstrom
           Maximum rank =  0   Radius =  0.650 angstrom
                   Q00  =  -0.179692

C          x = -2.873838  y =  0.236126  z =  0.703560 angstrom
           Maximum rank =  0   Radius =  0.650 angstrom
                   Q00  =  -0.212342

H          x = -1.767838  y =  0.201126  z = -1.145440 angstrom
           Maximum rank =  0   Radius =  0.325 angstrom
                   Q00  =   0.108829

H          x = -2.687838  y =  1.688126  z = -0.873440 angstrom
           Maximum rank =  0   Radius =  0.325 angstrom
                   Q00  =   0.000979

H          x = -1.189838  y =  1.402126  z =  0.035560 angstrom
           Maximum rank =  0   Radius =  0.325 angstrom
                   Q00  =   0.093481

H          x = -3.271838  y =  1.018126  z =  1.353560 angstrom
           Maximum rank =  0   Radius =  0.325 angstrom
                   Q00  =   0.027163

H          x = -2.242448  y = -0.427862  z =  1.312215 angstrom
           Maximum rank =  0   Radius =  0.325 angstrom
                   Q00  =   0.108422

H          x = -3.732018  y = -0.291207  z =  0.261467 angstrom
           Maximum rank =  0   Radius =  0.325 angstrom
                   Q00  =   0.036069

Total multipoles referred to origin at
           x =   0.000000,  y =    0.000000,  z =    0.000000 angstrom
                   Q00  =  -1.000000

Finished at 13:3:34 on 27 Apr 2020

  DMA results are available in the Python driver through the
	  variable('DMA DISTRIBUTED MULTIPOLES')
  and
	  variable('DMA TOTAL MULTIPOLES')
  commands.

    Psi4 stopped on: Monday, 27 April 2020 01:03PM
    Psi4 wall time for execution: 0:00:25.06

*** Psi4 exiting successfully. Buy a developer a beer!
