                               Psi4 1.3.2 release

  ==> Input File <==

--------------------------------------------------------------------------
import numpy as np
set {scf_type pk
basis cc-pvdz
d_convergence 10
gdma_switch   0
gdma_limit    0
gdma_origin   [ 0.0,  0.0,  0.0 ]
}
molecule test {
    units Angstrom
    0 1
    --
    0 1
    C               -0.122104600358010     2.657439825504889     2.086946506605279
    C               -1.037104600358010     1.129439825504889     0.159946506605279
    C               -0.169104600358010     2.153439825504889     0.671946506605279
    C               -0.775104600358010     1.000439825504889    -1.238053493394721
    C                0.568895399641990     2.597439825504889    -0.382053493394721
    C               -2.019104600358010     0.296439825504889     0.740946506605279
    C               -1.464104600358010     0.077439825504889    -2.034053493394721
    C               -2.707104600358010    -0.628560174495111    -0.054053493394721
    C               -2.433104600358011    -0.739560174495111    -1.426053493394721
    N                0.212895399641990     1.913439825503889    -1.546053493394721
    H               -2.268104600358011     0.343439825504889     1.794946506605279
    H                0.738895399641990     3.318439825504889     2.169946506605279
    H                0.032895399641990     1.790439825503889     2.732946506605279
    H                1.301895399641990     3.384439825504889    -0.219053493394721
    H                0.604895399641990     2.054439825502890    -2.475053493394721
    H               -1.229104600358010     0.022439825504889    -3.091053493394721
    H               -3.456104600358010    -1.257560174495111     0.411946506605279
    H               -2.980104600358010    -1.462560174495111    -2.015053493394721
    H               -1.011844600358010     3.221839825504889     2.402956506605279
    C                0.968895399641990    -1.902560174495111    -0.260053493394721
    C                1.303895399641990    -3.187560174495111    -1.021053493394721
    C                1.900895399641990    -1.643560174495111     0.935946506605279
    O                2.718895399641990    -2.486560174495111     1.323946506605279
    N                1.781895399641990    -0.467560174495111     1.537946506605279
    H                1.045895399641990    -1.064560174495111    -0.954053493394721
    H               -0.055104600358010    -1.971560174495111     0.103946506605279
    H                1.456895399641990    -3.995560174495111    -0.309053493394721
    H                2.219895399641989    -3.033560174495111    -1.593053493394721
    H                2.371895399641990    -0.246560174496111     2.325946506605279
    H                1.106895399641990     0.202439825504889     1.197946506605279
    H                0.506645399641990    -3.486710174495111    -1.717393493394721

}
e, wfn = energy('scf', return_wfn=True)
gdma(wfn)
dmavals = variable('DMA DISTRIBUTED MULTIPOLES')
charges = np.array(dmavals)
print(charges)
np.save('SSI-135TRP-147GLN-1-dimer.npy', np.array(charges))--------------------------------------------------------------------------

*** tstart() called on ds3
*** at Tue Apr 28 21:30:05 2020

   => Loading Basis Set <=

    Name: CC-PVDZ
    Role: ORBITAL
    Keyword: BASIS
    atoms 1-9, 20-22   entry C          line   138 file /theoryfs2/ds/metcalf/miniconda2/envs/tf2gpu/share/psi4/basis/cc-pvdz.gbs
    atoms 10, 24       entry N          line   168 file /theoryfs2/ds/metcalf/miniconda2/envs/tf2gpu/share/psi4/basis/cc-pvdz.gbs
    atoms 11-19, 25-31 entry H          line    22 file /theoryfs2/ds/metcalf/miniconda2/envs/tf2gpu/share/psi4/basis/cc-pvdz.gbs
    atoms 23           entry O          line   198 file /theoryfs2/ds/metcalf/miniconda2/envs/tf2gpu/share/psi4/basis/cc-pvdz.gbs

         ---------------------------------------------------------
                                   SCF
               by Justin Turney, Rob Parrish, Andy Simmonett
                          and Daniel G. A. Smith
                              RHF Reference
                        1 Threads,    500 MiB Core
         ---------------------------------------------------------

  ==> Geometry <==

    Molecular point group: c1
    Full point group: C1

    Geometry (in Angstrom), charge = 0, multiplicity = 1:

       Center              X                  Y                   Z               Mass
    ------------   -----------------  -----------------  -----------------  -----------------
         C           -0.122104600358     2.657439825505     2.086946506605    12.000000000000
         C           -1.037104600358     1.129439825505     0.159946506605    12.000000000000
         C           -0.169104600358     2.153439825505     0.671946506605    12.000000000000
         C           -0.775104600358     1.000439825505    -1.238053493395    12.000000000000
         C            0.568895399642     2.597439825505    -0.382053493395    12.000000000000
         C           -2.019104600358     0.296439825505     0.740946506605    12.000000000000
         C           -1.464104600358     0.077439825505    -2.034053493395    12.000000000000
         C           -2.707104600358    -0.628560174495    -0.054053493395    12.000000000000
         C           -2.433104600358    -0.739560174495    -1.426053493395    12.000000000000
         N            0.212895399642     1.913439825504    -1.546053493395    14.003074004430
         H           -2.268104600358     0.343439825505     1.794946506605     1.007825032230
         H            0.738895399642     3.318439825505     2.169946506605     1.007825032230
         H            0.032895399642     1.790439825504     2.732946506605     1.007825032230
         H            1.301895399642     3.384439825505    -0.219053493395     1.007825032230
         H            0.604895399642     2.054439825503    -2.475053493395     1.007825032230
         H           -1.229104600358     0.022439825505    -3.091053493395     1.007825032230
         H           -3.456104600358    -1.257560174495     0.411946506605     1.007825032230
         H           -2.980104600358    -1.462560174495    -2.015053493395     1.007825032230
         H           -1.011844600358     3.221839825505     2.402956506605     1.007825032230
         C            0.968895399642    -1.902560174495    -0.260053493395    12.000000000000
         C            1.303895399642    -3.187560174495    -1.021053493395    12.000000000000
         C            1.900895399642    -1.643560174495     0.935946506605    12.000000000000
         O            2.718895399642    -2.486560174495     1.323946506605    15.994914619570
         N            1.781895399642    -0.467560174495     1.537946506605    14.003074004430
         H            1.045895399642    -1.064560174495    -0.954053493395     1.007825032230
         H           -0.055104600358    -1.971560174495     0.103946506605     1.007825032230
         H            1.456895399642    -3.995560174495    -0.309053493395     1.007825032230
         H            2.219895399642    -3.033560174495    -1.593053493395     1.007825032230
         H            2.371895399642    -0.246560174496     2.325946506605     1.007825032230
         H            1.106895399642     0.202439825505     1.197946506605     1.007825032230
         H            0.506645399642    -3.486710174495    -1.717393493395     1.007825032230

  Running in c1 symmetry.

  Rotational constants: A =      0.02335  B =      0.01584  C =      0.01236 [cm^-1]
  Rotational constants: A =    700.09048  B =    474.88949  C =    370.66215 [MHz]
  Nuclear repulsion =  979.316751376446973

  Charge       = 0
  Multiplicity = 1
  Electrons    = 110
  Nalpha       = 55
  Nbeta        = 55

  ==> Algorithm <==

  SCF Algorithm Type is PK.
  DIIS enabled.
  MOM disabled.
  Fractional occupation disabled.
  Guess Type is SAD.
  Energy threshold   = 1.00e-06
  Density threshold  = 1.00e-10
  Integral threshold = 0.00e+00

  ==> Primary Basis <==

  Basis Set: CC-PVDZ
    Blend: CC-PVDZ
    Number of shells: 138
    Number of basis function: 290
    Number of Cartesian functions: 305
    Spherical Harmonics?: true
    Max angular momentum: 2

  ==> Pre-Iterations <==

   -------------------------------------------------------
    Irrep   Nso     Nmo     Nalpha   Nbeta   Ndocc  Nsocc
   -------------------------------------------------------
     A        290     290       0       0       0       0
   -------------------------------------------------------
    Total     290     290      55      55      55       0
   -------------------------------------------------------

  ==> Integral Setup <==

  Using integral reordering PK algorithm.
  Sizing the integral batches needed.
  Building batch lookup table.
   Calculation information:
      Number of atoms:                  31
      Number of AO shells:             138
      Number of primitives:            410
      Number of atomic orbitals:       305
      Number of basis functions:       290

      Integral cutoff                 1.00e-12
      Number of threads:                 1

	Batch   1 pq = [       0,    9405] index = [             0,44231715] size =     44231715
	Batch   2 pq = [    9405,   13301] index = [      44231715,88464951] size =     44233236
	Batch   3 pq = [   13301,   16290] index = [      88464951,132690195] size =     44225244
	Batch   4 pq = [   16290,   18810] index = [     132690195,176917455] size =     44227260
	Batch   5 pq = [   18810,   21030] index = [     176917455,221140965] size =     44223510
	Batch   6 pq = [   21030,   23037] index = [     221140965,265363203] size =     44222238
	Batch   7 pq = [   23037,   24883] index = [     265363203,309594286] size =     44231083
	Batch   8 pq = [   24883,   26601] index = [     309594286,353819901] size =     44225615
	Batch   9 pq = [   26601,   28214] index = [     353819901,398029005] size =     44209104
	Batch  10 pq = [   28214,   29740] index = [     398029005,442248670] size =     44219665
	Batch  11 pq = [   29740,   31191] index = [     442248670,486454836] size =     44206166
	Batch  12 pq = [   31191,   32578] index = [     486454836,530679331] size =     44224495
	Batch  13 pq = [   32578,   33908] index = [     530679331,574893186] size =     44213855
	Batch  14 pq = [   33908,   35188] index = [     574893186,619115266] size =     44222080
	Batch  15 pq = [   35188,   36423] index = [     619115266,663335676] size =     44220410
	Batch  16 pq = [   36423,   37617] index = [     663335676,707538153] size =     44202477
	Batch  17 pq = [   37617,   38775] index = [     707538153,751769700] size =     44231547
	Batch  18 pq = [   38775,   39899] index = [     751769700,795985050] size =     44215350
	Batch  19 pq = [   39899,   40992] index = [     795985050,840192528] size =     44207478
	Batch  20 pq = [   40992,   42057] index = [     840192528,884416653] size =     44224125
	Batch  21 pq = [   42057,   42195] index = [     884416653,890230110] size =      5813457
  Task number: 81
  Buffer size: 11059200
  Buffer per thread: 2
  We computed 55225776 shell quartets total.
  Whereas there are 45998436 unique shell quartets.
    20.06 percent of shell quartets recomputed by reordering.

  ==> DiskJK: Disk-Based J/K Matrices <==

    J tasked:                  Yes
    K tasked:                  Yes
    wK tasked:                  No
    Memory [MiB]:              375
    Schwarz Cutoff:          1E-12

    OpenMP threads:              1

  Minimum eigenvalue in the overlap matrix is 2.5153579374E-04.
  Using Symmetric Orthogonalization.

  SCF Guess: Superposition of Atomic Densities via on-the-fly atomic UHF.

  ==> Iterations <==

                        Total Energy        Delta E     RMS |[F,P]|

   @RHF iter SAD:  -646.47041756992428   -6.46470e+02   0.00000e+00
   @RHF iter   1:  -647.19617679302542   -7.25759e-01   2.65868e-03 DIIS
   @RHF iter   2:  -647.48499659067988   -2.88820e-01   1.39494e-03 DIIS
   @RHF iter   3:  -647.55352079862018   -6.85242e-02   3.42682e-04 DIIS
   @RHF iter   4:  -647.55941080395678   -5.89001e-03   1.33726e-04 DIIS
   @RHF iter   5:  -647.56031447115208   -9.03667e-04   2.14813e-05 DIIS
   @RHF iter   6:  -647.56037053402599   -5.60629e-05   1.06537e-05 DIIS
   @RHF iter   7:  -647.56038193297616   -1.13990e-05   4.54588e-06 DIIS
   @RHF iter   8:  -647.56038489939169   -2.96642e-06   1.68371e-06 DIIS
   @RHF iter   9:  -647.56038537735446   -4.77963e-07   7.60555e-07 DIIS
   @RHF iter  10:  -647.56038547388448   -9.65300e-08   3.28625e-07 DIIS
   @RHF iter  11:  -647.56038549949460   -2.56101e-08   1.41131e-07 DIIS
   @RHF iter  12:  -647.56038550393691   -4.44231e-09   6.63187e-08 DIIS
   @RHF iter  13:  -647.56038550469998   -7.63066e-10   2.32511e-08 DIIS
   @RHF iter  14:  -647.56038550479741   -9.74296e-11   9.35368e-09 DIIS
   @RHF iter  15:  -647.56038550481048   -1.30740e-11   2.96657e-09 DIIS
   @RHF iter  16:  -647.56038550481196   -1.47793e-12   1.16707e-09 DIIS
   @RHF iter  17:  -647.56038550480741    4.54747e-12   5.32827e-10 DIIS
   @RHF iter  18:  -647.56038550481105   -3.63798e-12   2.43686e-10 DIIS
   @RHF iter  19:  -647.56038550481117   -1.13687e-13   1.21179e-10 DIIS
   @RHF iter  20:  -647.56038550481264   -1.47793e-12   5.28836e-11 DIIS
  Energy and wave function converged.

  ==> Post-Iterations <==

    Orbital Energies [Eh]
    ---------------------

    Doubly Occupied:

       1A    -20.488834     2A    -15.622489     3A    -15.567824
       4A    -11.329733     5A    -11.286462     6A    -11.284680
       7A    -11.249637     8A    -11.249411     9A    -11.248443
      10A    -11.245253    11A    -11.240612    12A    -11.238150
      13A    -11.236922    14A    -11.222393    15A    -11.206804
      16A     -1.346970    17A     -1.304389    18A     -1.196644
      19A     -1.138171    20A     -1.091606    21A     -1.026886
      22A     -1.009120    23A     -1.001617    24A     -0.948562
      25A     -0.870379    26A     -0.851813    27A     -0.819712
      28A     -0.767684    29A     -0.764972    30A     -0.732491
      31A     -0.704519    32A     -0.681014    33A     -0.653853
      34A     -0.645320    35A     -0.619217    36A     -0.614183
      37A     -0.607040    38A     -0.605709    39A     -0.580909
      40A     -0.570166    41A     -0.565742    42A     -0.553777
      43A     -0.543081    44A     -0.533597    45A     -0.510880
      46A     -0.506976    47A     -0.487787    48A     -0.484686
      49A     -0.477347    50A     -0.466507    51A     -0.396279
      52A     -0.385895    53A     -0.385342    54A     -0.311766
      55A     -0.293795

    Virtual:

      56A      0.104955    57A      0.149942    58A      0.164742
      59A      0.168221    60A      0.187353    61A      0.201959
      62A      0.207005    63A      0.212708    64A      0.218339
      65A      0.225952    66A      0.229689    67A      0.251547
      68A      0.262481    69A      0.264325    70A      0.271590
      71A      0.274670    72A      0.285257    73A      0.290233
      74A      0.319618    75A      0.327274    76A      0.356651
      77A      0.362013    78A      0.385008    79A      0.399211
      80A      0.404256    81A      0.424125    82A      0.427068
      83A      0.456486    84A      0.465993    85A      0.482678
      86A      0.485902    87A      0.515031    88A      0.541541
      89A      0.582360    90A      0.596188    91A      0.607341
      92A      0.616310    93A      0.618717    94A      0.628304
      95A      0.649560    96A      0.677483    97A      0.691272
      98A      0.694736    99A      0.698536   100A      0.702921
     101A      0.709639   102A      0.719805   103A      0.732628
     104A      0.737467   105A      0.743821   106A      0.750121
     107A      0.765195   108A      0.772759   109A      0.775823
     110A      0.797190   111A      0.812288   112A      0.824739
     113A      0.833494   114A      0.845318   115A      0.855089
     116A      0.857383   117A      0.870227   118A      0.874820
     119A      0.880278   120A      0.888264   121A      0.892686
     122A      0.898850   123A      0.905480   124A      0.910786
     125A      0.921846   126A      0.927337   127A      0.933257
     128A      0.939795   129A      0.944386   130A      0.960509
     131A      0.970323   132A      0.976909   133A      0.991080
     134A      0.994918   135A      1.013792   136A      1.033849
     137A      1.049740   138A      1.056321   139A      1.076412
     140A      1.084722   141A      1.102095   142A      1.113776
     143A      1.127205   144A      1.128212   145A      1.135054
     146A      1.139302   147A      1.155982   148A      1.180600
     149A      1.199539   150A      1.208400   151A      1.216906
     152A      1.217811   153A      1.233667   154A      1.256130
     155A      1.266902   156A      1.272722   157A      1.279607
     158A      1.306280   159A      1.308496   160A      1.332311
     161A      1.336209   162A      1.344685   163A      1.368034
     164A      1.378682   165A      1.391351   166A      1.422575
     167A      1.429451   168A      1.429963   169A      1.459202
     170A      1.497325   171A      1.513575   172A      1.525478
     173A      1.539534   174A      1.562135   175A      1.579037
     176A      1.610267   177A      1.620453   178A      1.629573
     179A      1.647992   180A      1.665827   181A      1.674277
     182A      1.679087   183A      1.711292   184A      1.730878
     185A      1.743470   186A      1.753440   187A      1.770982
     188A      1.787648   189A      1.788753   190A      1.803139
     191A      1.813220   192A      1.820698   193A      1.850203
     194A      1.857323   195A      1.867315   196A      1.887448
     197A      1.890776   198A      1.899846   199A      1.904199
     200A      1.907575   201A      1.920200   202A      1.929571
     203A      1.934686   204A      1.943866   205A      1.949262
     206A      1.960517   207A      1.964991   208A      1.979162
     209A      1.988938   210A      1.993771   211A      2.004445
     212A      2.012029   213A      2.030462   214A      2.042272
     215A      2.047222   216A      2.055308   217A      2.067463
     218A      2.074073   219A      2.075614   220A      2.085414
     221A      2.093062   222A      2.107245   223A      2.122858
     224A      2.130259   225A      2.135785   226A      2.157886
     227A      2.169944   228A      2.185477   229A      2.204249
     230A      2.216182   231A      2.237232   232A      2.259069
     233A      2.275946   234A      2.288445   235A      2.299500
     236A      2.302502   237A      2.314733   238A      2.337753
     239A      2.342321   240A      2.374035   241A      2.393808
     242A      2.403849   243A      2.428412   244A      2.436135
     245A      2.451664   246A      2.500172   247A      2.524839
     248A      2.549428   249A      2.567990   250A      2.577035
     251A      2.606013   252A      2.613989   253A      2.623351
     254A      2.643221   255A      2.647444   256A      2.672592
     257A      2.687207   258A      2.699449   259A      2.742694
     260A      2.758783   261A      2.761511   262A      2.769234
     263A      2.781079   264A      2.797881   265A      2.814038
     266A      2.850393   267A      2.858969   268A      2.867158
     269A      2.893569   270A      2.895966   271A      2.924262
     272A      2.937809   273A      2.986219   274A      3.006871
     275A      3.028958   276A      3.051147   277A      3.067785
     278A      3.089662   279A      3.123376   280A      3.166186
     281A      3.179390   282A      3.265294   283A      3.326389
     284A      3.405313   285A      3.520819   286A      3.542559
     287A      3.715089   288A      3.874394   289A      3.904448
     290A      3.913058

    Final Occupation by Irrep:
              A
    DOCC [    55 ]

  @RHF Final Energy:  -647.56038550481264

   => Energetics <=

    Nuclear Repulsion Energy =            979.3167513764469732
    One-Electron Energy =               -2824.2061740624403683
    Two-Electron Energy =                1197.3290371811808654
    Total Energy =                       -647.5603855048125297

Computation Completed

Properties will be evaluated at   0.000000,   0.000000,   0.000000 [a0]

Properties computed using the SCF density matrix

  Nuclear Dipole Moment: [e a0]
     X:     0.3694      Y:    -2.0605      Z:     0.7252

  Electronic Dipole Moment: [e a0]
     X:    -1.1397      Y:     3.9617      Z:    -1.5218

  Dipole Moment: [e a0]
     X:    -0.7703      Y:     1.9012      Z:    -0.7965     Total:     2.2005

  Dipole Moment: [D]
     X:    -1.9579      Y:     4.8324      Z:    -2.0246     Total:     5.5932

*** tstop() called on ds3 at Tue Apr 28 21:41:45 2020
Module time:
	user time   =     489.46 seconds =       8.16 minutes
	system time =     160.62 seconds =       2.68 minutes
	total time  =        700 seconds =      11.67 minutes
Total time:
	user time   =     489.46 seconds =       8.16 minutes
	system time =     160.62 seconds =       2.68 minutes
	total time  =        700 seconds =      11.67 minutes
                                     G D M A

                                 by Anthony Stone

                           version 2.2.06, 22 June 2011

               Distributed Multipoles from Gaussian wavefunctions

Starting at 21:41:45 on 28 Apr 2020

Using SCF density matrix from file ./SSI/SSI-135TRP-147GLN-1-dimer.test.20262.fchk

                         Distributed Multipole Analysis

Standard DMA

Positions and radii in angstrom
Multipole moments in atomic units, ea_0^k for rank k

C          x = -0.122105  y =  2.657440  z =  2.086947 angstrom
           Maximum rank =  0   Radius =  0.650 angstrom
                   Q00  =  -0.188583

C          x = -1.037105  y =  1.129440  z =  0.159947 angstrom
           Maximum rank =  0   Radius =  0.650 angstrom
                   Q00  =  -0.061490

C          x = -0.169105  y =  2.153440  z =  0.671947 angstrom
           Maximum rank =  0   Radius =  0.650 angstrom
                   Q00  =  -0.162875

C          x = -0.775105  y =  1.000440  z = -1.238053 angstrom
           Maximum rank =  0   Radius =  0.650 angstrom
                   Q00  =   0.239348

C          x =  0.568895  y =  2.597440  z = -0.382053 angstrom
           Maximum rank =  0   Radius =  0.650 angstrom
                   Q00  =   0.085408

C          x = -2.019105  y =  0.296440  z =  0.740947 angstrom
           Maximum rank =  0   Radius =  0.650 angstrom
                   Q00  =  -0.104935

C          x = -1.464105  y =  0.077440  z = -2.034053 angstrom
           Maximum rank =  0   Radius =  0.650 angstrom
                   Q00  =  -0.117042

C          x = -2.707105  y = -0.628560  z = -0.054053 angstrom
           Maximum rank =  0   Radius =  0.650 angstrom
                   Q00  =  -0.092384

C          x = -2.433105  y = -0.739560  z = -1.426053 angstrom
           Maximum rank =  0   Radius =  0.650 angstrom
                   Q00  =  -0.002626

N          x =  0.212895  y =  1.913440  z = -1.546053 angstrom
           Maximum rank =  0   Radius =  0.650 angstrom
                   Q00  =  -0.518644

H          x = -2.268105  y =  0.343440  z =  1.794947 angstrom
           Maximum rank =  0   Radius =  0.325 angstrom
                   Q00  =   0.073262

H          x =  0.738895  y =  3.318440  z =  2.169947 angstrom
           Maximum rank =  0   Radius =  0.325 angstrom
                   Q00  =   0.104255

H          x =  0.032895  y =  1.790440  z =  2.732947 angstrom
           Maximum rank =  0   Radius =  0.325 angstrom
                   Q00  =   0.089494

H          x =  1.301895  y =  3.384440  z = -0.219053 angstrom
           Maximum rank =  0   Radius =  0.325 angstrom
                   Q00  =   0.111647

H          x =  0.604895  y =  2.054440  z = -2.475053 angstrom
           Maximum rank =  0   Radius =  0.325 angstrom
                   Q00  =   0.230107

H          x = -1.229105  y =  0.022440  z = -3.091053 angstrom
           Maximum rank =  0   Radius =  0.325 angstrom
                   Q00  =   0.077985

H          x = -3.456105  y = -1.257560  z =  0.411947 angstrom
           Maximum rank =  0   Radius =  0.325 angstrom
                   Q00  =   0.069002

H          x = -2.980105  y = -1.462560  z = -2.015053 angstrom
           Maximum rank =  0   Radius =  0.325 angstrom
                   Q00  =   0.074667

H          x = -1.011845  y =  3.221840  z =  2.402957 angstrom
           Maximum rank =  0   Radius =  0.325 angstrom
                   Q00  =   0.109185

C          x =  0.968895  y = -1.902560  z = -0.260053 angstrom
           Maximum rank =  0   Radius =  0.650 angstrom
                   Q00  =  -0.172545

C          x =  1.303895  y = -3.187560  z = -1.021053 angstrom
           Maximum rank =  0   Radius =  0.650 angstrom
                   Q00  =  -0.212787

C          x =  1.900895  y = -1.643560  z =  0.935947 angstrom
           Maximum rank =  0   Radius =  0.650 angstrom
                   Q00  =   0.865730

O          x =  2.718895  y = -2.486560  z =  1.323947 angstrom
           Maximum rank =  0   Radius =  0.650 angstrom
                   Q00  =  -0.825985

N          x =  1.781895  y = -0.467560  z =  1.537947 angstrom
           Maximum rank =  0   Radius =  0.650 angstrom
                   Q00  =  -0.563885

H          x =  1.045895  y = -1.064560  z = -0.954053 angstrom
           Maximum rank =  0   Radius =  0.325 angstrom
                   Q00  =   0.072698

H          x = -0.055105  y = -1.971560  z =  0.103947 angstrom
           Maximum rank =  0   Radius =  0.325 angstrom
                   Q00  =   0.107766

H          x =  1.456895  y = -3.995560  z = -0.309053 angstrom
           Maximum rank =  0   Radius =  0.325 angstrom
                   Q00  =   0.111442

H          x =  2.219895  y = -3.033560  z = -1.593053 angstrom
           Maximum rank =  0   Radius =  0.325 angstrom
                   Q00  =   0.084206

H          x =  2.371895  y = -0.246560  z =  2.325947 angstrom
           Maximum rank =  0   Radius =  0.325 angstrom
                   Q00  =   0.211014

H          x =  1.106895  y =  0.202440  z =  1.197947 angstrom
           Maximum rank =  0   Radius =  0.325 angstrom
                   Q00  =   0.233717

H          x =  0.506645  y = -3.486710  z = -1.717393 angstrom
           Maximum rank =  0   Radius =  0.325 angstrom
                   Q00  =   0.072845

Total multipoles referred to origin at
           x =   0.000000,  y =    0.000000,  z =    0.000000 angstrom
                   Q00  =  -0.000000

Finished at 21:41:45 on 28 Apr 2020

  DMA results are available in the Python driver through the
	  variable('DMA DISTRIBUTED MULTIPOLES')
  and
	  variable('DMA TOTAL MULTIPOLES')
  commands.

    Psi4 stopped on: Tuesday, 28 April 2020 09:41PM
    Psi4 wall time for execution: 0:11:40.63

*** Psi4 exiting successfully. Buy a developer a beer!
