                               Psi4 1.3.2 release

  ==> Input File <==

--------------------------------------------------------------------------
import numpy as np
set {scf_type pk
basis cc-pvdz
d_convergence 10
gdma_switch   0
gdma_limit    0
gdma_origin   [ 0.0,  0.0,  0.0 ]
}
molecule test {
    units Angstrom
    -1 1
    --
    -1 1
    C                0.853438334186587    -2.581359981899703     1.180463569740910
    C                0.983438334186587    -3.750359981899703     0.227463569740910
    H                0.814438334186587    -2.931359981899703     2.212463569740910
    H                1.713438334186587    -1.919359981899704     1.067463569740910
    H               -0.059561665813413    -2.025359981899704     0.959463569740910
    H                1.014438334186587    -3.372359981899704    -0.796536430259090
    H                0.122508334186587    -4.424489981899704     0.347225569740910
    H                1.905208334186587    -4.320339981899703     0.415797569740910
    C                0.446438334186587     0.680640018100296    -0.606536430259090
    C                1.407438334186587     1.787640018100296    -1.013536430259090
    C               -0.887561665813413     1.195640018100296    -0.089536430259090
    O               -1.118561665813413     2.448640018100297    -0.093536430259090
    O               -1.716561665813413     0.351640018100296     0.349463569740910
    H                0.273438334186587     0.045640018100296    -1.478536430259090
    H                0.908438334186587     0.047640018100296     0.146463569740910
    H                1.319438334186587     2.635640018100296    -0.336536430259090
    H                1.147438334186587     2.120640018100297    -2.019536430259091
    H                2.459118334186587     1.466270018100296    -0.987403430259090

}
e, wfn = energy('scf', return_wfn=True)
gdma(wfn)
dmavals = variable('DMA DISTRIBUTED MULTIPOLES')
charges = np.array(dmavals)
print(charges)
np.save('SSI-165ALA-292GLU-1-dimer.npy', np.array(charges))--------------------------------------------------------------------------

*** tstart() called on ds3
*** at Mon Apr 27 06:51:18 2020

   => Loading Basis Set <=

    Name: CC-PVDZ
    Role: ORBITAL
    Keyword: BASIS
    atoms 1-2, 9-11  entry C          line   138 file /theoryfs2/ds/metcalf/miniconda2/envs/tf2gpu/share/psi4/basis/cc-pvdz.gbs
    atoms 3-8, 14-18 entry H          line    22 file /theoryfs2/ds/metcalf/miniconda2/envs/tf2gpu/share/psi4/basis/cc-pvdz.gbs
    atoms 12-13      entry O          line   198 file /theoryfs2/ds/metcalf/miniconda2/envs/tf2gpu/share/psi4/basis/cc-pvdz.gbs

         ---------------------------------------------------------
                                   SCF
               by Justin Turney, Rob Parrish, Andy Simmonett
                          and Daniel G. A. Smith
                              RHF Reference
                        1 Threads,    500 MiB Core
         ---------------------------------------------------------

  ==> Geometry <==

    Molecular point group: c1
    Full point group: C1

    Geometry (in Angstrom), charge = -1, multiplicity = 1:

       Center              X                  Y                   Z               Mass
    ------------   -----------------  -----------------  -----------------  -----------------
         C            0.853438334187    -2.581359981900     1.180463569741    12.000000000000
         C            0.983438334187    -3.750359981900     0.227463569741    12.000000000000
         H            0.814438334187    -2.931359981900     2.212463569741     1.007825032230
         H            1.713438334187    -1.919359981900     1.067463569741     1.007825032230
         H           -0.059561665813    -2.025359981900     0.959463569741     1.007825032230
         H            1.014438334187    -3.372359981900    -0.796536430259     1.007825032230
         H            0.122508334187    -4.424489981900     0.347225569741     1.007825032230
         H            1.905208334187    -4.320339981900     0.415797569741     1.007825032230
         C            0.446438334187     0.680640018100    -0.606536430259    12.000000000000
         C            1.407438334187     1.787640018100    -1.013536430259    12.000000000000
         C           -0.887561665813     1.195640018100    -0.089536430259    12.000000000000
         O           -1.118561665813     2.448640018100    -0.093536430259    15.994914619570
         O           -1.716561665813     0.351640018100     0.349463569741    15.994914619570
         H            0.273438334187     0.045640018100    -1.478536430259     1.007825032230
         H            0.908438334187     0.047640018100     0.146463569741     1.007825032230
         H            1.319438334187     2.635640018100    -0.336536430259     1.007825032230
         H            1.147438334187     2.120640018100    -2.019536430259     1.007825032230
         H            2.459118334187     1.466270018100    -0.987403430259     1.007825032230

  Running in c1 symmetry.

  Rotational constants: A =      0.11632  B =      0.03039  C =      0.02545 [cm^-1]
  Rotational constants: A =   3487.22232  B =    910.99003  C =    762.86163 [MHz]
  Nuclear repulsion =  288.186247537451266

  Charge       = -1
  Multiplicity = 1
  Electrons    = 58
  Nalpha       = 29
  Nbeta        = 29

  ==> Algorithm <==

  SCF Algorithm Type is PK.
  DIIS enabled.
  MOM disabled.
  Fractional occupation disabled.
  Guess Type is SAD.
  Energy threshold   = 1.00e-06
  Density threshold  = 1.00e-10
  Integral threshold = 0.00e+00

  ==> Primary Basis <==

  Basis Set: CC-PVDZ
    Blend: CC-PVDZ
    Number of shells: 75
    Number of basis function: 153
    Number of Cartesian functions: 160
    Spherical Harmonics?: true
    Max angular momentum: 2

  ==> Pre-Iterations <==

   -------------------------------------------------------
    Irrep   Nso     Nmo     Nalpha   Nbeta   Ndocc  Nsocc
   -------------------------------------------------------
     A        153     153       0       0       0       0
   -------------------------------------------------------
    Total     153     153      29      29      29       0
   -------------------------------------------------------

  ==> Integral Setup <==

  Using integral reordering PK algorithm.
  Sizing the integral batches needed.
  Building batch lookup table.
   Calculation information:
      Number of atoms:                  18
      Number of AO shells:              75
      Number of primitives:            209
      Number of atomic orbitals:       160
      Number of basis functions:       153

      Integral cutoff                 1.00e-12
      Number of threads:                 1

	Batch   1 pq = [       0,    9405] index = [             0,44231715] size =     44231715
	Batch   2 pq = [    9405,   11781] index = [      44231715,69401871] size =     25170156
  Task number: 7
  Buffer size: 11059200
  Buffer per thread: 2
  We computed 3395840 shell quartets total.
  Whereas there are 4062675 unique shell quartets.

  ==> DiskJK: Disk-Based J/K Matrices <==

    J tasked:                  Yes
    K tasked:                  Yes
    wK tasked:                  No
    Memory [MiB]:              375
    Schwarz Cutoff:          1E-12

    OpenMP threads:              1

  Minimum eigenvalue in the overlap matrix is 3.5605978318E-03.
  Using Symmetric Orthogonalization.

  SCF Guess: Superposition of Atomic Densities via on-the-fly atomic UHF.

  ==> Iterations <==

                        Total Energy        Delta E     RMS |[F,P]|

   @RHF iter SAD:  -343.83300279510138   -3.43833e+02   0.00000e+00
   @RHF iter   1:  -345.21533017956648   -1.38233e+00   4.94650e-03 DIIS
   @RHF iter   2:  -345.43840772576607   -2.23078e-01   2.79154e-03 DIIS
   @RHF iter   3:  -345.50698424588307   -6.85765e-02   4.42329e-04 DIIS
   @RHF iter   4:  -345.51012256931079   -3.13832e-03   1.73675e-04 DIIS
   @RHF iter   5:  -345.51060605859789   -4.83489e-04   2.55121e-05 DIIS
   @RHF iter   6:  -345.51061998163283   -1.39230e-05   7.82759e-06 DIIS
   @RHF iter   7:  -345.51062084039933   -8.58766e-07   3.02417e-06 DIIS
   @RHF iter   8:  -345.51062096323074   -1.22831e-07   8.17252e-07 DIIS
   @RHF iter   9:  -345.51062097508787   -1.18571e-08   2.32182e-07 DIIS
   @RHF iter  10:  -345.51062097679187   -1.70400e-09   7.34129e-08 DIIS
   @RHF iter  11:  -345.51062097702516   -2.33285e-10   2.44665e-08 DIIS
   @RHF iter  12:  -345.51062097705540   -3.02407e-11   9.03954e-09 DIIS
   @RHF iter  13:  -345.51062097705989   -4.49063e-12   2.81119e-09 DIIS
   @RHF iter  14:  -345.51062097706085   -9.66338e-13   8.52689e-10 DIIS
   @RHF iter  15:  -345.51062097706023    6.25278e-13   3.01358e-10 DIIS
   @RHF iter  16:  -345.51062097705977    4.54747e-13   1.21390e-10 DIIS
   @RHF iter  17:  -345.51062097705938    3.97904e-13   5.47290e-11 DIIS
  Energy and wave function converged.

  ==> Post-Iterations <==

    Orbital Energies [Eh]
    ---------------------

    Doubly Occupied:

       1A    -20.262558     2A    -20.261722     3A    -11.122301
       4A    -11.118797     5A    -11.104451     6A    -11.066992
       7A    -11.054122     8A     -1.139335     9A     -1.028557
      10A     -0.918373    11A     -0.871528    12A     -0.731863
      13A     -0.702339    14A     -0.510571    15A     -0.497586
      16A     -0.494070    17A     -0.459898    18A     -0.429100
      19A     -0.400478    20A     -0.388861    21A     -0.382883
      22A     -0.377389    23A     -0.357938    24A     -0.348196
      25A     -0.324091    26A     -0.293785    27A     -0.183966
      28A     -0.170527    29A     -0.159438

    Virtual:

      30A      0.281548    31A      0.322822    32A      0.335396
      33A      0.350129    34A      0.356563    35A      0.366216
      36A      0.396909    37A      0.417282    38A      0.423824
      39A      0.428740    40A      0.443359    41A      0.491530
      42A      0.509880    43A      0.561937    44A      0.612509
      45A      0.689172    46A      0.701255    47A      0.704129
      48A      0.708446    49A      0.723843    50A      0.748995
      51A      0.785402    52A      0.793971    53A      0.872433
      54A      0.918544    55A      0.940032    56A      0.960172
      57A      0.970580    58A      0.980153    59A      0.984168
      60A      0.991040    61A      1.004632    62A      1.018642
      63A      1.028639    64A      1.036167    65A      1.041992
      66A      1.046911    67A      1.059822    68A      1.071901
      69A      1.087503    70A      1.103770    71A      1.127904
      72A      1.138849    73A      1.219229    74A      1.231197
      75A      1.291798    76A      1.302329    77A      1.338676
      78A      1.353947    79A      1.403647    80A      1.468589
      81A      1.501823    82A      1.533519    83A      1.581238
      84A      1.587689    85A      1.613583    86A      1.620433
      87A      1.654339    88A      1.675162    89A      1.697231
      90A      1.736907    91A      1.777138    92A      1.804468
      93A      1.823337    94A      1.847086    95A      1.858237
      96A      1.948804    97A      1.959517    98A      1.973433
      99A      2.008346   100A      2.023427   101A      2.044085
     102A      2.049928   103A      2.055334   104A      2.062760
     105A      2.064715   106A      2.068628   107A      2.094196
     108A      2.115939   109A      2.124960   110A      2.169938
     111A      2.189521   112A      2.205964   113A      2.218739
     114A      2.227309   115A      2.242802   116A      2.271344
     117A      2.330449   118A      2.403064   119A      2.409224
     120A      2.425317   121A      2.470134   122A      2.491174
     123A      2.517666   124A      2.563812   125A      2.583389
     126A      2.606589   127A      2.640588   128A      2.666430
     129A      2.679349   130A      2.764915   131A      2.774889
     132A      2.784002   133A      2.854416   134A      2.903851
     135A      2.916682   136A      2.959053   137A      2.963599
     138A      2.993516   139A      2.994552   140A      3.055317
     141A      3.073958   142A      3.080342   143A      3.146873
     144A      3.246759   145A      3.290454   146A      3.297529
     147A      3.354779   148A      3.620119   149A      3.758100
     150A      3.807788   151A      4.022407   152A      4.076921
     153A      4.179260

    Final Occupation by Irrep:
              A
    DOCC [    29 ]

  @RHF Final Energy:  -345.51062097705938

   => Energetics <=

    Nuclear Repulsion Energy =            288.1862475374512655
    One-Electron Energy =               -1053.0703110383988133
    Two-Electron Energy =                 419.3734425238882295
    Total Energy =                       -345.5106209770593750

Computation Completed

Properties will be evaluated at   0.000000,   0.000000,   0.000000 [a0]

Properties computed using the SCF density matrix

  Nuclear Dipole Moment: [e a0]
     X:    10.8782      Y:   -11.8713      Z:    -0.4391

  Electronic Dipole Moment: [e a0]
     X:    -8.3732      Y:     9.3989      Z:     0.1537

  Dipole Moment: [e a0]
     X:     2.5051      Y:    -2.4724      Z:    -0.2854     Total:     3.5312

  Dipole Moment: [D]
     X:     6.3672      Y:    -6.2842      Z:    -0.7254     Total:     8.9755

*** tstop() called on ds3 at Mon Apr 27 06:51:52 2020
Module time:
	user time   =      23.06 seconds =       0.38 minutes
	system time =      11.35 seconds =       0.19 minutes
	total time  =         34 seconds =       0.57 minutes
Total time:
	user time   =      23.06 seconds =       0.38 minutes
	system time =      11.35 seconds =       0.19 minutes
	total time  =         34 seconds =       0.57 minutes
                                     G D M A

                                 by Anthony Stone

                           version 2.2.06, 22 June 2011

               Distributed Multipoles from Gaussian wavefunctions

Starting at 6:51:52 on 27 Apr 2020

Using SCF density matrix from file ./SSI/SSI-165ALA-292GLU-1-dimer.test.4891.fchk

                         Distributed Multipole Analysis

Standard DMA

Positions and radii in angstrom
Multipole moments in atomic units, ea_0^k for rank k

C          x =  0.853438  y = -2.581360  z =  1.180464 angstrom
           Maximum rank =  0   Radius =  0.650 angstrom
                   Q00  =  -0.175460

C          x =  0.983438  y = -3.750360  z =  0.227464 angstrom
           Maximum rank =  0   Radius =  0.650 angstrom
                   Q00  =  -0.239685

H          x =  0.814438  y = -2.931360  z =  2.212464 angstrom
           Maximum rank =  0   Radius =  0.325 angstrom
                   Q00  =   0.051649

H          x =  1.713438  y = -1.919360  z =  1.067464 angstrom
           Maximum rank =  0   Radius =  0.325 angstrom
                   Q00  =   0.066392

H          x = -0.059562  y = -2.025360  z =  0.959464 angstrom
           Maximum rank =  0   Radius =  0.325 angstrom
                   Q00  =   0.095975

H          x =  1.014438  y = -3.372360  z = -0.796536 angstrom
           Maximum rank =  0   Radius =  0.325 angstrom
                   Q00  =   0.081682

H          x =  0.122508  y = -4.424490  z =  0.347226 angstrom
           Maximum rank =  0   Radius =  0.325 angstrom
                   Q00  =   0.066705

H          x =  1.905208  y = -4.320340  z =  0.415798 angstrom
           Maximum rank =  0   Radius =  0.325 angstrom
                   Q00  =   0.047146

C          x =  0.446438  y =  0.680640  z = -0.606536 angstrom
           Maximum rank =  0   Radius =  0.650 angstrom
                   Q00  =  -0.173079

C          x =  1.407438  y =  1.787640  z = -1.013536 angstrom
           Maximum rank =  0   Radius =  0.650 angstrom
                   Q00  =  -0.213349

C          x = -0.887562  y =  1.195640  z = -0.089536 angstrom
           Maximum rank =  0   Radius =  0.650 angstrom
                   Q00  =   1.025143

O          x = -1.118562  y =  2.448640  z = -0.093536 angstrom
           Maximum rank =  0   Radius =  0.650 angstrom
                   Q00  =  -0.973277

O          x = -1.716562  y =  0.351640  z =  0.349464 angstrom
           Maximum rank =  0   Radius =  0.650 angstrom
                   Q00  =  -0.938672

H          x =  0.273438  y =  0.045640  z = -1.478536 angstrom
           Maximum rank =  0   Radius =  0.325 angstrom
                   Q00  =   0.048436

H          x =  0.908438  y =  0.047640  z =  0.146464 angstrom
           Maximum rank =  0   Radius =  0.325 angstrom
                   Q00  =   0.052270

H          x =  1.319438  y =  2.635640  z = -0.336536 angstrom
           Maximum rank =  0   Radius =  0.325 angstrom
                   Q00  =   0.099099

H          x =  1.147438  y =  2.120640  z = -2.019536 angstrom
           Maximum rank =  0   Radius =  0.325 angstrom
                   Q00  =   0.066833

H          x =  2.459118  y =  1.466270  z = -0.987403 angstrom
           Maximum rank =  0   Radius =  0.325 angstrom
                   Q00  =   0.012194

Total multipoles referred to origin at
           x =   0.000000,  y =    0.000000,  z =    0.000000 angstrom
                   Q00  =  -1.000000

Finished at 6:51:52 on 27 Apr 2020

  DMA results are available in the Python driver through the
	  variable('DMA DISTRIBUTED MULTIPOLES')
  and
	  variable('DMA TOTAL MULTIPOLES')
  commands.

    Psi4 stopped on: Monday, 27 April 2020 06:51AM
    Psi4 wall time for execution: 0:00:33.49

*** Psi4 exiting successfully. Buy a developer a beer!
