                               Psi4 1.3.2 release

  ==> Input File <==

--------------------------------------------------------------------------
import numpy as np
set {scf_type pk
basis cc-pvdz
d_convergence 10
gdma_switch   0
gdma_limit    0
gdma_origin   [ 0.0,  0.0,  0.0 ]
}
molecule test {
    units Angstrom
    0 1
    --
    0 1
    C               -2.921781493635173    -0.074733466938554    -1.455279607713298
    C               -0.215781493635173    -0.532733466938554     1.163720392286702
    C               -0.031781493635173    -1.913733466938554     1.140720392286702
    C               -1.139781493635173     0.063266533061446     0.313720392286702
    C               -1.882781493635173    -0.708733466938554    -0.574279607713298
    C               -0.767781493635173    -2.694733466938554     0.251720392286702
    C               -1.685781493635173    -2.087733466938554    -0.605279607713298
    H                0.346218506364827     0.063266533061446     1.862720392286702
    H                0.669218506364827    -2.379733466938554     1.817720392286702
    H               -1.286781493635173     1.133266533061446     0.353720392286702
    H               -0.637781493635173    -3.765733466938554     0.236720392286702
    H               -3.089781493635173     0.961266533061446    -1.156279607713298
    H               -3.856781493635173    -0.613733466938554    -1.293279607713298
    H               -2.245781493635173    -2.697733466938554    -1.298279607713298
    H               -2.674793493635173    -0.112783466938554    -2.526516607713298
    C                2.224218506364827     1.954266533061446    -0.016279607713298
    C                2.778218506364827     2.611266533061446     1.255720392286702
    C                2.917218506364827     2.418266533061446    -1.291279607713298
    H                2.350218506364827     0.873266533061446     0.065720392286702
    H                1.155218506364827     2.158266533061446    -0.104279607713298
    H                2.627218506364827     3.691266533061446     1.205720392286702
    H                3.990218506364827     2.266266533061446    -1.234279607713298
    H                2.538218506364827     1.804266533061446    -2.097279607713298
    H                3.846024506364827     2.374976533061446     1.373863392286702
    H                2.211353506364827     2.265656533061446     2.132769392286702
    H                2.699947506364827     3.472026533061446    -1.520138607713298

}
e, wfn = energy('scf', return_wfn=True)
gdma(wfn)
dmavals = variable('DMA DISTRIBUTED MULTIPOLES')
charges = np.array(dmavals)
print(charges)
np.save('SSI-049PHE-091ARG-1-dimer.npy', np.array(charges))--------------------------------------------------------------------------

*** tstart() called on ds3
*** at Tue Apr 28 01:37:58 2020

   => Loading Basis Set <=

    Name: CC-PVDZ
    Role: ORBITAL
    Keyword: BASIS
    atoms 1-7, 16-18  entry C          line   138 file /theoryfs2/ds/metcalf/miniconda2/envs/tf2gpu/share/psi4/basis/cc-pvdz.gbs
    atoms 8-15, 19-26 entry H          line    22 file /theoryfs2/ds/metcalf/miniconda2/envs/tf2gpu/share/psi4/basis/cc-pvdz.gbs

         ---------------------------------------------------------
                                   SCF
               by Justin Turney, Rob Parrish, Andy Simmonett
                          and Daniel G. A. Smith
                              RHF Reference
                        1 Threads,    500 MiB Core
         ---------------------------------------------------------

  ==> Geometry <==

    Molecular point group: c1
    Full point group: C1

    Geometry (in Angstrom), charge = 0, multiplicity = 1:

       Center              X                  Y                   Z               Mass
    ------------   -----------------  -----------------  -----------------  -----------------
         C           -2.921781493635    -0.074733466939    -1.455279607713    12.000000000000
         C           -0.215781493635    -0.532733466939     1.163720392287    12.000000000000
         C           -0.031781493635    -1.913733466939     1.140720392287    12.000000000000
         C           -1.139781493635     0.063266533061     0.313720392287    12.000000000000
         C           -1.882781493635    -0.708733466939    -0.574279607713    12.000000000000
         C           -0.767781493635    -2.694733466939     0.251720392287    12.000000000000
         C           -1.685781493635    -2.087733466939    -0.605279607713    12.000000000000
         H            0.346218506365     0.063266533061     1.862720392287     1.007825032230
         H            0.669218506365    -2.379733466939     1.817720392287     1.007825032230
         H           -1.286781493635     1.133266533061     0.353720392287     1.007825032230
         H           -0.637781493635    -3.765733466939     0.236720392287     1.007825032230
         H           -3.089781493635     0.961266533061    -1.156279607713     1.007825032230
         H           -3.856781493635    -0.613733466939    -1.293279607713     1.007825032230
         H           -2.245781493635    -2.697733466939    -1.298279607713     1.007825032230
         H           -2.674793493635    -0.112783466939    -2.526516607713     1.007825032230
         C            2.224218506365     1.954266533061    -0.016279607713    12.000000000000
         C            2.778218506365     2.611266533061     1.255720392287    12.000000000000
         C            2.917218506365     2.418266533061    -1.291279607713    12.000000000000
         H            2.350218506365     0.873266533061     0.065720392287     1.007825032230
         H            1.155218506365     2.158266533061    -0.104279607713     1.007825032230
         H            2.627218506365     3.691266533061     1.205720392287     1.007825032230
         H            3.990218506365     2.266266533061    -1.234279607713     1.007825032230
         H            2.538218506365     1.804266533061    -2.097279607713     1.007825032230
         H            3.846024506365     2.374976533061     1.373863392287     1.007825032230
         H            2.211353506365     2.265656533061     2.132769392287     1.007825032230
         H            2.699947506365     3.472026533061    -1.520138607713     1.007825032230

  Running in c1 symmetry.

  Rotational constants: A =      0.05957  B =      0.01752  C =      0.01534 [cm^-1]
  Rotational constants: A =   1785.99212  B =    525.19726  C =    460.02921 [MHz]
  Nuclear repulsion =  480.078174341959993

  Charge       = 0
  Multiplicity = 1
  Electrons    = 76
  Nalpha       = 38
  Nbeta        = 38

  ==> Algorithm <==

  SCF Algorithm Type is PK.
  DIIS enabled.
  MOM disabled.
  Fractional occupation disabled.
  Guess Type is SAD.
  Energy threshold   = 1.00e-06
  Density threshold  = 1.00e-10
  Integral threshold = 0.00e+00

  ==> Primary Basis <==

  Basis Set: CC-PVDZ
    Blend: CC-PVDZ
    Number of shells: 108
    Number of basis function: 220
    Number of Cartesian functions: 230
    Spherical Harmonics?: true
    Max angular momentum: 2

  ==> Pre-Iterations <==

   -------------------------------------------------------
    Irrep   Nso     Nmo     Nalpha   Nbeta   Ndocc  Nsocc
   -------------------------------------------------------
     A        220     220       0       0       0       0
   -------------------------------------------------------
    Total     220     220      38      38      38       0
   -------------------------------------------------------

  ==> Integral Setup <==

  Using integral reordering PK algorithm.
  Sizing the integral batches needed.
  Building batch lookup table.
   Calculation information:
      Number of atoms:                  26
      Number of AO shells:             108
      Number of primitives:            300
      Number of atomic orbitals:       230
      Number of basis functions:       220

      Integral cutoff                 1.00e-12
      Number of threads:                 1

	Batch   1 pq = [       0,    9405] index = [             0,44231715] size =     44231715
	Batch   2 pq = [    9405,   13301] index = [      44231715,88464951] size =     44233236
	Batch   3 pq = [   13301,   16290] index = [      88464951,132690195] size =     44225244
	Batch   4 pq = [   16290,   18810] index = [     132690195,176917455] size =     44227260
	Batch   5 pq = [   18810,   21030] index = [     176917455,221140965] size =     44223510
	Batch   6 pq = [   21030,   23037] index = [     221140965,265363203] size =     44222238
	Batch   7 pq = [   23037,   24310] index = [     265363203,295500205] size =     30137002
  Task number: 27
  Buffer size: 11059200
  Buffer per thread: 2
  We computed 14261751 shell quartets total.
  Whereas there are 17325441 unique shell quartets.

  ==> DiskJK: Disk-Based J/K Matrices <==

    J tasked:                  Yes
    K tasked:                  Yes
    wK tasked:                  No
    Memory [MiB]:              375
    Schwarz Cutoff:          1E-12

    OpenMP threads:              1

  Minimum eigenvalue in the overlap matrix is 3.0723539364E-04.
  Using Symmetric Orthogonalization.

  SCF Guess: Superposition of Atomic Densities via on-the-fly atomic UHF.

  ==> Iterations <==

                        Total Energy        Delta E     RMS |[F,P]|

   @RHF iter SAD:  -386.87570666757478   -3.86876e+02   0.00000e+00
   @RHF iter   1:  -387.77195911684379   -8.96252e-01   2.75517e-03 DIIS
   @RHF iter   2:  -387.99163674615789   -2.19678e-01   1.15789e-03 DIIS
   @RHF iter   3:  -388.02689071883526   -3.52540e-02   2.49870e-04 DIIS
   @RHF iter   4:  -388.02976902120452   -2.87830e-03   5.28531e-05 DIIS
   @RHF iter   5:  -388.02985955165656   -9.05305e-05   1.67862e-05 DIIS
   @RHF iter   6:  -388.02986831590590   -8.76425e-06   4.90338e-06 DIIS
   @RHF iter   7:  -388.02986917394986   -8.58044e-07   1.18823e-06 DIIS
   @RHF iter   8:  -388.02986923826194   -6.43121e-08   3.07262e-07 DIIS
   @RHF iter   9:  -388.02986924771966   -9.45772e-09   1.29020e-07 DIIS
   @RHF iter  10:  -388.02986924999800   -2.27834e-09   6.49240e-08 DIIS
   @RHF iter  11:  -388.02986925067682   -6.78824e-10   2.36339e-08 DIIS
   @RHF iter  12:  -388.02986925077136   -9.45306e-11   8.87128e-09 DIIS
   @RHF iter  13:  -388.02986925078210   -1.07434e-11   3.68202e-09 DIIS
   @RHF iter  14:  -388.02986925078181    2.84217e-13   9.24693e-10 DIIS
   @RHF iter  15:  -388.02986925078341   -1.59162e-12   2.71453e-10 DIIS
   @RHF iter  16:  -388.02986925078517   -1.76215e-12   9.05513e-11 DIIS
  Energy and wave function converged.

  ==> Post-Iterations <==

    Orbital Energies [Eh]
    ---------------------

    Doubly Occupied:

       1A    -11.240173     2A    -11.235902     3A    -11.234350
       4A    -11.230905     5A    -11.230055     6A    -11.229694
       7A    -11.229386     8A    -11.216881     9A    -11.216226
      10A    -11.211379    11A     -1.152589    12A     -1.050189
      13A     -1.044429    14A     -1.011594    15A     -0.930925
      16A     -0.923746    17A     -0.825156    18A     -0.796764
      19A     -0.791848    20A     -0.690869    21A     -0.631773
      22A     -0.630710    23A     -0.623248    24A     -0.591884
      25A     -0.582007    26A     -0.576701    27A     -0.562524
      28A     -0.547545    29A     -0.535337    30A     -0.533080
      31A     -0.487034    32A     -0.485112    33A     -0.482112
      34A     -0.469499    35A     -0.465605    36A     -0.463616
      37A     -0.331664    38A     -0.321330

    Virtual:

      39A      0.134393    40A      0.141651    41A      0.169033
      42A      0.192499    43A      0.201335    44A      0.212142
      45A      0.226337    46A      0.233662    47A      0.245911
      48A      0.250044    49A      0.264338    50A      0.267055
      51A      0.271344    52A      0.278982    53A      0.290541
      54A      0.304144    55A      0.331079    56A      0.339460
      57A      0.365217    58A      0.379831    59A      0.387547
      60A      0.427422    61A      0.457526    62A      0.462770
      63A      0.478816    64A      0.500527    65A      0.565125
      66A      0.579530    67A      0.590341    68A      0.607150
      69A      0.609933    70A      0.622373    71A      0.632585
      72A      0.642492    73A      0.685959    74A      0.696813
      75A      0.703495    76A      0.719466    77A      0.740651
      78A      0.745136    79A      0.748860    80A      0.757924
      81A      0.769588    82A      0.780482    83A      0.786997
      84A      0.805233    85A      0.817343    86A      0.827520
      87A      0.840474    88A      0.866127    89A      0.868312
      90A      0.875641    91A      0.886892    92A      0.894496
      93A      0.898022    94A      0.900565    95A      0.903311
      96A      0.908661    97A      0.913753    98A      0.916458
      99A      0.925453   100A      0.935221   101A      0.940926
     102A      0.948806   103A      0.966607   104A      0.987992
     105A      0.994130   106A      1.005944   107A      1.032987
     108A      1.061903   109A      1.123436   110A      1.129919
     111A      1.131621   112A      1.140386   113A      1.156571
     114A      1.158509   115A      1.193254   116A      1.213645
     117A      1.229090   118A      1.243488   119A      1.256576
     120A      1.262516   121A      1.297414   122A      1.308642
     123A      1.319467   124A      1.328151   125A      1.395251
     126A      1.418100   127A      1.468976   128A      1.478026
     129A      1.504914   130A      1.514637   131A      1.556275
     132A      1.561085   133A      1.602884   134A      1.635869
     135A      1.680419   136A      1.683713   137A      1.685075
     138A      1.696427   139A      1.708013   140A      1.739237
     141A      1.746976   142A      1.766236   143A      1.792283
     144A      1.816141   145A      1.854352   146A      1.869033
     147A      1.877563   148A      1.880351   149A      1.885735
     150A      1.897053   151A      1.902900   152A      1.906906
     153A      1.916899   154A      1.929126   155A      1.932868
     156A      1.946486   157A      1.955868   158A      1.962390
     159A      1.964640   160A      1.969512   161A      1.981235
     162A      1.987926   163A      1.992610   164A      1.998521
     165A      2.011751   166A      2.031921   167A      2.033531
     168A      2.053192   169A      2.057780   170A      2.078057
     171A      2.115471   172A      2.132676   173A      2.139585
     174A      2.144817   175A      2.162584   176A      2.168751
     177A      2.172498   178A      2.197975   179A      2.241107
     180A      2.275140   181A      2.287284   182A      2.295932
     183A      2.302454   184A      2.305925   185A      2.330003
     186A      2.349936   187A      2.358543   188A      2.366728
     189A      2.446974   190A      2.479949   191A      2.491761
     192A      2.518861   193A      2.534044   194A      2.537214
     195A      2.580635   196A      2.609970   197A      2.627600
     198A      2.634710   199A      2.734267   200A      2.753250
     201A      2.760167   202A      2.767416   203A      2.769116
     204A      2.788612   205A      2.790423   206A      2.818068
     207A      2.836867   208A      2.847748   209A      2.863962
     210A      2.911095   211A      2.973088   212A      2.982141
     213A      2.987456   214A      3.010014   215A      3.032403
     216A      3.071131   217A      3.164591   218A      3.203296
     219A      3.304825   220A      3.970793

    Final Occupation by Irrep:
              A
    DOCC [    38 ]

  @RHF Final Energy:  -388.02986925078517

   => Energetics <=

    Nuclear Repulsion Energy =            480.0781743419599934
    One-Electron Energy =               -1474.5884029111327891
    Two-Electron Energy =                 606.4803593183876274
    Total Energy =                       -388.0298692507851683

Computation Completed

Properties will be evaluated at   0.000000,   0.000000,   0.000000 [a0]

Properties computed using the SCF density matrix

  Nuclear Dipole Moment: [e a0]
     X:     8.1018      Y:    10.7753      Z:    -2.0450

  Electronic Dipole Moment: [e a0]
     X:    -8.2530      Y:   -10.8019      Z:     1.9601

  Dipole Moment: [e a0]
     X:    -0.1512      Y:    -0.0265      Z:    -0.0849     Total:     0.1754

  Dipole Moment: [D]
     X:    -0.3844      Y:    -0.0674      Z:    -0.2158     Total:     0.4459

*** tstop() called on ds3 at Tue Apr 28 01:40:05 2020
Module time:
	user time   =      91.30 seconds =       1.52 minutes
	system time =      40.15 seconds =       0.67 minutes
	total time  =        127 seconds =       2.12 minutes
Total time:
	user time   =      91.30 seconds =       1.52 minutes
	system time =      40.15 seconds =       0.67 minutes
	total time  =        127 seconds =       2.12 minutes
                                     G D M A

                                 by Anthony Stone

                           version 2.2.06, 22 June 2011

               Distributed Multipoles from Gaussian wavefunctions

Starting at 1:40:5 on 28 Apr 2020

Using SCF density matrix from file ./SSI/SSI-049PHE-091ARG-1-dimer.test.8869.fchk

                         Distributed Multipole Analysis

Standard DMA

Positions and radii in angstrom
Multipole moments in atomic units, ea_0^k for rank k

C          x = -2.921781  y = -0.074733  z = -1.455280 angstrom
           Maximum rank =  0   Radius =  0.650 angstrom
                   Q00  =  -0.198241

C          x = -0.215781  y = -0.532733  z =  1.163720 angstrom
           Maximum rank =  0   Radius =  0.650 angstrom
                   Q00  =  -0.076926

C          x = -0.031781  y = -1.913733  z =  1.140720 angstrom
           Maximum rank =  0   Radius =  0.650 angstrom
                   Q00  =  -0.090298

C          x = -1.139781  y =  0.063267  z =  0.313720 angstrom
           Maximum rank =  0   Radius =  0.650 angstrom
                   Q00  =  -0.054701

C          x = -1.882781  y = -0.708733  z = -0.574280 angstrom
           Maximum rank =  0   Radius =  0.650 angstrom
                   Q00  =  -0.098374

C          x = -0.767781  y = -2.694733  z =  0.251720 angstrom
           Maximum rank =  0   Radius =  0.650 angstrom
                   Q00  =  -0.067679

C          x = -1.685781  y = -2.087733  z = -0.605280 angstrom
           Maximum rank =  0   Radius =  0.650 angstrom
                   Q00  =  -0.020636

H          x =  0.346219  y =  0.063267  z =  1.862720 angstrom
           Maximum rank =  0   Radius =  0.325 angstrom
                   Q00  =   0.066122

H          x =  0.669219  y = -2.379733  z =  1.817720 angstrom
           Maximum rank =  0   Radius =  0.325 angstrom
                   Q00  =   0.060980

H          x = -1.286781  y =  1.133267  z =  0.353720 angstrom
           Maximum rank =  0   Radius =  0.325 angstrom
                   Q00  =   0.058431

H          x = -0.637781  y = -3.765733  z =  0.236720 angstrom
           Maximum rank =  0   Radius =  0.325 angstrom
                   Q00  =   0.065383

H          x = -3.089781  y =  0.961267  z = -1.156280 angstrom
           Maximum rank =  0   Radius =  0.325 angstrom
                   Q00  =   0.097707

H          x = -3.856781  y = -0.613733  z = -1.293280 angstrom
           Maximum rank =  0   Radius =  0.325 angstrom
                   Q00  =   0.098393

H          x = -2.245781  y = -2.697733  z = -1.298280 angstrom
           Maximum rank =  0   Radius =  0.325 angstrom
                   Q00  =   0.055156

H          x = -2.674793  y = -0.112783  z = -2.526517 angstrom
           Maximum rank =  0   Radius =  0.325 angstrom
                   Q00  =   0.103777

C          x =  2.224219  y =  1.954267  z = -0.016280 angstrom
           Maximum rank =  0   Radius =  0.650 angstrom
                   Q00  =  -0.051716

C          x =  2.778219  y =  2.611267  z =  1.255720 angstrom
           Maximum rank =  0   Radius =  0.650 angstrom
                   Q00  =  -0.259579

C          x =  2.917219  y =  2.418267  z = -1.291280 angstrom
           Maximum rank =  0   Radius =  0.650 angstrom
                   Q00  =  -0.254156

H          x =  2.350219  y =  0.873267  z =  0.065720 angstrom
           Maximum rank =  0   Radius =  0.325 angstrom
                   Q00  =   0.050695

H          x =  1.155219  y =  2.158267  z = -0.104280 angstrom
           Maximum rank =  0   Radius =  0.325 angstrom
                   Q00  =   0.047113

H          x =  2.627219  y =  3.691267  z =  1.205720 angstrom
           Maximum rank =  0   Radius =  0.325 angstrom
                   Q00  =   0.075605

H          x =  3.990219  y =  2.266267  z = -1.234280 angstrom
           Maximum rank =  0   Radius =  0.325 angstrom
                   Q00  =   0.077393

H          x =  2.538219  y =  1.804267  z = -2.097280 angstrom
           Maximum rank =  0   Radius =  0.325 angstrom
                   Q00  =   0.083707

H          x =  3.846025  y =  2.374977  z =  1.373863 angstrom
           Maximum rank =  0   Radius =  0.325 angstrom
                   Q00  =   0.079783

H          x =  2.211354  y =  2.265657  z =  2.132769 angstrom
           Maximum rank =  0   Radius =  0.325 angstrom
                   Q00  =   0.077660

H          x =  2.699948  y =  3.472027  z = -1.520139 angstrom
           Maximum rank =  0   Radius =  0.325 angstrom
                   Q00  =   0.074399

Total multipoles referred to origin at
           x =   0.000000,  y =    0.000000,  z =    0.000000 angstrom
                   Q00  =  -0.000000

Finished at 1:40:5 on 28 Apr 2020

  DMA results are available in the Python driver through the
	  variable('DMA DISTRIBUTED MULTIPOLES')
  and
	  variable('DMA TOTAL MULTIPOLES')
  commands.

    Psi4 stopped on: Tuesday, 28 April 2020 01:40AM
    Psi4 wall time for execution: 0:02:07.13

*** Psi4 exiting successfully. Buy a developer a beer!
