                               Psi4 1.3.2 release

  ==> Input File <==

--------------------------------------------------------------------------
import numpy as np
set {scf_type pk
basis cc-pvdz
d_convergence 10
gdma_switch   0
gdma_limit    0
gdma_origin   [ 0.0,  0.0,  0.0 ]
}
molecule test {
    units Angstrom
    0 1
    --
    0 1
    C               -1.681970231350751    -0.253687863387467     1.596921826230104
    C               -0.470970231350751    -1.151687863387467     1.395921826230104
    O               -0.496970231350751    -2.109687863387467     0.621921826230104
    N                0.582029768649249    -0.869687863387467     2.137921826230104
    H               -1.361970231350751     0.782312136612533     1.518921826230104
    H               -2.078970231350751    -0.422687863387467     2.597921826230104
    H                1.381029768649249    -1.486687863387467     2.144921826230104
    H                0.575029768649249    -0.044687863387467     2.740921826230104
    H               -2.463340231350751    -0.431470863387467     0.843356926230104
    C                0.438029768649249     1.150312136612533    -1.538078173769896
    C               -0.304970231350751     1.611312136612532    -2.799078173769896
    C                1.877029768649249     1.601312136612532    -1.474078173769896
    H               -0.096970231350751     1.545312136612533    -0.672078173769896
    H                0.396029768649249     0.059312136612533    -1.492078173769896
    H               -0.314970231350751     2.702312136612532    -2.827078173769896
    H               -1.335970231350751     1.267312136612533    -2.712078173769896
    H                2.408029768649249     1.219312136612533    -2.353078173769896
    H                1.909029768649249     2.695312136612533    -1.510078173769896
    H                0.115989768649249     1.224116136612533    -3.738692173769896
    H                2.368309768649249     1.241090136612533    -0.558171173769896

}
e, wfn = energy('scf', return_wfn=True)
gdma(wfn)
dmavals = variable('DMA DISTRIBUTED MULTIPOLES')
charges = np.array(dmavals)
print(charges)
np.save('SSI-078GLN-085LYS-1-dimer.npy', np.array(charges))--------------------------------------------------------------------------

*** tstart() called on ds3
*** at Tue Apr 28 12:56:35 2020

   => Loading Basis Set <=

    Name: CC-PVDZ
    Role: ORBITAL
    Keyword: BASIS
    atoms 1-2, 10-12 entry C          line   138 file /theoryfs2/ds/metcalf/miniconda2/envs/tf2gpu/share/psi4/basis/cc-pvdz.gbs
    atoms 3          entry O          line   198 file /theoryfs2/ds/metcalf/miniconda2/envs/tf2gpu/share/psi4/basis/cc-pvdz.gbs
    atoms 4          entry N          line   168 file /theoryfs2/ds/metcalf/miniconda2/envs/tf2gpu/share/psi4/basis/cc-pvdz.gbs
    atoms 5-9, 13-20 entry H          line    22 file /theoryfs2/ds/metcalf/miniconda2/envs/tf2gpu/share/psi4/basis/cc-pvdz.gbs

         ---------------------------------------------------------
                                   SCF
               by Justin Turney, Rob Parrish, Andy Simmonett
                          and Daniel G. A. Smith
                              RHF Reference
                        1 Threads,    500 MiB Core
         ---------------------------------------------------------

  ==> Geometry <==

    Molecular point group: c1
    Full point group: C1

    Geometry (in Angstrom), charge = 0, multiplicity = 1:

       Center              X                  Y                   Z               Mass
    ------------   -----------------  -----------------  -----------------  -----------------
         C           -1.681970231351    -0.253687863387     1.596921826230    12.000000000000
         C           -0.470970231351    -1.151687863387     1.395921826230    12.000000000000
         O           -0.496970231351    -2.109687863387     0.621921826230    15.994914619570
         N            0.582029768649    -0.869687863387     2.137921826230    14.003074004430
         H           -1.361970231351     0.782312136613     1.518921826230     1.007825032230
         H           -2.078970231351    -0.422687863387     2.597921826230     1.007825032230
         H            1.381029768649    -1.486687863387     2.144921826230     1.007825032230
         H            0.575029768649    -0.044687863387     2.740921826230     1.007825032230
         H           -2.463340231351    -0.431470863387     0.843356926230     1.007825032230
         C            0.438029768649     1.150312136613    -1.538078173770    12.000000000000
         C           -0.304970231351     1.611312136613    -2.799078173770    12.000000000000
         C            1.877029768649     1.601312136613    -1.474078173770    12.000000000000
         H           -0.096970231351     1.545312136613    -0.672078173770     1.007825032230
         H            0.396029768649     0.059312136613    -1.492078173770     1.007825032230
         H           -0.314970231351     2.702312136613    -2.827078173770     1.007825032230
         H           -1.335970231351     1.267312136613    -2.712078173770     1.007825032230
         H            2.408029768649     1.219312136613    -2.353078173770     1.007825032230
         H            1.909029768649     2.695312136613    -1.510078173770     1.007825032230
         H            0.115989768649     1.224116136613    -3.738692173770     1.007825032230
         H            2.368309768649     1.241090136613    -0.558171173770     1.007825032230

  Running in c1 symmetry.

  Rotational constants: A =      0.10895  B =      0.03017  C =      0.02773 [cm^-1]
  Rotational constants: A =   3266.26672  B =    904.40926  C =    831.20940 [MHz]
  Nuclear repulsion =  299.439315259741193

  Charge       = 0
  Multiplicity = 1
  Electrons    = 58
  Nalpha       = 29
  Nbeta        = 29

  ==> Algorithm <==

  SCF Algorithm Type is PK.
  DIIS enabled.
  MOM disabled.
  Fractional occupation disabled.
  Guess Type is SAD.
  Energy threshold   = 1.00e-06
  Density threshold  = 1.00e-10
  Integral threshold = 0.00e+00

  ==> Primary Basis <==

  Basis Set: CC-PVDZ
    Blend: CC-PVDZ
    Number of shells: 81
    Number of basis function: 163
    Number of Cartesian functions: 170
    Spherical Harmonics?: true
    Max angular momentum: 2

  ==> Pre-Iterations <==

   -------------------------------------------------------
    Irrep   Nso     Nmo     Nalpha   Nbeta   Ndocc  Nsocc
   -------------------------------------------------------
     A        163     163       0       0       0       0
   -------------------------------------------------------
    Total     163     163      29      29      29       0
   -------------------------------------------------------

  ==> Integral Setup <==

  Using integral reordering PK algorithm.
  Sizing the integral batches needed.
  Building batch lookup table.
   Calculation information:
      Number of atoms:                  20
      Number of AO shells:              81
      Number of primitives:            219
      Number of atomic orbitals:       170
      Number of basis functions:       163

      Integral cutoff                 1.00e-12
      Number of threads:                 1

	Batch   1 pq = [       0,    9405] index = [             0,44231715] size =     44231715
	Batch   2 pq = [    9405,   13366] index = [      44231715,89331661] size =     45099946
  Task number: 9
  Buffer size: 11059200
  Buffer per thread: 2
  We computed 4776106 shell quartets total.
  Whereas there are 5516181 unique shell quartets.

  ==> DiskJK: Disk-Based J/K Matrices <==

    J tasked:                  Yes
    K tasked:                  Yes
    wK tasked:                  No
    Memory [MiB]:              375
    Schwarz Cutoff:          1E-12

    OpenMP threads:              1

  Minimum eigenvalue in the overlap matrix is 4.5653390766E-03.
  Using Symmetric Orthogonalization.

  SCF Guess: Superposition of Atomic Densities via on-the-fly atomic UHF.

  ==> Iterations <==

                        Total Energy        Delta E     RMS |[F,P]|

   @RHF iter SAD:  -324.94231616127189   -3.24942e+02   0.00000e+00
   @RHF iter   1:  -325.99880396959315   -1.05649e+00   4.17473e-03 DIIS
   @RHF iter   2:  -326.20227000454787   -2.03466e-01   2.31596e-03 DIIS
   @RHF iter   3:  -326.25839579687403   -5.61258e-02   4.91106e-04 DIIS
   @RHF iter   4:  -326.26222649735217   -3.83070e-03   2.03718e-04 DIIS
   @RHF iter   5:  -326.26290633820673   -6.79841e-04   3.14739e-05 DIIS
   @RHF iter   6:  -326.26293892367767   -3.25855e-05   1.39238e-05 DIIS
   @RHF iter   7:  -326.26294447729362   -5.55362e-06   5.39467e-06 DIIS
   @RHF iter   8:  -326.26294560535325   -1.12806e-06   1.86486e-06 DIIS
   @RHF iter   9:  -326.26294574435207   -1.38999e-07   4.98388e-07 DIIS
   @RHF iter  10:  -326.26294575129089   -6.93882e-09   1.64133e-07 DIIS
   @RHF iter  11:  -326.26294575216082   -8.69932e-10   3.90620e-08 DIIS
   @RHF iter  12:  -326.26294575221038   -4.95675e-11   9.33725e-09 DIIS
   @RHF iter  13:  -326.26294575221124   -8.52651e-13   2.30640e-09 DIIS
   @RHF iter  14:  -326.26294575221380   -2.55795e-12   8.74124e-10 DIIS
   @RHF iter  15:  -326.26294575221414   -3.41061e-13   3.46905e-10 DIIS
   @RHF iter  16:  -326.26294575221306    1.08002e-12   1.43822e-10 DIIS
   @RHF iter  17:  -326.26294575221311   -5.68434e-14   6.83093e-11 DIIS
  Energy and wave function converged.

  ==> Post-Iterations <==

    Orbital Energies [Eh]
    ---------------------

    Doubly Occupied:

       1A    -20.503031     2A    -15.591339     3A    -11.347558
       4A    -11.242207     5A    -11.215556     6A    -11.214552
       7A    -11.213740     8A     -1.365257     9A     -1.218606
      10A     -1.052536    11A     -0.999299    12A     -0.923108
      13A     -0.802083    14A     -0.791842    15A     -0.725225
      16A     -0.652971    17A     -0.623708    18A     -0.615635
      19A     -0.592544    20A     -0.567255    21A     -0.557392
      22A     -0.548973    23A     -0.529003    24A     -0.523303
      25A     -0.469678    26A     -0.467601    27A     -0.461838
      28A     -0.408336    29A     -0.403539

    Virtual:

      30A      0.152097    31A      0.189708    32A      0.200372
      33A      0.203380    34A      0.223585    35A      0.233829
      36A      0.242179    37A      0.254650    38A      0.259488
      39A      0.272400    40A      0.284201    41A      0.299751
      42A      0.306293    43A      0.336202    44A      0.369210
      45A      0.383310    46A      0.426998    47A      0.473075
      48A      0.545896    49A      0.577065    50A      0.596599
      51A      0.610744    52A      0.617077    53A      0.622498
      54A      0.636594    55A      0.682598    56A      0.710592
      57A      0.733808    58A      0.744482    59A      0.771154
      60A      0.803550    61A      0.816210    62A      0.843383
      63A      0.860085    64A      0.873447    65A      0.890509
      66A      0.892777    67A      0.900845    68A      0.902729
      69A      0.904210    70A      0.911116    71A      0.921696
      72A      0.927652    73A      0.939021    74A      0.959802
      75A      0.968386    76A      1.004814    77A      1.019928
      78A      1.033776    79A      1.068487    80A      1.118433
      81A      1.130484    82A      1.134052    83A      1.150599
      84A      1.215035    85A      1.326690    86A      1.343068
      87A      1.373862    88A      1.378552    89A      1.395662
      90A      1.419567    91A      1.457282    92A      1.471375
      93A      1.493339    94A      1.503122    95A      1.530891
      96A      1.630087    97A      1.659085    98A      1.667657
      99A      1.683302   100A      1.687606   101A      1.698176
     102A      1.738397   103A      1.796037   104A      1.848775
     105A      1.870376   106A      1.872625   107A      1.884445
     108A      1.896408   109A      1.904134   110A      1.908227
     111A      1.922363   112A      1.925584   113A      1.939306
     114A      1.968194   115A      1.978608   116A      1.982687
     117A      1.990964   118A      1.996736   119A      2.007479
     120A      2.015621   121A      2.033974   122A      2.048777
     123A      2.098830   124A      2.141314   125A      2.141873
     126A      2.160790   127A      2.228694   128A      2.260894
     129A      2.293118   130A      2.307936   131A      2.336997
     132A      2.345692   133A      2.430132   134A      2.453945
     135A      2.486630   136A      2.500616   137A      2.533212
     138A      2.557989   139A      2.581965   140A      2.592147
     141A      2.601832   142A      2.608857   143A      2.627112
     144A      2.703761   145A      2.752341   146A      2.757257
     147A      2.764746   148A      2.779549   149A      2.799144
     150A      2.824579   151A      2.876573   152A      2.920370
     153A      2.968543   154A      2.983055   155A      3.003936
     156A      3.076911   157A      3.098147   158A      3.139431
     159A      3.259880   160A      3.514498   161A      3.529000
     162A      3.858266   163A      3.904962

    Final Occupation by Irrep:
              A
    DOCC [    29 ]

  @RHF Final Energy:  -326.26294575221311

   => Energetics <=

    Nuclear Repulsion Energy =            299.4393152597411927
    One-Electron Energy =               -1036.1490908086614127
    Two-Electron Energy =                 410.4468297967071067
    Total Energy =                       -326.2629457522131133

Computation Completed

Properties will be evaluated at   0.000000,   0.000000,   0.000000 [a0]

Properties computed using the SCF density matrix

  Nuclear Dipole Moment: [e a0]
     X:     1.4033      Y:     9.6960      Z:    -5.6442

  Electronic Dipole Moment: [e a0]
     X:    -1.1030      Y:    -8.5737      Z:     6.8517

  Dipole Moment: [e a0]
     X:     0.3003      Y:     1.1223      Z:     1.2074     Total:     1.6756

  Dipole Moment: [D]
     X:     0.7633      Y:     2.8527      Z:     3.0690     Total:     4.2590

*** tstop() called on ds3 at Tue Apr 28 12:58:11 2020
Module time:
	user time   =      29.10 seconds =       0.49 minutes
	system time =      11.50 seconds =       0.19 minutes
	total time  =         96 seconds =       1.60 minutes
Total time:
	user time   =      29.10 seconds =       0.49 minutes
	system time =      11.50 seconds =       0.19 minutes
	total time  =         96 seconds =       1.60 minutes
                                     G D M A

                                 by Anthony Stone

                           version 2.2.06, 22 June 2011

               Distributed Multipoles from Gaussian wavefunctions

Starting at 12:58:11 on 28 Apr 2020

Using SCF density matrix from file ./SSI/SSI-078GLN-085LYS-1-dimer.test.15620.fchk

                         Distributed Multipole Analysis

Standard DMA

Positions and radii in angstrom
Multipole moments in atomic units, ea_0^k for rank k

C          x = -1.681970  y = -0.253688  z =  1.596922 angstrom
           Maximum rank =  0   Radius =  0.650 angstrom
                   Q00  =  -0.265206

C          x = -0.470970  y = -1.151688  z =  1.395922 angstrom
           Maximum rank =  0   Radius =  0.650 angstrom
                   Q00  =   0.820254

O          x = -0.496970  y = -2.109688  z =  0.621922 angstrom
           Maximum rank =  0   Radius =  0.650 angstrom
                   Q00  =  -0.794506

N          x =  0.582030  y = -0.869688  z =  2.137922 angstrom
           Maximum rank =  0   Radius =  0.650 angstrom
                   Q00  =  -0.527612

H          x = -1.361970  y =  0.782312  z =  1.518922 angstrom
           Maximum rank =  0   Radius =  0.325 angstrom
                   Q00  =   0.094408

H          x = -2.078970  y = -0.422688  z =  2.597922 angstrom
           Maximum rank =  0   Radius =  0.325 angstrom
                   Q00  =   0.114497

H          x =  1.381030  y = -1.486688  z =  2.144922 angstrom
           Maximum rank =  0   Radius =  0.325 angstrom
                   Q00  =   0.223594

H          x =  0.575030  y = -0.044688  z =  2.740922 angstrom
           Maximum rank =  0   Radius =  0.325 angstrom
                   Q00  =   0.203953

H          x = -2.463340  y = -0.431471  z =  0.843357 angstrom
           Maximum rank =  0   Radius =  0.325 angstrom
                   Q00  =   0.130550

C          x =  0.438030  y =  1.150312  z = -1.538078 angstrom
           Maximum rank =  0   Radius =  0.650 angstrom
                   Q00  =  -0.074247

C          x = -0.304970  y =  1.611312  z = -2.799078 angstrom
           Maximum rank =  0   Radius =  0.650 angstrom
                   Q00  =  -0.264385

C          x =  1.877030  y =  1.601312  z = -1.474078 angstrom
           Maximum rank =  0   Radius =  0.650 angstrom
                   Q00  =  -0.214823

H          x = -0.096970  y =  1.545312  z = -0.672078 angstrom
           Maximum rank =  0   Radius =  0.325 angstrom
                   Q00  =   0.030132

H          x =  0.396030  y =  0.059312  z = -1.492078 angstrom
           Maximum rank =  0   Radius =  0.325 angstrom
                   Q00  =   0.063152

H          x = -0.314970  y =  2.702312  z = -2.827078 angstrom
           Maximum rank =  0   Radius =  0.325 angstrom
                   Q00  =   0.070271

H          x = -1.335970  y =  1.267312  z = -2.712078 angstrom
           Maximum rank =  0   Radius =  0.325 angstrom
                   Q00  =   0.084462

H          x =  2.408030  y =  1.219312  z = -2.353078 angstrom
           Maximum rank =  0   Radius =  0.325 angstrom
                   Q00  =   0.077342

H          x =  1.909030  y =  2.695312  z = -1.510078 angstrom
           Maximum rank =  0   Radius =  0.325 angstrom
                   Q00  =   0.068226

H          x =  0.115990  y =  1.224116  z = -3.738692 angstrom
           Maximum rank =  0   Radius =  0.325 angstrom
                   Q00  =   0.082717

H          x =  2.368310  y =  1.241090  z = -0.558171 angstrom
           Maximum rank =  0   Radius =  0.325 angstrom
                   Q00  =   0.077221

Total multipoles referred to origin at
           x =   0.000000,  y =    0.000000,  z =    0.000000 angstrom
                   Q00  =  -0.000000

Finished at 12:58:11 on 28 Apr 2020

  DMA results are available in the Python driver through the
	  variable('DMA DISTRIBUTED MULTIPOLES')
  and
	  variable('DMA TOTAL MULTIPOLES')
  commands.

    Psi4 stopped on: Tuesday, 28 April 2020 12:58PM
    Psi4 wall time for execution: 0:01:36.14

*** Psi4 exiting successfully. Buy a developer a beer!
