                               Psi4 1.3.2 release

  ==> Input File <==

--------------------------------------------------------------------------
import numpy as np
set {scf_type pk
basis cc-pvdz
d_convergence 10
gdma_switch   0
gdma_limit    0
gdma_origin   [ 0.0,  0.0,  0.0 ]
}
molecule test {
    units Angstrom
    0 1
    --
    0 1
    C               -1.344291015861679     1.130183663860075     2.771417680371760
    C                0.963708984138321    -0.471816336139926     0.324417680371760
    C               -0.327291015861678    -0.332816336139926     0.895417680371760
    C               -0.234291015861678     0.658183663860074     1.919417680371760
    C                1.054708984138321     1.086183663860074     1.926417680371760
    C                1.219708984138322    -1.353816336139925    -0.707582319628240
    C                0.163708984138322    -2.115816336139925    -1.167582319628240
    C               -1.375291015861678    -1.116816336139925     0.404417680371760
    C               -1.120291015861678    -1.998816336139926    -0.619582319628240
    N                1.780708984138322     0.409183663860074     0.974417680371760
    H                2.760708984138322     0.589183663860074     0.766417680371760
    H                2.208708984138322    -1.432816336139926    -1.132582319628240
    H                1.445708984138321     1.853183663860074     2.582417680371760
    H                0.325708984138322    -2.810816336139926    -1.978582319628240
    H               -2.368291015861678    -1.023816336139926     0.822417680371760
    H               -0.942291015861678     1.474183663860075     3.724417680371760
    H               -1.997291015861678     0.281183663860075     2.979417680371760
    H               -1.926291015861678    -2.605816336139926    -1.004582319628240
    H               -1.935922015861678     1.931053663860074     2.303887680371760
    C                0.051708984138322     1.927183663860075    -2.454582319628240
    C               -0.752291015861678     1.408183663860074    -3.646582319628240
    H                0.321708984138321     1.099183663860075    -1.804582319628240
    H                0.952708984138322     2.413183663860075    -2.817582319628240
    H               -0.517291015861678     2.656183663860074    -1.887582319628240
    H               -0.958291015861678     2.259183663860075    -4.293582319628239
    H               -1.711129015861679     0.972993663860075    -3.328392319628240
    H               -0.156247015861678     0.708223663860074    -4.250562319628239

}
e, wfn = energy('scf', return_wfn=True)
gdma(wfn)
dmavals = variable('DMA DISTRIBUTED MULTIPOLES')
charges = np.array(dmavals)
print(charges)
np.save('SSI-125TRP-152LEU-1-dimer.npy', np.array(charges))--------------------------------------------------------------------------

*** tstart() called on ds3
*** at Sun Apr 26 22:13:14 2020

   => Loading Basis Set <=

    Name: CC-PVDZ
    Role: ORBITAL
    Keyword: BASIS
    atoms 1-9, 20-21   entry C          line   138 file /theoryfs2/ds/metcalf/miniconda2/envs/tf2gpu/share/psi4/basis/cc-pvdz.gbs
    atoms 10           entry N          line   168 file /theoryfs2/ds/metcalf/miniconda2/envs/tf2gpu/share/psi4/basis/cc-pvdz.gbs
    atoms 11-19, 22-27 entry H          line    22 file /theoryfs2/ds/metcalf/miniconda2/envs/tf2gpu/share/psi4/basis/cc-pvdz.gbs

         ---------------------------------------------------------
                                   SCF
               by Justin Turney, Rob Parrish, Andy Simmonett
                          and Daniel G. A. Smith
                              RHF Reference
                        1 Threads,    500 MiB Core
         ---------------------------------------------------------

  ==> Geometry <==

    Molecular point group: c1
    Full point group: C1

    Geometry (in Angstrom), charge = 0, multiplicity = 1:

       Center              X                  Y                   Z               Mass
    ------------   -----------------  -----------------  -----------------  -----------------
         C           -1.344291015862     1.130183663860     2.771417680372    12.000000000000
         C            0.963708984138    -0.471816336140     0.324417680372    12.000000000000
         C           -0.327291015862    -0.332816336140     0.895417680372    12.000000000000
         C           -0.234291015862     0.658183663860     1.919417680372    12.000000000000
         C            1.054708984138     1.086183663860     1.926417680372    12.000000000000
         C            1.219708984138    -1.353816336140    -0.707582319628    12.000000000000
         C            0.163708984138    -2.115816336140    -1.167582319628    12.000000000000
         C           -1.375291015862    -1.116816336140     0.404417680372    12.000000000000
         C           -1.120291015862    -1.998816336140    -0.619582319628    12.000000000000
         N            1.780708984138     0.409183663860     0.974417680372    14.003074004430
         H            2.760708984138     0.589183663860     0.766417680372     1.007825032230
         H            2.208708984138    -1.432816336140    -1.132582319628     1.007825032230
         H            1.445708984138     1.853183663860     2.582417680372     1.007825032230
         H            0.325708984138    -2.810816336140    -1.978582319628     1.007825032230
         H           -2.368291015862    -1.023816336140     0.822417680372     1.007825032230
         H           -0.942291015862     1.474183663860     3.724417680372     1.007825032230
         H           -1.997291015862     0.281183663860     2.979417680372     1.007825032230
         H           -1.926291015862    -2.605816336140    -1.004582319628     1.007825032230
         H           -1.935922015862     1.931053663860     2.303887680372     1.007825032230
         C            0.051708984138     1.927183663860    -2.454582319628    12.000000000000
         C           -0.752291015862     1.408183663860    -3.646582319628    12.000000000000
         H            0.321708984138     1.099183663860    -1.804582319628     1.007825032230
         H            0.952708984138     2.413183663860    -2.817582319628     1.007825032230
         H           -0.517291015862     2.656183663860    -1.887582319628     1.007825032230
         H           -0.958291015862     2.259183663860    -4.293582319628     1.007825032230
         H           -1.711129015862     0.972993663860    -3.328392319628     1.007825032230
         H           -0.156247015862     0.708223663860    -4.250562319628     1.007825032230

  Running in c1 symmetry.

  Rotational constants: A =      0.03446  B =      0.02206  C =      0.01939 [cm^-1]
  Rotational constants: A =   1033.18812  B =    661.46487  C =    581.40538 [MHz]
  Nuclear repulsion =  670.165567300364046

  Charge       = 0
  Multiplicity = 1
  Electrons    = 88
  Nalpha       = 44
  Nbeta        = 44

  ==> Algorithm <==

  SCF Algorithm Type is PK.
  DIIS enabled.
  MOM disabled.
  Fractional occupation disabled.
  Guess Type is SAD.
  Energy threshold   = 1.00e-06
  Density threshold  = 1.00e-10
  Integral threshold = 0.00e+00

  ==> Primary Basis <==

  Basis Set: CC-PVDZ
    Blend: CC-PVDZ
    Number of shells: 117
    Number of basis function: 243
    Number of Cartesian functions: 255
    Spherical Harmonics?: true
    Max angular momentum: 2

  ==> Pre-Iterations <==

   -------------------------------------------------------
    Irrep   Nso     Nmo     Nalpha   Nbeta   Ndocc  Nsocc
   -------------------------------------------------------
     A        243     243       0       0       0       0
   -------------------------------------------------------
    Total     243     243      44      44      44       0
   -------------------------------------------------------

  ==> Integral Setup <==

  Using integral reordering PK algorithm.
  Sizing the integral batches needed.
  Building batch lookup table.
   Calculation information:
      Number of atoms:                  27
      Number of AO shells:             117
      Number of primitives:            339
      Number of atomic orbitals:       255
      Number of basis functions:       243

      Integral cutoff                 1.00e-12
      Number of threads:                 1

	Batch   1 pq = [       0,    9405] index = [             0,44231715] size =     44231715
	Batch   2 pq = [    9405,   13301] index = [      44231715,88464951] size =     44233236
	Batch   3 pq = [   13301,   16290] index = [      88464951,132690195] size =     44225244
	Batch   4 pq = [   16290,   18810] index = [     132690195,176917455] size =     44227260
	Batch   5 pq = [   18810,   21030] index = [     176917455,221140965] size =     44223510
	Batch   6 pq = [   21030,   23037] index = [     221140965,265363203] size =     44222238
	Batch   7 pq = [   23037,   24883] index = [     265363203,309594286] size =     44231083
	Batch   8 pq = [   24883,   26601] index = [     309594286,353819901] size =     44225615
	Batch   9 pq = [   26601,   28214] index = [     353819901,398029005] size =     44209104
	Batch  10 pq = [   28214,   29646] index = [     398029005,439457481] size =     41428476
  Task number: 40
  Buffer size: 11059200
  Buffer per thread: 2
  We computed 24601508 shell quartets total.
  Whereas there are 23829156 unique shell quartets.
     3.24 percent of shell quartets recomputed by reordering.

  ==> DiskJK: Disk-Based J/K Matrices <==

    J tasked:                  Yes
    K tasked:                  Yes
    wK tasked:                  No
    Memory [MiB]:              375
    Schwarz Cutoff:          1E-12

    OpenMP threads:              1

  Minimum eigenvalue in the overlap matrix is 2.3155011142E-04.
  Using Symmetric Orthogonalization.

  SCF Guess: Superposition of Atomic Densities via on-the-fly atomic UHF.

  ==> Iterations <==

                        Total Energy        Delta E     RMS |[F,P]|

   @RHF iter SAD:  -479.17150798267750   -4.79172e+02   0.00000e+00
   @RHF iter   1:  -479.48293613250939   -3.11428e-01   2.64284e-03 DIIS
   @RHF iter   2:  -479.71820032087732   -2.35264e-01   1.20303e-03 DIIS
   @RHF iter   3:  -479.76291722097199   -4.47169e-02   3.12658e-04 DIIS
   @RHF iter   4:  -479.76687594210421   -3.95872e-03   1.43803e-04 DIIS
   @RHF iter   5:  -479.76756904081776   -6.93099e-04   2.01799e-05 DIIS
   @RHF iter   6:  -479.76759838828593   -2.93475e-05   9.31265e-06 DIIS
   @RHF iter   7:  -479.76760443070322   -6.04242e-06   3.84444e-06 DIIS
   @RHF iter   8:  -479.76760610572489   -1.67502e-06   1.52361e-06 DIIS
   @RHF iter   9:  -479.76760644350543   -3.37781e-07   6.73970e-07 DIIS
   @RHF iter  10:  -479.76760650959091   -6.60855e-08   3.02613e-07 DIIS
   @RHF iter  11:  -479.76760652558301   -1.59921e-08   1.15822e-07 DIIS
   @RHF iter  12:  -479.76760652786334   -2.28033e-09   3.65552e-08 DIIS
   @RHF iter  13:  -479.76760652801715   -1.53818e-10   9.12126e-09 DIIS
   @RHF iter  14:  -479.76760652802352   -6.36646e-12   3.60608e-09 DIIS
   @RHF iter  15:  -479.76760652802625   -2.72848e-12   1.67665e-09 DIIS
   @RHF iter  16:  -479.76760652802466    1.59162e-12   8.68329e-10 DIIS
   @RHF iter  17:  -479.76760652802795   -3.29692e-12   3.30881e-10 DIIS
   @RHF iter  18:  -479.76760652802602    1.93268e-12   1.49095e-10 DIIS
   @RHF iter  19:  -479.76760652802659   -5.68434e-13   4.71638e-11 DIIS
  Energy and wave function converged.

  ==> Post-Iterations <==

    Orbital Energies [Eh]
    ---------------------

    Doubly Occupied:

       1A    -15.601674     2A    -11.262052     3A    -11.261872
       4A    -11.229558     5A    -11.228652     6A    -11.228226
       7A    -11.224436     8A    -11.219367     9A    -11.217776
      10A    -11.213885    11A    -11.208214    12A    -11.201571
      13A     -1.296555    14A     -1.132203    15A     -1.077605
      16A     -1.006654    17A     -1.001862    18A     -0.987579
      19A     -0.932815    20A     -0.840011    21A     -0.825991
      22A     -0.806255    23A     -0.753251    24A     -0.720026
      25A     -0.663279    26A     -0.643460    27A     -0.604279
      28A     -0.597568    29A     -0.593639    30A     -0.587860
      31A     -0.582555    32A     -0.568877    33A     -0.553299
      34A     -0.540493    35A     -0.525963    36A     -0.494302
      37A     -0.489297    38A     -0.477746    39A     -0.472280
      40A     -0.471599    41A     -0.460927    42A     -0.374071
      43A     -0.296307    44A     -0.275095

    Virtual:

      45A      0.126174    46A      0.170072    47A      0.177534
      48A      0.186432    49A      0.197020    50A      0.208455
      51A      0.220950    52A      0.230584    53A      0.231250
      54A      0.251327    55A      0.259217    56A      0.266681
      57A      0.271511    58A      0.276198    59A      0.292004
      60A      0.298655    61A      0.305304    62A      0.317294
      63A      0.376269    64A      0.385167    65A      0.406789
      66A      0.409945    67A      0.421721    68A      0.449891
      69A      0.473982    70A      0.481386    71A      0.504850
      72A      0.517567    73A      0.586010    74A      0.595999
      75A      0.600444    76A      0.608396    77A      0.626926
      78A      0.639699    79A      0.646710    80A      0.663602
      81A      0.673805    82A      0.689311    83A      0.701525
      84A      0.720594    85A      0.724008    86A      0.733485
      87A      0.741686    88A      0.754234    89A      0.757563
      90A      0.765655    91A      0.773444    92A      0.781010
      93A      0.789903    94A      0.796715    95A      0.828048
      96A      0.848168    97A      0.864298    98A      0.868122
      99A      0.875675   100A      0.882824   101A      0.886315
     102A      0.895418   103A      0.902323   104A      0.905972
     105A      0.909589   106A      0.920368   107A      0.924179
     108A      0.938775   109A      0.948891   110A      0.955500
     111A      0.958362   112A      0.963247   113A      0.980128
     114A      0.985976   115A      1.015621   116A      1.056576
     117A      1.061586   118A      1.094787   119A      1.105500
     120A      1.126824   121A      1.137812   122A      1.143509
     123A      1.148160   124A      1.156817   125A      1.160974
     126A      1.178584   127A      1.220755   128A      1.225776
     129A      1.232562   130A      1.236407   131A      1.257725
     132A      1.275657   133A      1.293279   134A      1.301065
     135A      1.331367   136A      1.335149   137A      1.361605
     138A      1.367229   139A      1.385691   140A      1.421253
     141A      1.441789   142A      1.479729   143A      1.498122
     144A      1.525348   145A      1.557907   146A      1.577669
     147A      1.597999   148A      1.609646   149A      1.629788
     150A      1.642421   151A      1.652561   152A      1.683673
     153A      1.692943   154A      1.700832   155A      1.711452
     156A      1.749395   157A      1.769117   158A      1.772143
     159A      1.792996   160A      1.809323   161A      1.834963
     162A      1.845489   163A      1.870947   164A      1.880521
     165A      1.886910   166A      1.894331   167A      1.901324
     168A      1.909370   169A      1.912348   170A      1.927041
     171A      1.943142   172A      1.945013   173A      1.955639
     174A      1.957266   175A      1.960344   176A      1.964817
     177A      1.972614   178A      1.998002   179A      1.998912
     180A      2.010833   181A      2.017887   182A      2.027299
     183A      2.059134   184A      2.082147   185A      2.092520
     186A      2.097030   187A      2.102815   188A      2.106673
     189A      2.121531   190A      2.134628   191A      2.149159
     192A      2.153273   193A      2.167158   194A      2.175674
     195A      2.188416   196A      2.233686   197A      2.269605
     198A      2.287055   199A      2.310946   200A      2.313921
     201A      2.316597   202A      2.328180   203A      2.341204
     204A      2.372544   205A      2.406703   206A      2.422461
     207A      2.457571   208A      2.463658   209A      2.474685
     210A      2.488242   211A      2.560387   212A      2.568535
     213A      2.578527   214A      2.601322   215A      2.630145
     216A      2.651458   217A      2.673778   218A      2.690988
     219A      2.714753   220A      2.769187   221A      2.772476
     222A      2.781651   223A      2.791939   224A      2.801238
     225A      2.833521   226A      2.845426   227A      2.869626
     228A      2.873470   229A      2.881473   230A      2.891801
     231A      2.918499   232A      2.956964   233A      2.977629
     234A      3.014531   235A      3.052650   236A      3.069465
     237A      3.092928   238A      3.136492   239A      3.220980
     240A      3.324140   241A      3.389941   242A      3.755081
     243A      3.977273

    Final Occupation by Irrep:
              A
    DOCC [    44 ]

  @RHF Final Energy:  -479.76760652802659

   => Energetics <=

    Nuclear Repulsion Energy =            670.1655673003640459
    One-Electron Energy =               -1978.3643740897057341
    Two-Electron Energy =                 828.4312002613150980
    Total Energy =                       -479.7676065280265902

Computation Completed

Properties will be evaluated at   0.000000,   0.000000,   0.000000 [a0]

Properties computed using the SCF density matrix

  Nuclear Dipole Moment: [e a0]
     X:    -4.2217      Y:     7.8403      Z:    -8.7392

  Electronic Dipole Moment: [e a0]
     X:     4.8832      Y:    -7.4630      Z:     8.9847

  Dipole Moment: [e a0]
     X:     0.6615      Y:     0.3772      Z:     0.2455     Total:     0.8001

  Dipole Moment: [D]
     X:     1.6814      Y:     0.9589      Z:     0.6240     Total:     2.0337

*** tstop() called on ds3 at Sun Apr 26 22:17:42 2020
Module time:
	user time   =     199.26 seconds =       3.32 minutes
	system time =      77.57 seconds =       1.29 minutes
	total time  =        268 seconds =       4.47 minutes
Total time:
	user time   =     199.26 seconds =       3.32 minutes
	system time =      77.57 seconds =       1.29 minutes
	total time  =        268 seconds =       4.47 minutes
                                     G D M A

                                 by Anthony Stone

                           version 2.2.06, 22 June 2011

               Distributed Multipoles from Gaussian wavefunctions

Starting at 22:17:42 on 26 Apr 2020

Using SCF density matrix from file ./SSI/SSI-125TRP-152LEU-1-dimer.test.5089.fchk

                         Distributed Multipole Analysis

Standard DMA

Positions and radii in angstrom
Multipole moments in atomic units, ea_0^k for rank k

C          x = -1.344291  y =  1.130184  z =  2.771418 angstrom
           Maximum rank =  0   Radius =  0.650 angstrom
                   Q00  =  -0.212695

C          x =  0.963709  y = -0.471816  z =  0.324418 angstrom
           Maximum rank =  0   Radius =  0.650 angstrom
                   Q00  =   0.231412

C          x = -0.327291  y = -0.332816  z =  0.895418 angstrom
           Maximum rank =  0   Radius =  0.650 angstrom
                   Q00  =  -0.039320

C          x = -0.234291  y =  0.658184  z =  1.919418 angstrom
           Maximum rank =  0   Radius =  0.650 angstrom
                   Q00  =  -0.114139

C          x =  1.054709  y =  1.086184  z =  1.926418 angstrom
           Maximum rank =  0   Radius =  0.650 angstrom
                   Q00  =   0.068696

C          x =  1.219709  y = -1.353816  z = -0.707582 angstrom
           Maximum rank =  0   Radius =  0.650 angstrom
                   Q00  =  -0.116163

C          x =  0.163709  y = -2.115816  z = -1.167582 angstrom
           Maximum rank =  0   Radius =  0.650 angstrom
                   Q00  =  -0.008060

C          x = -1.375291  y = -1.116816  z =  0.404418 angstrom
           Maximum rank =  0   Radius =  0.650 angstrom
                   Q00  =  -0.098988

C          x = -1.120291  y = -1.998816  z = -0.619582 angstrom
           Maximum rank =  0   Radius =  0.650 angstrom
                   Q00  =  -0.095510

N          x =  1.780709  y =  0.409184  z =  0.974418 angstrom
           Maximum rank =  0   Radius =  0.650 angstrom
                   Q00  =  -0.492214

H          x =  2.760709  y =  0.589184  z =  0.766418 angstrom
           Maximum rank =  0   Radius =  0.325 angstrom
                   Q00  =   0.218814

H          x =  2.208709  y = -1.432816  z = -1.132582 angstrom
           Maximum rank =  0   Radius =  0.325 angstrom
                   Q00  =   0.071843

H          x =  1.445709  y =  1.853184  z =  2.582418 angstrom
           Maximum rank =  0   Radius =  0.325 angstrom
                   Q00  =   0.100364

H          x =  0.325709  y = -2.810816  z = -1.978582 angstrom
           Maximum rank =  0   Radius =  0.325 angstrom
                   Q00  =   0.063178

H          x = -2.368291  y = -1.023816  z =  0.822418 angstrom
           Maximum rank =  0   Radius =  0.325 angstrom
                   Q00  =   0.068555

H          x = -0.942291  y =  1.474184  z =  3.724418 angstrom
           Maximum rank =  0   Radius =  0.325 angstrom
                   Q00  =   0.103714

H          x = -1.997291  y =  0.281184  z =  2.979418 angstrom
           Maximum rank =  0   Radius =  0.325 angstrom
                   Q00  =   0.100797

H          x = -1.926291  y = -2.605816  z = -1.004582 angstrom
           Maximum rank =  0   Radius =  0.325 angstrom
                   Q00  =   0.059540

H          x = -1.935922  y =  1.931054  z =  2.303888 angstrom
           Maximum rank =  0   Radius =  0.325 angstrom
                   Q00  =   0.098229

C          x =  0.051709  y =  1.927184  z = -2.454582 angstrom
           Maximum rank =  0   Radius =  0.650 angstrom
                   Q00  =  -0.237098

C          x = -0.752291  y =  1.408184  z = -3.646582 angstrom
           Maximum rank =  0   Radius =  0.650 angstrom
                   Q00  =  -0.235479

H          x =  0.321709  y =  1.099184  z = -1.804582 angstrom
           Maximum rank =  0   Radius =  0.325 angstrom
                   Q00  =   0.094988

H          x =  0.952709  y =  2.413184  z = -2.817582 angstrom
           Maximum rank =  0   Radius =  0.325 angstrom
                   Q00  =   0.066015

H          x = -0.517291  y =  2.656184  z = -1.887582 angstrom
           Maximum rank =  0   Radius =  0.325 angstrom
                   Q00  =   0.077098

H          x = -0.958291  y =  2.259184  z = -4.293582 angstrom
           Maximum rank =  0   Radius =  0.325 angstrom
                   Q00  =   0.066810

H          x = -1.711129  y =  0.972994  z = -3.328392 angstrom
           Maximum rank =  0   Radius =  0.325 angstrom
                   Q00  =   0.083570

H          x = -0.156247  y =  0.708224  z = -4.250562 angstrom
           Maximum rank =  0   Radius =  0.325 angstrom
                   Q00  =   0.076044

Total multipoles referred to origin at
           x =   0.000000,  y =    0.000000,  z =    0.000000 angstrom
                   Q00  =  -0.000000

Finished at 22:17:42 on 26 Apr 2020

  DMA results are available in the Python driver through the
	  variable('DMA DISTRIBUTED MULTIPOLES')
  and
	  variable('DMA TOTAL MULTIPOLES')
  commands.

    Psi4 stopped on: Sunday, 26 April 2020 10:17PM
    Psi4 wall time for execution: 0:04:27.85

*** Psi4 exiting successfully. Buy a developer a beer!
