                               Psi4 1.3.2 release

  ==> Input File <==

--------------------------------------------------------------------------
import numpy as np
set {scf_type pk
basis cc-pvdz
d_convergence 10
gdma_switch   0
gdma_limit    0
gdma_origin   [ 0.0,  0.0,  0.0 ]
}
molecule test {
    units Angstrom
    0 1
    --
    0 1
    C               -1.745475304878458     2.649376393684764     0.902940368934509
    C               -2.854475304878459     1.733376393684764     1.385940368934510
    H               -2.165475304878458     3.549376393684764     0.457940368934509
    H               -1.085475304878459     2.913376393684764     1.726940368934510
    H               -1.166475304878458     2.129376393684764     0.155940368934509
    H               -2.398475304878458     0.864376393684764     1.848940368934509
    H               -3.473915304878459     1.410816393684764     0.536090368934509
    H               -3.442155304878459     2.235546393684764     2.168540368934509
    C                1.285524695121542    -1.783623606315236     1.512940368934509
    C                0.189524695121541     0.310376393684764    -1.247059631065491
    C                1.001524695121541    -1.151623606315236     0.180940368934509
    C                1.395524695121541    -1.521623606315236    -1.066059631065491
    N                0.257524695121542    -0.000623606315236     0.040940368934509
    N                0.871524695121542    -0.592623606315236    -1.940059631065491
    H               -0.360475304878459     1.141376393684764    -1.663059631065491
    H                0.901524695121542    -0.616623606315236    -2.949059631065491
    H                1.996524695121541    -2.390623606315236    -1.311059631065491
    H                1.831524695121541    -1.076623606315236     2.133940368934509
    H                1.951524695121542    -2.617623606315236     1.340940368934509
    H                0.390347695121541    -2.113053606315236     2.060790368934509

}
e, wfn = energy('scf', return_wfn=True)
gdma(wfn)
dmavals = variable('DMA DISTRIBUTED MULTIPOLES')
charges = np.array(dmavals)
print(charges)
np.save('SSI-158ALA-193HIE-2-dimer.npy', np.array(charges))--------------------------------------------------------------------------

*** tstart() called on ds3
*** at Tue Apr 28 01:36:58 2020

   => Loading Basis Set <=

    Name: CC-PVDZ
    Role: ORBITAL
    Keyword: BASIS
    atoms 1-2, 9-12  entry C          line   138 file /theoryfs2/ds/metcalf/miniconda2/envs/tf2gpu/share/psi4/basis/cc-pvdz.gbs
    atoms 3-8, 15-20 entry H          line    22 file /theoryfs2/ds/metcalf/miniconda2/envs/tf2gpu/share/psi4/basis/cc-pvdz.gbs
    atoms 13-14      entry N          line   168 file /theoryfs2/ds/metcalf/miniconda2/envs/tf2gpu/share/psi4/basis/cc-pvdz.gbs

         ---------------------------------------------------------
                                   SCF
               by Justin Turney, Rob Parrish, Andy Simmonett
                          and Daniel G. A. Smith
                              RHF Reference
                        1 Threads,    500 MiB Core
         ---------------------------------------------------------

  ==> Geometry <==

    Molecular point group: c1
    Full point group: C1

    Geometry (in Angstrom), charge = 0, multiplicity = 1:

       Center              X                  Y                   Z               Mass
    ------------   -----------------  -----------------  -----------------  -----------------
         C           -1.745475304878     2.649376393685     0.902940368935    12.000000000000
         C           -2.854475304878     1.733376393685     1.385940368935    12.000000000000
         H           -2.165475304878     3.549376393685     0.457940368935     1.007825032230
         H           -1.085475304878     2.913376393685     1.726940368935     1.007825032230
         H           -1.166475304878     2.129376393685     0.155940368935     1.007825032230
         H           -2.398475304878     0.864376393685     1.848940368935     1.007825032230
         H           -3.473915304878     1.410816393685     0.536090368935     1.007825032230
         H           -3.442155304878     2.235546393685     2.168540368935     1.007825032230
         C            1.285524695122    -1.783623606315     1.512940368935    12.000000000000
         C            0.189524695122     0.310376393685    -1.247059631065    12.000000000000
         C            1.001524695122    -1.151623606315     0.180940368935    12.000000000000
         C            1.395524695122    -1.521623606315    -1.066059631065    12.000000000000
         N            0.257524695122    -0.000623606315     0.040940368935    14.003074004430
         N            0.871524695122    -0.592623606315    -1.940059631065    14.003074004430
         H           -0.360475304878     1.141376393685    -1.663059631065     1.007825032230
         H            0.901524695122    -0.616623606315    -2.949059631065     1.007825032230
         H            1.996524695122    -2.390623606315    -1.311059631065     1.007825032230
         H            1.831524695122    -1.076623606315     2.133940368935     1.007825032230
         H            1.951524695122    -2.617623606315     1.340940368935     1.007825032230
         H            0.390347695122    -2.113053606315     2.060790368935     1.007825032230

  Running in c1 symmetry.

  Rotational constants: A =      0.09900  B =      0.03098  C =      0.02500 [cm^-1]
  Rotational constants: A =   2967.97930  B =    928.66867  C =    749.50144 [MHz]
  Nuclear repulsion =  355.758977551999976

  Charge       = 0
  Multiplicity = 1
  Electrons    = 62
  Nalpha       = 31
  Nbeta        = 31

  ==> Algorithm <==

  SCF Algorithm Type is PK.
  DIIS enabled.
  MOM disabled.
  Fractional occupation disabled.
  Guess Type is SAD.
  Energy threshold   = 1.00e-06
  Density threshold  = 1.00e-10
  Integral threshold = 0.00e+00

  ==> Primary Basis <==

  Basis Set: CC-PVDZ
    Blend: CC-PVDZ
    Number of shells: 84
    Number of basis function: 172
    Number of Cartesian functions: 180
    Spherical Harmonics?: true
    Max angular momentum: 2

  ==> Pre-Iterations <==

   -------------------------------------------------------
    Irrep   Nso     Nmo     Nalpha   Nbeta   Ndocc  Nsocc
   -------------------------------------------------------
     A        172     172       0       0       0       0
   -------------------------------------------------------
    Total     172     172      31      31      31       0
   -------------------------------------------------------

  ==> Integral Setup <==

  Using integral reordering PK algorithm.
  Sizing the integral batches needed.
  Building batch lookup table.
   Calculation information:
      Number of atoms:                  20
      Number of AO shells:              84
      Number of primitives:            236
      Number of atomic orbitals:       180
      Number of basis functions:       172

      Integral cutoff                 1.00e-12
      Number of threads:                 1

	Batch   1 pq = [       0,    9405] index = [             0,44231715] size =     44231715
	Batch   2 pq = [    9405,   13301] index = [      44231715,88464951] size =     44233236
	Batch   3 pq = [   13301,   14878] index = [      88464951,110684881] size =     22219930
  Task number: 11
  Buffer size: 11059200
  Buffer per thread: 2
  We computed 5338265 shell quartets total.
  Whereas there are 6374235 unique shell quartets.

  ==> DiskJK: Disk-Based J/K Matrices <==

    J tasked:                  Yes
    K tasked:                  Yes
    wK tasked:                  No
    Memory [MiB]:              375
    Schwarz Cutoff:          1E-12

    OpenMP threads:              1

  Minimum eigenvalue in the overlap matrix is 1.1822672717E-03.
  Using Symmetric Orthogonalization.

  SCF Guess: Superposition of Atomic Densities via on-the-fly atomic UHF.

  ==> Iterations <==

                        Total Energy        Delta E     RMS |[F,P]|

   @RHF iter SAD:  -342.26394857354182   -3.42264e+02   0.00000e+00
   @RHF iter   1:  -342.88343844193412   -6.19490e-01   3.39303e-03 DIIS
   @RHF iter   2:  -343.05750264976325   -1.74064e-01   1.73575e-03 DIIS
   @RHF iter   3:  -343.09977033438935   -4.22677e-02   4.42962e-04 DIIS
   @RHF iter   4:  -343.10335375211139   -3.58342e-03   1.84333e-04 DIIS
   @RHF iter   5:  -343.10393265493769   -5.78903e-04   2.67546e-05 DIIS
   @RHF iter   6:  -343.10395381452128   -2.11596e-05   1.16957e-05 DIIS
   @RHF iter   7:  -343.10395733116945   -3.51665e-06   4.06712e-06 DIIS
   @RHF iter   8:  -343.10395808565158   -7.54482e-07   1.63294e-06 DIIS
   @RHF iter   9:  -343.10395824698230   -1.61331e-07   5.81271e-07 DIIS
   @RHF iter  10:  -343.10395826312936   -1.61471e-08   1.79979e-07 DIIS
   @RHF iter  11:  -343.10395826487144   -1.74208e-09   8.04442e-08 DIIS
   @RHF iter  12:  -343.10395826512496   -2.53522e-10   3.14978e-08 DIIS
   @RHF iter  13:  -343.10395826516788   -4.29168e-11   8.80072e-09 DIIS
   @RHF iter  14:  -343.10395826517561   -7.73070e-12   3.23987e-09 DIIS
   @RHF iter  15:  -343.10395826517322    2.38742e-12   1.31401e-09 DIIS
   @RHF iter  16:  -343.10395826517401   -7.95808e-13   4.28659e-10 DIIS
   @RHF iter  17:  -343.10395826517311    9.09495e-13   1.24318e-10 DIIS
   @RHF iter  18:  -343.10395826517498   -1.87583e-12   4.60949e-11 DIIS
  Energy and wave function converged.

  ==> Post-Iterations <==

    Orbital Energies [Eh]
    ---------------------

    Doubly Occupied:

       1A    -15.622586     2A    -15.529865     3A    -11.294251
       4A    -11.253700     5A    -11.244098     6A    -11.224785
       7A    -11.200156     8A    -11.194593     9A     -1.344481
      10A     -1.156222    11A     -1.033693    12A     -1.003499
      13A     -0.943877    14A     -0.820777    15A     -0.817765
      16A     -0.764352    17A     -0.745221    18A     -0.614695
      19A     -0.605929    20A     -0.597997    21A     -0.584634
      22A     -0.578814    23A     -0.552798    24A     -0.546135
      25A     -0.523482    26A     -0.482821    27A     -0.471162
      28A     -0.464256    29A     -0.410539    30A     -0.380413
      31A     -0.312597

    Virtual:

      32A      0.172980    33A      0.187212    34A      0.194212
      35A      0.202639    36A      0.221541    37A      0.231558
      38A      0.236125    39A      0.258211    40A      0.273579
      41A      0.280227    42A      0.286508    43A      0.297250
      44A      0.316027    45A      0.334770    46A      0.379164
      47A      0.405341    48A      0.416163    49A      0.465321
      50A      0.476005    51A      0.529008    52A      0.594808
      53A      0.614179    54A      0.617404    55A      0.628143
      56A      0.633754    57A      0.634809    58A      0.663328
      59A      0.682682    60A      0.695555    61A      0.708487
      62A      0.724657    63A      0.759333    64A      0.772573
      65A      0.788171    66A      0.831491    67A      0.836854
      68A      0.858682    69A      0.868781    70A      0.881204
      71A      0.896233    72A      0.908245    73A      0.909789
      74A      0.914706    75A      0.920487    76A      0.941970
      77A      0.946556    78A      0.964418    79A      0.967494
      80A      0.982035    81A      1.025164    82A      1.033929
      83A      1.049483    84A      1.094007    85A      1.126659
      86A      1.136548    87A      1.147626    88A      1.156598
      89A      1.182963    90A      1.212826    91A      1.252586
      92A      1.260341    93A      1.311279    94A      1.326306
      95A      1.329930    96A      1.358950    97A      1.427924
      98A      1.435844    99A      1.484069   100A      1.496331
     101A      1.514639   102A      1.524598   103A      1.573746
     104A      1.590388   105A      1.621345   106A      1.642806
     107A      1.689591   108A      1.694914   109A      1.699406
     110A      1.738664   111A      1.780025   112A      1.805419
     113A      1.811742   114A      1.865905   115A      1.880914
     116A      1.899176   117A      1.906267   118A      1.917206
     119A      1.933039   120A      1.952640   121A      1.960969
     122A      1.964949   123A      1.973314   124A      1.980300
     125A      1.990057   126A      1.998640   127A      2.003390
     128A      2.014728   129A      2.030016   130A      2.096668
     131A      2.109352   132A      2.120606   133A      2.130191
     134A      2.145034   135A      2.166900   136A      2.208525
     137A      2.235776   138A      2.301033   139A      2.320271
     140A      2.336891   141A      2.362775   142A      2.397441
     143A      2.444571   144A      2.450765   145A      2.471398
     146A      2.487391   147A      2.497230   148A      2.558668
     149A      2.587755   150A      2.601563   151A      2.616757
     152A      2.680855   153A      2.742956   154A      2.763924
     155A      2.781226   156A      2.788742   157A      2.793598
     158A      2.828100   159A      2.834409   160A      2.871100
     161A      2.876318   162A      2.882556   163A      2.904227
     164A      2.912750   165A      2.968899   166A      2.978167
     167A      3.004429   168A      3.105071   169A      3.169689
     170A      3.263093   171A      3.475171   172A      3.796099

    Final Occupation by Irrep:
              A
    DOCC [    31 ]

  @RHF Final Energy:  -343.10395826517498

   => Energetics <=

    Nuclear Repulsion Energy =            355.7589775519999762
    One-Electron Energy =               -1169.0854833508351476
    Two-Electron Energy =                 470.2225475336601335
    Total Energy =                       -343.1039582651749811

Computation Completed

Properties will be evaluated at   0.000000,   0.000000,   0.000000 [a0]

Properties computed using the SCF density matrix

  Nuclear Dipole Moment: [e a0]
     X:    -6.5853      Y:     5.0919      Z:     6.1055

  Electronic Dipole Moment: [e a0]
     X:     7.0510      Y:    -5.5864      Z:    -7.3853

  Dipole Moment: [e a0]
     X:     0.4657      Y:    -0.4945      Z:    -1.2798     Total:     1.4489

  Dipole Moment: [D]
     X:     1.1838      Y:    -1.2569      Z:    -3.2528     Total:     3.6827

*** tstop() called on ds3 at Tue Apr 28 01:37:50 2020
Module time:
	user time   =      36.35 seconds =       0.61 minutes
	system time =      16.43 seconds =       0.27 minutes
	total time  =         52 seconds =       0.87 minutes
Total time:
	user time   =      36.35 seconds =       0.61 minutes
	system time =      16.43 seconds =       0.27 minutes
	total time  =         52 seconds =       0.87 minutes
                                     G D M A

                                 by Anthony Stone

                           version 2.2.06, 22 June 2011

               Distributed Multipoles from Gaussian wavefunctions

Starting at 1:37:50 on 28 Apr 2020

Using SCF density matrix from file ./SSI/SSI-158ALA-193HIE-2-dimer.test.8840.fchk

                         Distributed Multipole Analysis

Standard DMA

Positions and radii in angstrom
Multipole moments in atomic units, ea_0^k for rank k

C          x = -1.745475  y =  2.649376  z =  0.902940 angstrom
           Maximum rank =  0   Radius =  0.650 angstrom
                   Q00  =  -0.220936

C          x = -2.854475  y =  1.733376  z =  1.385940 angstrom
           Maximum rank =  0   Radius =  0.650 angstrom
                   Q00  =  -0.236011

H          x = -2.165475  y =  3.549376  z =  0.457940 angstrom
           Maximum rank =  0   Radius =  0.325 angstrom
                   Q00  =   0.057353

H          x = -1.085475  y =  2.913376  z =  1.726940 angstrom
           Maximum rank =  0   Radius =  0.325 angstrom
                   Q00  =   0.081397

H          x = -1.166475  y =  2.129376  z =  0.155940 angstrom
           Maximum rank =  0   Radius =  0.325 angstrom
                   Q00  =   0.085584

H          x = -2.398475  y =  0.864376  z =  1.848940 angstrom
           Maximum rank =  0   Radius =  0.325 angstrom
                   Q00  =   0.086421

H          x = -3.473915  y =  1.410816  z =  0.536090 angstrom
           Maximum rank =  0   Radius =  0.325 angstrom
                   Q00  =   0.070094

H          x = -3.442155  y =  2.235546  z =  2.168540 angstrom
           Maximum rank =  0   Radius =  0.325 angstrom
                   Q00  =   0.067440

C          x =  1.285525  y = -1.783624  z =  1.512940 angstrom
           Maximum rank =  0   Radius =  0.650 angstrom
                   Q00  =  -0.193853

C          x =  0.189525  y =  0.310376  z = -1.247060 angstrom
           Maximum rank =  0   Radius =  0.650 angstrom
                   Q00  =   0.465969

C          x =  1.001525  y = -1.151624  z =  0.180940 angstrom
           Maximum rank =  0   Radius =  0.650 angstrom
                   Q00  =   0.229556

C          x =  1.395525  y = -1.521624  z = -1.066060 angstrom
           Maximum rank =  0   Radius =  0.650 angstrom
                   Q00  =  -0.001176

N          x =  0.257525  y = -0.000624  z =  0.040940 angstrom
           Maximum rank =  0   Radius =  0.650 angstrom
                   Q00  =  -0.772868

N          x =  0.871525  y = -0.592624  z = -1.940060 angstrom
           Maximum rank =  0   Radius =  0.650 angstrom
                   Q00  =  -0.479445

H          x = -0.360475  y =  1.141376  z = -1.663060 angstrom
           Maximum rank =  0   Radius =  0.325 angstrom
                   Q00  =   0.122811

H          x =  0.901525  y = -0.616624  z = -2.949060 angstrom
           Maximum rank =  0   Radius =  0.325 angstrom
                   Q00  =   0.218363

H          x =  1.996525  y = -2.390624  z = -1.311060 angstrom
           Maximum rank =  0   Radius =  0.325 angstrom
                   Q00  =   0.104752

H          x =  1.831525  y = -1.076624  z =  2.133940 angstrom
           Maximum rank =  0   Radius =  0.325 angstrom
                   Q00  =   0.111247

H          x =  1.951525  y = -2.617624  z =  1.340940 angstrom
           Maximum rank =  0   Radius =  0.325 angstrom
                   Q00  =   0.092033

H          x =  0.390348  y = -2.113054  z =  2.060790 angstrom
           Maximum rank =  0   Radius =  0.325 angstrom
                   Q00  =   0.111270

Total multipoles referred to origin at
           x =   0.000000,  y =    0.000000,  z =    0.000000 angstrom
                   Q00  =  -0.000000

Finished at 1:37:50 on 28 Apr 2020

  DMA results are available in the Python driver through the
	  variable('DMA DISTRIBUTED MULTIPOLES')
  and
	  variable('DMA TOTAL MULTIPOLES')
  commands.

    Psi4 stopped on: Tuesday, 28 April 2020 01:37AM
    Psi4 wall time for execution: 0:00:51.88

*** Psi4 exiting successfully. Buy a developer a beer!
