                               Psi4 1.3.2 release

  ==> Input File <==

--------------------------------------------------------------------------
import numpy as np
set {scf_type pk
basis cc-pvdz
d_convergence 10
gdma_switch   0
gdma_limit    0
gdma_origin   [ 0.0,  0.0,  0.0 ]
}
molecule test {
    units Angstrom
    0 1
    --
    0 1
    C                0.112628767188240     1.700373409652751    -0.675400962343936
    C                0.601628767188240     1.317373409652751    -2.077400962343936
    C               -1.322371232811760     1.264373409652751    -0.395400962343936
    H                0.736628767188240     1.208373409652751     0.070599037656064
    H                0.211628767188240     2.774373409652751    -0.512400962343936
    H                0.079628767188240     0.423373409652751    -2.407400962343936
    H               -1.441371232811760     0.202373409652751    -0.611400962343936
    H               -1.544371232811760     1.430373409652751     0.659599037656064
    H               -2.038371232811760     1.835373409652751    -0.980400962343936
    H                0.407038767188240     2.143823409652752    -2.776760962343936
    H                1.675558767188240     1.080563409652751    -2.052930962343936
    C                0.739628767188240    -1.470626590347249     1.423599037656065
    C               -0.123371232811760    -2.696626590347249     1.667599037656064
    H                0.770628767188240    -1.244626590347249     0.355599037656064
    H                0.321628767188240    -0.614626590347249     1.955599037656064
    H                1.752628767188241    -1.637626590347249     1.780599037656064
    H               -0.122371232811760    -2.922626590347249     2.731599037656064
    H                0.258668767188240    -3.551916590347248     1.090949037656064
    H               -1.164521232811760    -2.494906590347248     1.375499037656064

}
e, wfn = energy('scf', return_wfn=True)
gdma(wfn)
dmavals = variable('DMA DISTRIBUTED MULTIPOLES')
charges = np.array(dmavals)
print(charges)
np.save('SSI-051ILE-068LEU-1-dimer.npy', np.array(charges))--------------------------------------------------------------------------

*** tstart() called on ds3
*** at Tue Apr 28 21:58:59 2020

   => Loading Basis Set <=

    Name: CC-PVDZ
    Role: ORBITAL
    Keyword: BASIS
    atoms 1-3, 12-13  entry C          line   138 file /theoryfs2/ds/metcalf/miniconda2/envs/tf2gpu/share/psi4/basis/cc-pvdz.gbs
    atoms 4-11, 14-19 entry H          line    22 file /theoryfs2/ds/metcalf/miniconda2/envs/tf2gpu/share/psi4/basis/cc-pvdz.gbs

         ---------------------------------------------------------
                                   SCF
               by Justin Turney, Rob Parrish, Andy Simmonett
                          and Daniel G. A. Smith
                              RHF Reference
                        1 Threads,    500 MiB Core
         ---------------------------------------------------------

  ==> Geometry <==

    Molecular point group: c1
    Full point group: C1

    Geometry (in Angstrom), charge = 0, multiplicity = 1:

       Center              X                  Y                   Z               Mass
    ------------   -----------------  -----------------  -----------------  -----------------
         C            0.112628767188     1.700373409653    -0.675400962344    12.000000000000
         C            0.601628767188     1.317373409653    -2.077400962344    12.000000000000
         C           -1.322371232812     1.264373409653    -0.395400962344    12.000000000000
         H            0.736628767188     1.208373409653     0.070599037656     1.007825032230
         H            0.211628767188     2.774373409653    -0.512400962344     1.007825032230
         H            0.079628767188     0.423373409653    -2.407400962344     1.007825032230
         H           -1.441371232812     0.202373409653    -0.611400962344     1.007825032230
         H           -1.544371232812     1.430373409653     0.659599037656     1.007825032230
         H           -2.038371232812     1.835373409653    -0.980400962344     1.007825032230
         H            0.407038767188     2.143823409653    -2.776760962344     1.007825032230
         H            1.675558767188     1.080563409653    -2.052930962344     1.007825032230
         C            0.739628767188    -1.470626590347     1.423599037656    12.000000000000
         C           -0.123371232812    -2.696626590347     1.667599037656    12.000000000000
         H            0.770628767188    -1.244626590347     0.355599037656     1.007825032230
         H            0.321628767188    -0.614626590347     1.955599037656     1.007825032230
         H            1.752628767188    -1.637626590347     1.780599037656     1.007825032230
         H           -0.122371232812    -2.922626590347     2.731599037656     1.007825032230
         H            0.258668767188    -3.551916590347     1.090949037656     1.007825032230
         H           -1.164521232812    -2.494906590347     1.375499037656     1.007825032230

  Running in c1 symmetry.

  Rotational constants: A =      0.21704  B =      0.04322  C =      0.03988 [cm^-1]
  Rotational constants: A =   6506.56256  B =   1295.84996  C =   1195.65386 [MHz]
  Nuclear repulsion =  180.047509467921628

  Charge       = 0
  Multiplicity = 1
  Electrons    = 44
  Nalpha       = 22
  Nbeta        = 22

  ==> Algorithm <==

  SCF Algorithm Type is PK.
  DIIS enabled.
  MOM disabled.
  Fractional occupation disabled.
  Guess Type is SAD.
  Energy threshold   = 1.00e-06
  Density threshold  = 1.00e-10
  Integral threshold = 0.00e+00

  ==> Primary Basis <==

  Basis Set: CC-PVDZ
    Blend: CC-PVDZ
    Number of shells: 72
    Number of basis function: 140
    Number of Cartesian functions: 145
    Spherical Harmonics?: true
    Max angular momentum: 2

  ==> Pre-Iterations <==

   -------------------------------------------------------
    Irrep   Nso     Nmo     Nalpha   Nbeta   Ndocc  Nsocc
   -------------------------------------------------------
     A        140     140       0       0       0       0
   -------------------------------------------------------
    Total     140     140      22      22      22       0
   -------------------------------------------------------

  ==> Integral Setup <==

  Using integral reordering PK algorithm.
  Sizing the integral batches needed.
  Building batch lookup table.
   Calculation information:
      Number of atoms:                  19
      Number of AO shells:              72
      Number of primitives:            180
      Number of atomic orbitals:       145
      Number of basis functions:       140

      Integral cutoff                 1.00e-12
      Number of threads:                 1

	Batch   1 pq = [       0,    9405] index = [             0,44231715] size =     44231715
	Batch   2 pq = [    9405,    9870] index = [      44231715,48713385] size =      4481670
  Task number: 5
  Buffer size: 11059200
  Buffer per thread: 2
  We computed 2965433 shell quartets total.
  Whereas there are 3454506 unique shell quartets.

  ==> DiskJK: Disk-Based J/K Matrices <==

    J tasked:                  Yes
    K tasked:                  Yes
    wK tasked:                  No
    Memory [MiB]:              375
    Schwarz Cutoff:          1E-12

    OpenMP threads:              1

  Minimum eigenvalue in the overlap matrix is 5.3689778804E-03.
  Using Symmetric Orthogonalization.

  SCF Guess: Superposition of Atomic Densities via on-the-fly atomic UHF.

  ==> Iterations <==

                        Total Energy        Delta E     RMS |[F,P]|

   @RHF iter SAD:  -196.38279529790711   -1.96383e+02   0.00000e+00
   @RHF iter   1:  -197.30877626014927   -9.25981e-01   3.81827e-03 DIIS
   @RHF iter   2:  -197.46956013081427   -1.60784e-01   1.65081e-03 DIIS
   @RHF iter   3:  -197.49828982255590   -2.87297e-02   3.26284e-04 DIIS
   @RHF iter   4:  -197.50052350681568   -2.23368e-03   4.90127e-05 DIIS
   @RHF iter   5:  -197.50056308787680   -3.95811e-05   1.48665e-05 DIIS
   @RHF iter   6:  -197.50056647510249   -3.38723e-06   2.46353e-06 DIIS
   @RHF iter   7:  -197.50056658429884   -1.09196e-07   4.68026e-07 DIIS
   @RHF iter   8:  -197.50056658881803   -4.51919e-09   1.21767e-07 DIIS
   @RHF iter   9:  -197.50056658910839   -2.90356e-10   3.82741e-08 DIIS
   @RHF iter  10:  -197.50056658914326   -3.48734e-11   7.99413e-09 DIIS
   @RHF iter  11:  -197.50056658914471   -1.44951e-12   1.49814e-09 DIIS
   @RHF iter  12:  -197.50056658914315    1.56319e-12   2.75608e-10 DIIS
   @RHF iter  13:  -197.50056658914519   -2.04636e-12   4.99054e-11 DIIS
  Energy and wave function converged.

  ==> Post-Iterations <==

    Orbital Energies [Eh]
    ---------------------

    Doubly Occupied:

       1A    -11.219010     2A    -11.217419     3A    -11.216878
       4A    -11.216231     5A    -11.213899     6A     -1.052267
       7A     -1.021449     8A     -0.924459     9A     -0.837004
      10A     -0.796528    11A     -0.626219    12A     -0.601677
      13A     -0.597641    14A     -0.593677    15A     -0.546392
      16A     -0.535963    17A     -0.503647    18A     -0.487380
      19A     -0.484410    20A     -0.474014    21A     -0.467516
      22A     -0.460748

    Virtual:

      23A      0.166631    24A      0.196596    25A      0.211691
      26A      0.223287    27A      0.232952    28A      0.252228
      29A      0.259952    30A      0.265973    31A      0.271037
      32A      0.281908    33A      0.289318    34A      0.304979
      35A      0.322005    36A      0.346564    37A      0.378407
      38A      0.417308    39A      0.431070    40A      0.563041
      41A      0.593457    42A      0.600984    43A      0.607552
      44A      0.622120    45A      0.629900    46A      0.645780
      47A      0.653574    48A      0.685390    49A      0.758019
      50A      0.786507    51A      0.808233    52A      0.840533
      53A      0.868060    54A      0.871007    55A      0.883122
      56A      0.887072    57A      0.891734    58A      0.894963
      59A      0.904176    60A      0.907355    61A      0.916157
      62A      0.922347    63A      0.932849    64A      0.934717
      65A      0.964312    66A      0.985306    67A      0.994960
      68A      1.019078    69A      1.105803    70A      1.113230
      71A      1.123421    72A      1.159265    73A      1.209385
      74A      1.246780    75A      1.392981    76A      1.462076
      77A      1.471481    78A      1.477580    79A      1.490135
      80A      1.512156    81A      1.583903    82A      1.650314
      83A      1.663260    84A      1.681209    85A      1.691924
      86A      1.697681    87A      1.715440    88A      1.841398
      89A      1.849854    90A      1.858559    91A      1.879170
      92A      1.885923    93A      1.914990    94A      1.923529
      95A      1.928126    96A      1.944941    97A      1.947110
      98A      1.951979    99A      1.954730   100A      1.964050
     101A      1.968431   102A      1.978740   103A      1.999070
     104A      2.013050   105A      2.020139   106A      2.044152
     107A      2.070237   108A      2.103428   109A      2.121350
     110A      2.131824   111A      2.205574   112A      2.258006
     113A      2.305301   114A      2.308951   115A      2.318602
     116A      2.333317   117A      2.378613   118A      2.442611
     119A      2.458366   120A      2.471098   121A      2.533333
     122A      2.559511   123A      2.567439   124A      2.573558
     125A      2.616943   126A      2.664841   127A      2.757772
     128A      2.767939   129A      2.782165   130A      2.796227
     131A      2.801182   132A      2.825709   133A      2.854965
     134A      2.863280   135A      2.905036   136A      2.938955
     137A      2.948523   138A      2.962159   139A      2.985378
     140A      3.062071

    Final Occupation by Irrep:
              A
    DOCC [    22 ]

  @RHF Final Energy:  -197.50056658914519

   => Energetics <=

    Nuclear Repulsion Energy =            180.0475094679216284
    One-Electron Energy =                -620.9072963644539414
    Two-Electron Energy =                 243.3592203073871474
    Total Energy =                       -197.5005665891451940

Computation Completed

Properties will be evaluated at   0.000000,   0.000000,   0.000000 [a0]

Properties computed using the SCF density matrix

  Nuclear Dipole Moment: [e a0]
     X:    -0.0909      Y:    -1.2822      Z:     0.6363

  Electronic Dipole Moment: [e a0]
     X:     0.1130      Y:     1.2870      Z:    -0.5914

  Dipole Moment: [e a0]
     X:     0.0221      Y:     0.0048      Z:     0.0449     Total:     0.0503

  Dipole Moment: [D]
     X:     0.0562      Y:     0.0122      Z:     0.1142     Total:     0.1279

*** tstop() called on ds3 at Tue Apr 28 21:59:19 2020
Module time:
	user time   =      14.97 seconds =       0.25 minutes
	system time =       5.50 seconds =       0.09 minutes
	total time  =         20 seconds =       0.33 minutes
Total time:
	user time   =      14.97 seconds =       0.25 minutes
	system time =       5.50 seconds =       0.09 minutes
	total time  =         20 seconds =       0.33 minutes
                                     G D M A

                                 by Anthony Stone

                           version 2.2.06, 22 June 2011

               Distributed Multipoles from Gaussian wavefunctions

Starting at 21:59:19 on 28 Apr 2020

Using SCF density matrix from file ./SSI/SSI-051ILE-068LEU-1-dimer.test.9305.fchk

                         Distributed Multipole Analysis

Standard DMA

Positions and radii in angstrom
Multipole moments in atomic units, ea_0^k for rank k

C          x =  0.112629  y =  1.700373  z = -0.675401 angstrom
           Maximum rank =  0   Radius =  0.650 angstrom
                   Q00  =  -0.094714

C          x =  0.601629  y =  1.317373  z = -2.077401 angstrom
           Maximum rank =  0   Radius =  0.650 angstrom
                   Q00  =  -0.237954

C          x = -1.322371  y =  1.264373  z = -0.395401 angstrom
           Maximum rank =  0   Radius =  0.650 angstrom
                   Q00  =  -0.244060

H          x =  0.736629  y =  1.208373  z =  0.070599 angstrom
           Maximum rank =  0   Radius =  0.325 angstrom
                   Q00  =   0.050606

H          x =  0.211629  y =  2.774373  z = -0.512401 angstrom
           Maximum rank =  0   Radius =  0.325 angstrom
                   Q00  =   0.049643

H          x =  0.079629  y =  0.423373  z = -2.407401 angstrom
           Maximum rank =  0   Radius =  0.325 angstrom
                   Q00  =   0.074672

H          x = -1.441371  y =  0.202373  z = -0.611401 angstrom
           Maximum rank =  0   Radius =  0.325 angstrom
                   Q00  =   0.076735

H          x = -1.544371  y =  1.430373  z =  0.659599 angstrom
           Maximum rank =  0   Radius =  0.325 angstrom
                   Q00  =   0.080484

H          x = -2.038371  y =  1.835373  z = -0.980401 angstrom
           Maximum rank =  0   Radius =  0.325 angstrom
                   Q00  =   0.077239

H          x =  0.407039  y =  2.143823  z = -2.776761 angstrom
           Maximum rank =  0   Radius =  0.325 angstrom
                   Q00  =   0.079904

H          x =  1.675559  y =  1.080563  z = -2.052931 angstrom
           Maximum rank =  0   Radius =  0.325 angstrom
                   Q00  =   0.086917

C          x =  0.739629  y = -1.470627  z =  1.423599 angstrom
           Maximum rank =  0   Radius =  0.650 angstrom
                   Q00  =  -0.242069

C          x = -0.123371  y = -2.696627  z =  1.667599 angstrom
           Maximum rank =  0   Radius =  0.650 angstrom
                   Q00  =  -0.227333

H          x =  0.770629  y = -1.244627  z =  0.355599 angstrom
           Maximum rank =  0   Radius =  0.325 angstrom
                   Q00  =   0.076612

H          x =  0.321629  y = -0.614627  z =  1.955599 angstrom
           Maximum rank =  0   Radius =  0.325 angstrom
                   Q00  =   0.077387

H          x =  1.752629  y = -1.637627  z =  1.780599 angstrom
           Maximum rank =  0   Radius =  0.325 angstrom
                   Q00  =   0.080364

H          x = -0.122371  y = -2.922627  z =  2.731599 angstrom
           Maximum rank =  0   Radius =  0.325 angstrom
                   Q00  =   0.079269

H          x =  0.258669  y = -3.551917  z =  1.090949 angstrom
           Maximum rank =  0   Radius =  0.325 angstrom
                   Q00  =   0.078995

H          x = -1.164521  y = -2.494907  z =  1.375499 angstrom
           Maximum rank =  0   Radius =  0.325 angstrom
                   Q00  =   0.077301

Total multipoles referred to origin at
           x =   0.000000,  y =    0.000000,  z =    0.000000 angstrom
                   Q00  =  -0.000000

Finished at 21:59:19 on 28 Apr 2020

  DMA results are available in the Python driver through the
	  variable('DMA DISTRIBUTED MULTIPOLES')
  and
	  variable('DMA TOTAL MULTIPOLES')
  commands.

    Psi4 stopped on: Tuesday, 28 April 2020 09:59PM
    Psi4 wall time for execution: 0:00:20.37

*** Psi4 exiting successfully. Buy a developer a beer!
