                               Psi4 1.3.2 release

  ==> Input File <==

--------------------------------------------------------------------------
import numpy as np
set {scf_type pk
basis cc-pvdz
d_convergence 10
gdma_switch   0
gdma_limit    0
gdma_origin   [ 0.0,  0.0,  0.0 ]
}
molecule test {
    units Angstrom
    0 1
    --
    0 1
    C                1.939455407789193    -0.242603987514592     1.353824139891570
    C                2.472455407789193    -1.572603987514592     0.894824139891571
    C                3.060455407789193     0.744396012485408     1.071824139891571
    H                1.676455407789193    -0.266603987514592     2.406824139891571
    H                1.082455407789193     0.037396012485408     0.753824139891571
    H                3.090455407789193    -1.988603987514592     1.683824139891570
    H                1.667455407789193    -2.258603987514592     0.628824139891570
    H                2.645455407789194     1.697396012485408     0.744824139891570
    H                3.105565407789193    -1.329433987514592     0.028774139891570
    H                3.637315407789193     0.265196012485408     0.267094139891570
    H                3.660395407789193     0.890226012485408     1.982208139891570
    C               -1.767544592210807    -2.095603987514592     1.307824139891570
    C               -1.614544592210807     0.375396012485408     0.781824139891571
    C               -1.400544592210807    -0.943603987514592     0.392824139891570
    C               -1.247544592210807     1.435396012485408    -0.038175860108430
    C               -0.665544592210807     1.187396012485408    -1.275175860108430
    C               -0.807544592210807    -1.183603987514592    -0.849175860108429
    C               -0.443544592210807    -0.124603987514592    -1.683175860108430
    O               -0.313544592210807     2.231396012485408    -2.077175860108429
    H               -2.132544592210807     0.598396012485408     1.698824139891571
    H               -1.422544592210807     2.452396012485408     0.282824139891570
    H               -1.319544592210807    -1.963603987514592     2.285824139891571
    H               -1.267544592210807    -2.977603987514592     0.901824139891571
    H               -0.628544592210807    -2.200603987514592    -1.175175860108429
    H               -0.338544592210807     3.066396012485408    -1.579175860108430
    H                0.012455407789193    -0.313603987514592    -2.644175860108430
    H               -2.843414592210806    -2.307613987514592     1.394784139891570

}
e, wfn = energy('scf', return_wfn=True)
gdma(wfn)
dmavals = variable('DMA DISTRIBUTED MULTIPOLES')
charges = np.array(dmavals)
print(charges)
np.save('SSI-159PRO-178TYR-1-dimer.npy', np.array(charges))--------------------------------------------------------------------------

*** tstart() called on ds3
*** at Mon Apr 27 01:40:02 2020

   => Loading Basis Set <=

    Name: CC-PVDZ
    Role: ORBITAL
    Keyword: BASIS
    atoms 1-3, 12-18  entry C          line   138 file /theoryfs2/ds/metcalf/miniconda2/envs/tf2gpu/share/psi4/basis/cc-pvdz.gbs
    atoms 4-11, 20-27 entry H          line    22 file /theoryfs2/ds/metcalf/miniconda2/envs/tf2gpu/share/psi4/basis/cc-pvdz.gbs
    atoms 19          entry O          line   198 file /theoryfs2/ds/metcalf/miniconda2/envs/tf2gpu/share/psi4/basis/cc-pvdz.gbs

         ---------------------------------------------------------
                                   SCF
               by Justin Turney, Rob Parrish, Andy Simmonett
                          and Daniel G. A. Smith
                              RHF Reference
                        1 Threads,    500 MiB Core
         ---------------------------------------------------------

  ==> Geometry <==

    Molecular point group: c1
    Full point group: C1

    Geometry (in Angstrom), charge = 0, multiplicity = 1:

       Center              X                  Y                   Z               Mass
    ------------   -----------------  -----------------  -----------------  -----------------
         C            1.939455407789    -0.242603987515     1.353824139892    12.000000000000
         C            2.472455407789    -1.572603987515     0.894824139892    12.000000000000
         C            3.060455407789     0.744396012485     1.071824139892    12.000000000000
         H            1.676455407789    -0.266603987515     2.406824139892     1.007825032230
         H            1.082455407789     0.037396012485     0.753824139892     1.007825032230
         H            3.090455407789    -1.988603987515     1.683824139892     1.007825032230
         H            1.667455407789    -2.258603987515     0.628824139892     1.007825032230
         H            2.645455407789     1.697396012485     0.744824139892     1.007825032230
         H            3.105565407789    -1.329433987515     0.028774139892     1.007825032230
         H            3.637315407789     0.265196012485     0.267094139892     1.007825032230
         H            3.660395407789     0.890226012485     1.982208139892     1.007825032230
         C           -1.767544592211    -2.095603987515     1.307824139892    12.000000000000
         C           -1.614544592211     0.375396012485     0.781824139892    12.000000000000
         C           -1.400544592211    -0.943603987515     0.392824139892    12.000000000000
         C           -1.247544592211     1.435396012485    -0.038175860108    12.000000000000
         C           -0.665544592211     1.187396012485    -1.275175860108    12.000000000000
         C           -0.807544592211    -1.183603987515    -0.849175860108    12.000000000000
         C           -0.443544592211    -0.124603987515    -1.683175860108    12.000000000000
         O           -0.313544592211     2.231396012485    -2.077175860108    15.994914619570
         H           -2.132544592211     0.598396012485     1.698824139892     1.007825032230
         H           -1.422544592211     2.452396012485     0.282824139892     1.007825032230
         H           -1.319544592211    -1.963603987515     2.285824139892     1.007825032230
         H           -1.267544592211    -2.977603987515     0.901824139892     1.007825032230
         H           -0.628544592211    -2.200603987515    -1.175175860108     1.007825032230
         H           -0.338544592211     3.066396012485    -1.579175860108     1.007825032230
         H            0.012455407789    -0.313603987515    -2.644175860108     1.007825032230
         H           -2.843414592211    -2.307613987515     1.394784139892     1.007825032230

  Running in c1 symmetry.

  Rotational constants: A =      0.03519  B =      0.02776  C =      0.01955 [cm^-1]
  Rotational constants: A =   1054.86702  B =    832.24870  C =    585.95975 [MHz]
  Nuclear repulsion =  607.629618876444283

  Charge       = 0
  Multiplicity = 1
  Electrons    = 84
  Nalpha       = 42
  Nbeta        = 42

  ==> Algorithm <==

  SCF Algorithm Type is PK.
  DIIS enabled.
  MOM disabled.
  Fractional occupation disabled.
  Guess Type is SAD.
  Energy threshold   = 1.00e-06
  Density threshold  = 1.00e-10
  Integral threshold = 0.00e+00

  ==> Primary Basis <==

  Basis Set: CC-PVDZ
    Blend: CC-PVDZ
    Number of shells: 114
    Number of basis function: 234
    Number of Cartesian functions: 245
    Spherical Harmonics?: true
    Max angular momentum: 2

  ==> Pre-Iterations <==

   -------------------------------------------------------
    Irrep   Nso     Nmo     Nalpha   Nbeta   Ndocc  Nsocc
   -------------------------------------------------------
     A        234     234       0       0       0       0
   -------------------------------------------------------
    Total     234     234      42      42      42       0
   -------------------------------------------------------

  ==> Integral Setup <==

  Using integral reordering PK algorithm.
  Sizing the integral batches needed.
  Building batch lookup table.
   Calculation information:
      Number of atoms:                  27
      Number of AO shells:             114
      Number of primitives:            322
      Number of atomic orbitals:       245
      Number of basis functions:       234

      Integral cutoff                 1.00e-12
      Number of threads:                 1

	Batch   1 pq = [       0,    9405] index = [             0,44231715] size =     44231715
	Batch   2 pq = [    9405,   13301] index = [      44231715,88464951] size =     44233236
	Batch   3 pq = [   13301,   16290] index = [      88464951,132690195] size =     44225244
	Batch   4 pq = [   16290,   18810] index = [     132690195,176917455] size =     44227260
	Batch   5 pq = [   18810,   21030] index = [     176917455,221140965] size =     44223510
	Batch   6 pq = [   21030,   23037] index = [     221140965,265363203] size =     44222238
	Batch   7 pq = [   23037,   24883] index = [     265363203,309594286] size =     44231083
	Batch   8 pq = [   24883,   26601] index = [     309594286,353819901] size =     44225615
	Batch   9 pq = [   26601,   27495] index = [     353819901,378001260] size =     24181359
  Task number: 35
  Buffer size: 11059200
  Buffer per thread: 2
  We computed 23717717 shell quartets total.
  Whereas there are 21487290 unique shell quartets.
    10.38 percent of shell quartets recomputed by reordering.

  ==> DiskJK: Disk-Based J/K Matrices <==

    J tasked:                  Yes
    K tasked:                  Yes
    wK tasked:                  No
    Memory [MiB]:              375
    Schwarz Cutoff:          1E-12

    OpenMP threads:              1

  Minimum eigenvalue in the overlap matrix is 3.2393948307E-04.
  Using Symmetric Orthogonalization.

  SCF Guess: Superposition of Atomic Densities via on-the-fly atomic UHF.

  ==> Iterations <==

                        Total Energy        Delta E     RMS |[F,P]|

   @RHF iter SAD:  -461.89400952436546   -4.61894e+02   0.00000e+00
   @RHF iter   1:  -462.57900847931325   -6.84999e-01   2.85927e-03 DIIS
   @RHF iter   2:  -462.82486290676684   -2.45854e-01   1.23441e-03 DIIS
   @RHF iter   3:  -462.86683370506222   -4.19708e-02   2.71919e-04 DIIS
   @RHF iter   4:  -462.87012175433631   -3.28805e-03   1.04858e-04 DIIS
   @RHF iter   5:  -462.87047285798099   -3.51104e-04   2.11993e-05 DIIS
   @RHF iter   6:  -462.87049361163662   -2.07537e-05   6.62793e-06 DIIS
   @RHF iter   7:  -462.87049580392210   -2.19229e-06   1.94179e-06 DIIS
   @RHF iter   8:  -462.87049607379811   -2.69876e-07   7.53457e-07 DIIS
   @RHF iter   9:  -462.87049611932753   -4.55294e-08   3.36763e-07 DIIS
   @RHF iter  10:  -462.87049612944782   -1.01203e-08   1.44770e-07 DIIS
   @RHF iter  11:  -462.87049613270835   -3.26054e-09   6.00429e-08 DIIS
   @RHF iter  12:  -462.87049613326514   -5.56781e-10   2.74841e-08 DIIS
   @RHF iter  13:  -462.87049613334324   -7.81029e-11   8.37095e-09 DIIS
   @RHF iter  14:  -462.87049613335165   -8.41283e-12   2.04048e-09 DIIS
   @RHF iter  15:  -462.87049613334784    3.80851e-12   6.78309e-10 DIIS
   @RHF iter  16:  -462.87049613334932   -1.47793e-12   1.95712e-10 DIIS
   @RHF iter  17:  -462.87049613335057   -1.25056e-12   7.07024e-11 DIIS
  Energy and wave function converged.

  ==> Post-Iterations <==

    Orbital Energies [Eh]
    ---------------------

    Doubly Occupied:

       1A    -20.586187     2A    -11.301561     3A    -11.241667
       4A    -11.239629     5A    -11.236165     6A    -11.234821
       7A    -11.233193     8A    -11.229189     9A    -11.205275
      10A    -11.203720    11A    -11.198938    12A     -1.400799
      13A     -1.153596    14A     -1.059026    15A     -1.038064
      16A     -1.020445    17A     -0.928059    18A     -0.907610
      19A     -0.846384    20A     -0.803938    21A     -0.788621
      22A     -0.732742    23A     -0.670021    24A     -0.643034
      25A     -0.629818    26A     -0.612640    27A     -0.608192
      28A     -0.588688    29A     -0.586844    30A     -0.575332
      31A     -0.564259    32A     -0.533650    33A     -0.524524
      34A     -0.508114    35A     -0.498392    36A     -0.486142
      37A     -0.480347    38A     -0.472974    39A     -0.451340
      40A     -0.444215    41A     -0.341478    42A     -0.305990

    Virtual:

      43A      0.126439    44A      0.152216    45A      0.171987
      46A      0.175465    47A      0.201882    48A      0.208433
      49A      0.216126    50A      0.237581    51A      0.244431
      52A      0.250142    53A      0.263691    54A      0.267530
      55A      0.274799    56A      0.291389    57A      0.303066
      58A      0.312555    59A      0.336250    60A      0.347237
      61A      0.368370    62A      0.374208    63A      0.385228
      64A      0.426746    65A      0.448090    66A      0.454376
      67A      0.483720    68A      0.496400    69A      0.507923
      70A      0.563325    71A      0.597401    72A      0.604280
      73A      0.609551    74A      0.616160    75A      0.648749
      76A      0.659065    77A      0.673690    78A      0.679836
      79A      0.699869    80A      0.705130    81A      0.730101
      82A      0.731677    83A      0.753106    84A      0.761770
      85A      0.764248    86A      0.772550    87A      0.787680
      88A      0.802472    89A      0.812799    90A      0.834200
      91A      0.838641    92A      0.846132    93A      0.862839
      94A      0.875644    95A      0.878038    96A      0.883059
      97A      0.891544    98A      0.895006    99A      0.899333
     100A      0.906043   101A      0.925975   102A      0.930421
     103A      0.932094   104A      0.940317   105A      0.944616
     106A      0.953133   107A      0.959361   108A      0.962851
     109A      0.984043   110A      0.992573   111A      1.013010
     112A      1.030245   113A      1.036501   114A      1.081488
     115A      1.114858   116A      1.128452   117A      1.140328
     118A      1.148672   119A      1.171227   120A      1.174395
     121A      1.198112   122A      1.240658   123A      1.249034
     124A      1.267255   125A      1.281544   126A      1.287323
     127A      1.308659   128A      1.313269   129A      1.349039
     130A      1.360835   131A      1.363560   132A      1.427334
     133A      1.443390   134A      1.487319   135A      1.498030
     136A      1.501719   137A      1.508432   138A      1.527493
     139A      1.553421   140A      1.607777   141A      1.620934
     142A      1.625451   143A      1.643773   144A      1.648915
     145A      1.681588   146A      1.698856   147A      1.726726
     148A      1.741009   149A      1.745416   150A      1.753102
     151A      1.793052   152A      1.806161   153A      1.819991
     154A      1.835431   155A      1.866320   156A      1.874415
     157A      1.883082   158A      1.886683   159A      1.893570
     160A      1.913777   161A      1.920683   162A      1.923516
     163A      1.938882   164A      1.945839   165A      1.952633
     166A      1.957307   167A      1.967628   168A      1.976492
     169A      1.984136   170A      1.999442   171A      2.008759
     172A      2.018312   173A      2.035200   174A      2.047149
     175A      2.049040   176A      2.052933   177A      2.078763
     178A      2.081583   179A      2.098408   180A      2.114789
     181A      2.126031   182A      2.151469   183A      2.165254
     184A      2.189138   185A      2.209581   186A      2.218918
     187A      2.241262   188A      2.255991   189A      2.270417
     190A      2.271989   191A      2.306683   192A      2.330303
     193A      2.347477   194A      2.350741   195A      2.381914
     196A      2.401477   197A      2.438571   198A      2.441788
     199A      2.472387   200A      2.487013   201A      2.510890
     202A      2.525707   203A      2.530494   204A      2.561543
     205A      2.567235   206A      2.605733   207A      2.633545
     208A      2.660612   209A      2.727411   210A      2.749607
     211A      2.775511   212A      2.785468   213A      2.795298
     214A      2.800456   215A      2.806496   216A      2.811355
     217A      2.850153   218A      2.861000   219A      2.877588
     220A      2.901674   221A      2.934245   222A      2.964021
     223A      2.996183   224A      3.012452   225A      3.082766
     226A      3.110183   227A      3.117263   228A      3.260064
     229A      3.278282   230A      3.341393   231A      3.576798
     232A      3.669055   233A      3.961714   234A      4.167536

    Final Occupation by Irrep:
              A
    DOCC [    42 ]

  @RHF Final Energy:  -462.87049613335057

   => Energetics <=

    Nuclear Repulsion Energy =            607.6296188764442832
    One-Electron Energy =               -1832.7689859782485655
    Two-Electron Energy =                 762.2688709684537116
    Total Energy =                       -462.8704961333505707

Computation Completed

Properties will be evaluated at   0.000000,   0.000000,   0.000000 [a0]

Properties computed using the SCF density matrix

  Nuclear Dipole Moment: [e a0]
     X:     9.9594      Y:    -6.1755      Z:     9.0476

  Electronic Dipole Moment: [e a0]
     X:   -10.2238      Y:     6.3999      Z:    -8.5387

  Dipole Moment: [e a0]
     X:    -0.2644      Y:     0.2243      Z:     0.5089     Total:     0.6158

  Dipole Moment: [D]
     X:    -0.6720      Y:     0.5702      Z:     1.2935     Total:     1.5652

*** tstop() called on ds3 at Mon Apr 27 01:43:32 2020
Module time:
	user time   =     162.93 seconds =       2.72 minutes
	system time =      54.35 seconds =       0.91 minutes
	total time  =        210 seconds =       3.50 minutes
Total time:
	user time   =     162.93 seconds =       2.72 minutes
	system time =      54.35 seconds =       0.91 minutes
	total time  =        210 seconds =       3.50 minutes
                                     G D M A

                                 by Anthony Stone

                           version 2.2.06, 22 June 2011

               Distributed Multipoles from Gaussian wavefunctions

Starting at 1:43:32 on 27 Apr 2020

Using SCF density matrix from file ./SSI/SSI-159PRO-178TYR-1-dimer.test.12827.fchk

                         Distributed Multipole Analysis

Standard DMA

Positions and radii in angstrom
Multipole moments in atomic units, ea_0^k for rank k

C          x =  1.939455  y = -0.242604  z =  1.353824 angstrom
           Maximum rank =  0   Radius =  0.650 angstrom
                   Q00  =  -0.098888

C          x =  2.472455  y = -1.572604  z =  0.894824 angstrom
           Maximum rank =  0   Radius =  0.650 angstrom
                   Q00  =  -0.200296

C          x =  3.060455  y =  0.744396  z =  1.071824 angstrom
           Maximum rank =  0   Radius =  0.650 angstrom
                   Q00  =  -0.235665

H          x =  1.676455  y = -0.266604  z =  2.406824 angstrom
           Maximum rank =  0   Radius =  0.325 angstrom
                   Q00  =   0.041491

H          x =  1.082455  y =  0.037396  z =  0.753824 angstrom
           Maximum rank =  0   Radius =  0.325 angstrom
                   Q00  =   0.065202

H          x =  3.090455  y = -1.988604  z =  1.683824 angstrom
           Maximum rank =  0   Radius =  0.325 angstrom
                   Q00  =   0.070621

H          x =  1.667455  y = -2.258604  z =  0.628824 angstrom
           Maximum rank =  0   Radius =  0.325 angstrom
                   Q00  =   0.075840

H          x =  2.645455  y =  1.697396  z =  0.744824 angstrom
           Maximum rank =  0   Radius =  0.325 angstrom
                   Q00  =   0.081326

H          x =  3.105565  y = -1.329434  z =  0.028774 angstrom
           Maximum rank =  0   Radius =  0.325 angstrom
                   Q00  =   0.048980

H          x =  3.637315  y =  0.265196  z =  0.267094 angstrom
           Maximum rank =  0   Radius =  0.325 angstrom
                   Q00  =   0.061790

H          x =  3.660395  y =  0.890226  z =  1.982208 angstrom
           Maximum rank =  0   Radius =  0.325 angstrom
                   Q00  =   0.077880

C          x = -1.767545  y = -2.095604  z =  1.307824 angstrom
           Maximum rank =  0   Radius =  0.650 angstrom
                   Q00  =  -0.204984

C          x = -1.614545  y =  0.375396  z =  0.781824 angstrom
           Maximum rank =  0   Radius =  0.650 angstrom
                   Q00  =   0.040493

C          x = -1.400545  y = -0.943604  z =  0.392824 angstrom
           Maximum rank =  0   Radius =  0.650 angstrom
                   Q00  =  -0.135438

C          x = -1.247545  y =  1.435396  z = -0.038176 angstrom
           Maximum rank =  0   Radius =  0.650 angstrom
                   Q00  =  -0.181260

C          x = -0.665545  y =  1.187396  z = -1.275176 angstrom
           Maximum rank =  0   Radius =  0.650 angstrom
                   Q00  =   0.309461

C          x = -0.807545  y = -1.183604  z = -0.849176 angstrom
           Maximum rank =  0   Radius =  0.650 angstrom
                   Q00  =  -0.013489

C          x = -0.443545  y = -0.124604  z = -1.683176 angstrom
           Maximum rank =  0   Radius =  0.650 angstrom
                   Q00  =  -0.127868

O          x = -0.313545  y =  2.231396  z = -2.077176 angstrom
           Maximum rank =  0   Radius =  0.650 angstrom
                   Q00  =  -0.671623

H          x = -2.132545  y =  0.598396  z =  1.698824 angstrom
           Maximum rank =  0   Radius =  0.325 angstrom
                   Q00  =   0.068900

H          x = -1.422545  y =  2.452396  z =  0.282824 angstrom
           Maximum rank =  0   Radius =  0.325 angstrom
                   Q00  =   0.071145

H          x = -1.319545  y = -1.963604  z =  2.285824 angstrom
           Maximum rank =  0   Radius =  0.325 angstrom
                   Q00  =   0.101804

H          x = -1.267545  y = -2.977604  z =  0.901824 angstrom
           Maximum rank =  0   Radius =  0.325 angstrom
                   Q00  =   0.091813

H          x = -0.628545  y = -2.200604  z = -1.175176 angstrom
           Maximum rank =  0   Radius =  0.325 angstrom
                   Q00  =   0.067570

H          x = -0.338545  y =  3.066396  z = -1.579176 angstrom
           Maximum rank =  0   Radius =  0.325 angstrom
                   Q00  =   0.409367

H          x =  0.012455  y = -0.313604  z = -2.644176 angstrom
           Maximum rank =  0   Radius =  0.325 angstrom
                   Q00  =   0.082562

H          x = -2.843415  y = -2.307614  z =  1.394784 angstrom
           Maximum rank =  0   Radius =  0.325 angstrom
                   Q00  =   0.103265

Total multipoles referred to origin at
           x =   0.000000,  y =    0.000000,  z =    0.000000 angstrom
                   Q00  =  -0.000000

Finished at 1:43:32 on 27 Apr 2020

  DMA results are available in the Python driver through the
	  variable('DMA DISTRIBUTED MULTIPOLES')
  and
	  variable('DMA TOTAL MULTIPOLES')
  commands.

    Psi4 stopped on: Monday, 27 April 2020 01:43AM
    Psi4 wall time for execution: 0:03:30.60

*** Psi4 exiting successfully. Buy a developer a beer!
