                               Psi4 1.3.2 release

  ==> Input File <==

--------------------------------------------------------------------------
import numpy as np
set {scf_type pk
basis cc-pvdz
d_convergence 10
gdma_switch   0
gdma_limit    0
gdma_origin   [ 0.0,  0.0,  0.0 ]
}
molecule test {
    units Angstrom
    1 1
    --
    1 1
    C               -0.646192469189003    -2.695996995816118     0.814902636795152
    C               -1.377192469189003    -3.810996995816117     1.557902636795153
    O                0.370807530810997    -2.124996995816117     1.619902636795152
    H               -0.212192469189003    -3.087996995816118    -0.105097363204848
    H               -1.368192469189003    -1.922996995816117     0.560902636795152
    H               -1.699192469189003    -3.402996995816117     2.517902636795152
    H                1.015807530810997    -2.811996995816117     1.840902636795152
    H               -0.714182469189003    -4.675166995816117     1.711602636795152
    H               -2.270422469189003    -4.124426995816117     0.997642636795152
    C                0.288807530810997     3.184003004183883    -2.234097363204848
    C                0.337807530810997     1.422003004183882    -0.514097363204848
    N               -0.347192469189003     0.485003004183883     0.140902636795152
    N               -0.276192469189003     2.053003004183882    -1.507097363204848
    N                1.565807530810997     1.794003004183883    -0.110097363204848
    H               -1.282192469189003     0.222003004183883    -0.192097363204848
    H                0.073807530810997    -0.043996995816117     0.894902636795152
    H               -1.216192469189003     1.734003004183883    -1.769097363204848
    H                2.071807530810998     2.524003004183883    -0.583097363204848
    H                2.012807530810997     1.327003004183883     0.667902636795152
    H                0.896807530810997     2.832003004183882    -3.070097363204848
    H                0.894807530810997     3.818003004183883    -1.583097363204848
    H               -0.551512469189003     3.782093004183883    -2.616387363204847

}
e, wfn = energy('scf', return_wfn=True)
gdma(wfn)
dmavals = variable('DMA DISTRIBUTED MULTIPOLES')
charges = np.array(dmavals)
print(charges)
np.save('SSI-192SER-269ARG-1-dimer.npy', np.array(charges))--------------------------------------------------------------------------

*** tstart() called on ds3
*** at Mon Apr 27 00:10:22 2020

   => Loading Basis Set <=

    Name: CC-PVDZ
    Role: ORBITAL
    Keyword: BASIS
    atoms 1-2, 10-11 entry C          line   138 file /theoryfs2/ds/metcalf/miniconda2/envs/tf2gpu/share/psi4/basis/cc-pvdz.gbs
    atoms 3          entry O          line   198 file /theoryfs2/ds/metcalf/miniconda2/envs/tf2gpu/share/psi4/basis/cc-pvdz.gbs
    atoms 4-9, 15-22 entry H          line    22 file /theoryfs2/ds/metcalf/miniconda2/envs/tf2gpu/share/psi4/basis/cc-pvdz.gbs
    atoms 12-14      entry N          line   168 file /theoryfs2/ds/metcalf/miniconda2/envs/tf2gpu/share/psi4/basis/cc-pvdz.gbs

         ---------------------------------------------------------
                                   SCF
               by Justin Turney, Rob Parrish, Andy Simmonett
                          and Daniel G. A. Smith
                              RHF Reference
                        1 Threads,    500 MiB Core
         ---------------------------------------------------------

  ==> Geometry <==

    Molecular point group: c1
    Full point group: C1

    Geometry (in Angstrom), charge = 1, multiplicity = 1:

       Center              X                  Y                   Z               Mass
    ------------   -----------------  -----------------  -----------------  -----------------
         C           -0.646192469189    -2.695996995816     0.814902636795    12.000000000000
         C           -1.377192469189    -3.810996995816     1.557902636795    12.000000000000
         O            0.370807530811    -2.124996995816     1.619902636795    15.994914619570
         H           -0.212192469189    -3.087996995816    -0.105097363205     1.007825032230
         H           -1.368192469189    -1.922996995816     0.560902636795     1.007825032230
         H           -1.699192469189    -3.402996995816     2.517902636795     1.007825032230
         H            1.015807530811    -2.811996995816     1.840902636795     1.007825032230
         H           -0.714182469189    -4.675166995816     1.711602636795     1.007825032230
         H           -2.270422469189    -4.124426995816     0.997642636795     1.007825032230
         C            0.288807530811     3.184003004184    -2.234097363205    12.000000000000
         C            0.337807530811     1.422003004184    -0.514097363205    12.000000000000
         N           -0.347192469189     0.485003004184     0.140902636795    14.003074004430
         N           -0.276192469189     2.053003004184    -1.507097363205    14.003074004430
         N            1.565807530811     1.794003004184    -0.110097363205    14.003074004430
         H           -1.282192469189     0.222003004184    -0.192097363205     1.007825032230
         H            0.073807530811    -0.043996995816     0.894902636795     1.007825032230
         H           -1.216192469189     1.734003004184    -1.769097363205     1.007825032230
         H            2.071807530811     2.524003004184    -0.583097363205     1.007825032230
         H            2.012807530811     1.327003004184     0.667902636795     1.007825032230
         H            0.896807530811     2.832003004184    -3.070097363205     1.007825032230
         H            0.894807530811     3.818003004184    -1.583097363205     1.007825032230
         H           -0.551512469189     3.782093004184    -2.616387363205     1.007825032230

  Running in c1 symmetry.

  Rotational constants: A =      0.16585  B =      0.01822  C =      0.01683 [cm^-1]
  Rotational constants: A =   4972.10216  B =    546.11219  C =    504.55395 [MHz]
  Nuclear repulsion =  387.282384050886265

  Charge       = 1
  Multiplicity = 1
  Electrons    = 66
  Nalpha       = 33
  Nbeta        = 33

  ==> Algorithm <==

  SCF Algorithm Type is PK.
  DIIS enabled.
  MOM disabled.
  Fractional occupation disabled.
  Guess Type is SAD.
  Energy threshold   = 1.00e-06
  Density threshold  = 1.00e-10
  Integral threshold = 0.00e+00

  ==> Primary Basis <==

  Basis Set: CC-PVDZ
    Blend: CC-PVDZ
    Number of shells: 90
    Number of basis function: 182
    Number of Cartesian functions: 190
    Spherical Harmonics?: true
    Max angular momentum: 2

  ==> Pre-Iterations <==

   -------------------------------------------------------
    Irrep   Nso     Nmo     Nalpha   Nbeta   Ndocc  Nsocc
   -------------------------------------------------------
     A        182     182       0       0       0       0
   -------------------------------------------------------
    Total     182     182      33      33      33       0
   -------------------------------------------------------

  ==> Integral Setup <==

  Using integral reordering PK algorithm.
  Sizing the integral batches needed.
  Building batch lookup table.
   Calculation information:
      Number of atoms:                  22
      Number of AO shells:              90
      Number of primitives:            246
      Number of atomic orbitals:       190
      Number of basis functions:       182

      Integral cutoff                 1.00e-12
      Number of threads:                 1

	Batch   1 pq = [       0,    9405] index = [             0,44231715] size =     44231715
	Batch   2 pq = [    9405,   13301] index = [      44231715,88464951] size =     44233236
	Batch   3 pq = [   13301,   16290] index = [      88464951,132690195] size =     44225244
	Batch   4 pq = [   16290,   16653] index = [     132690195,138669531] size =      5979336
  Task number: 13
  Buffer size: 11059200
  Buffer per thread: 2
  We computed 6028794 shell quartets total.
  Whereas there are 8386560 unique shell quartets.

  ==> DiskJK: Disk-Based J/K Matrices <==

    J tasked:                  Yes
    K tasked:                  Yes
    wK tasked:                  No
    Memory [MiB]:              375
    Schwarz Cutoff:          1E-12

    OpenMP threads:              1

  Minimum eigenvalue in the overlap matrix is 4.0412684005E-03.
  Using Symmetric Orthogonalization.

  SCF Guess: Superposition of Atomic Densities via on-the-fly atomic UHF.

  ==> Iterations <==

                        Total Energy        Delta E     RMS |[F,P]|

   @RHF iter SAD:  -396.78513570928521   -3.96785e+02   0.00000e+00
   @RHF iter   1:  -397.47054985103881   -6.85414e-01   3.37232e-03 DIIS
   @RHF iter   2:  -397.65309779504940   -1.82548e-01   1.42240e-03 DIIS
   @RHF iter   3:  -397.68201546231160   -2.89177e-02   3.42582e-04 DIIS
   @RHF iter   4:  -397.68475392152476   -2.73846e-03   8.72503e-05 DIIS
   @RHF iter   5:  -397.68490297736702   -1.49056e-04   2.35051e-05 DIIS
   @RHF iter   6:  -397.68491878825483   -1.58109e-05   6.38810e-06 DIIS
   @RHF iter   7:  -397.68492004196122   -1.25371e-06   1.86220e-06 DIIS
   @RHF iter   8:  -397.68492016827599   -1.26315e-07   5.86055e-07 DIIS
   @RHF iter   9:  -397.68492017862070   -1.03447e-08   9.76022e-08 DIIS
   @RHF iter  10:  -397.68492017899251   -3.71813e-10   3.32140e-08 DIIS
   @RHF iter  11:  -397.68492017902696   -3.44471e-11   9.71193e-09 DIIS
   @RHF iter  12:  -397.68492017903196   -5.00222e-12   3.50995e-09 DIIS
   @RHF iter  13:  -397.68492017903156    3.97904e-13   1.33007e-09 DIIS
   @RHF iter  14:  -397.68492017903043    1.13687e-12   3.39522e-10 DIIS
   @RHF iter  15:  -397.68492017903236   -1.93268e-12   8.60639e-11 DIIS
  Energy and wave function converged.

  ==> Post-Iterations <==

    Orbital Energies [Eh]
    ---------------------

    Doubly Occupied:

       1A    -20.678341     2A    -15.780835     3A    -15.780778
       4A    -15.771817     5A    -11.583773     6A    -11.435770
       7A    -11.393551     8A    -11.322901     9A     -1.526347
      10A     -1.480182    11A     -1.388112    12A     -1.373458
      13A     -1.133820    14A     -1.117406    15A     -1.026194
      16A     -0.962215    17A     -0.954346    18A     -0.922684
      19A     -0.847371    20A     -0.842041    21A     -0.813932
      22A     -0.804428    23A     -0.782505    24A     -0.740680
      25A     -0.732862    26A     -0.719169    27A     -0.717468
      28A     -0.648213    29A     -0.626059    30A     -0.604629
      31A     -0.594429    32A     -0.574298    33A     -0.554479

    Virtual:

      34A     -0.000776    35A      0.028839    36A      0.030680
      37A      0.051019    38A      0.058904    39A      0.079404
      40A      0.111349    41A      0.117210    42A      0.128733
      43A      0.136122    44A      0.141790    45A      0.154352
      46A      0.171704    47A      0.181786    48A      0.193462
      49A      0.220159    50A      0.267978    51A      0.281585
      52A      0.299369    53A      0.332508    54A      0.350345
      55A      0.446970    56A      0.467017    57A      0.491932
      58A      0.503765    59A      0.518225    60A      0.533315
      61A      0.537288    62A      0.546138    63A      0.559686
      64A      0.565401    65A      0.611636    66A      0.630898
      67A      0.664262    68A      0.681652    69A      0.693455
      70A      0.698460    71A      0.708889    72A      0.716741
      73A      0.736434    74A      0.749190    75A      0.765022
      76A      0.783379    77A      0.786471    78A      0.797361
      79A      0.800956    80A      0.809066    81A      0.822835
      82A      0.850192    83A      0.853061    84A      0.881605
      85A      0.921237    86A      0.936345    87A      0.946098
      88A      0.997069    89A      1.029193    90A      1.044272
      91A      1.065262    92A      1.077599    93A      1.127034
      94A      1.139132    95A      1.160940    96A      1.178959
      97A      1.191006    98A      1.209489    99A      1.219511
     100A      1.251601   101A      1.269733   102A      1.310501
     103A      1.371526   104A      1.407381   105A      1.413659
     106A      1.470185   107A      1.484035   108A      1.501051
     109A      1.526124   110A      1.538939   111A      1.557104
     112A      1.565150   113A      1.580333   114A      1.629108
     115A      1.648533   116A      1.667086   117A      1.701607
     118A      1.723741   119A      1.737518   120A      1.747702
     121A      1.755798   122A      1.764681   123A      1.767997
     124A      1.788006   125A      1.795550   126A      1.811844
     127A      1.821554   128A      1.831038   129A      1.850973
     130A      1.862133   131A      1.867872   132A      1.881530
     133A      1.926315   134A      1.936436   135A      1.996640
     136A      1.997988   137A      2.017547   138A      2.027298
     139A      2.070014   140A      2.121670   141A      2.133082
     142A      2.137623   143A      2.166427   144A      2.197456
     145A      2.221333   146A      2.224310   147A      2.282293
     148A      2.308669   149A      2.315957   150A      2.331741
     151A      2.341313   152A      2.373298   153A      2.387644
     154A      2.425253   155A      2.435136   156A      2.458216
     157A      2.474231   158A      2.531537   159A      2.580460
     160A      2.603716   161A      2.617592   162A      2.652955
     163A      2.660989   164A      2.711208   165A      2.713738
     166A      2.739769   167A      2.767362   168A      2.772914
     169A      2.811241   170A      2.827241   171A      2.841119
     172A      2.902618   173A      3.060067   174A      3.086738
     175A      3.098876   176A      3.185674   177A      3.274207
     178A      3.346937   179A      3.515227   180A      3.563055
     181A      3.605385   182A      3.999375

    Final Occupation by Irrep:
              A
    DOCC [    33 ]

  @RHF Final Energy:  -397.68492017903236

   => Energetics <=

    Nuclear Repulsion Energy =            387.2823840508862645
    One-Electron Energy =               -1297.4644203658529023
    Two-Electron Energy =                 512.4971161359342204
    Total Energy =                       -397.6849201790323605

Computation Completed

Properties will be evaluated at   0.000000,   0.000000,   0.000000 [a0]

Properties computed using the SCF density matrix

  Nuclear Dipole Moment: [e a0]
     X:    -2.2024      Y:    -3.6137      Z:    -0.6697

  Electronic Dipole Moment: [e a0]
     X:     2.7089      Y:     5.4318      Z:    -0.5458

  Dipole Moment: [e a0]
     X:     0.5065      Y:     1.8181      Z:    -1.2154     Total:     2.2449

  Dipole Moment: [D]
     X:     1.2875      Y:     4.6212      Z:    -3.0893     Total:     5.7058

*** tstop() called on ds3 at Mon Apr 27 00:12:02 2020
Module time:
	user time   =      38.62 seconds =       0.64 minutes
	system time =      17.30 seconds =       0.29 minutes
	total time  =        100 seconds =       1.67 minutes
Total time:
	user time   =      38.62 seconds =       0.64 minutes
	system time =      17.30 seconds =       0.29 minutes
	total time  =        100 seconds =       1.67 minutes
                                     G D M A

                                 by Anthony Stone

                           version 2.2.06, 22 June 2011

               Distributed Multipoles from Gaussian wavefunctions

Starting at 0:12:2 on 27 Apr 2020

Using SCF density matrix from file ./SSI/SSI-192SER-269ARG-1-dimer.test.7762.fchk

                         Distributed Multipole Analysis

Standard DMA

Positions and radii in angstrom
Multipole moments in atomic units, ea_0^k for rank k

C          x = -0.646192  y = -2.695997  z =  0.814903 angstrom
           Maximum rank =  0   Radius =  0.650 angstrom
                   Q00  =   0.048130

C          x = -1.377192  y = -3.810997  z =  1.557903 angstrom
           Maximum rank =  0   Radius =  0.650 angstrom
                   Q00  =  -0.240552

O          x =  0.370808  y = -2.124997  z =  1.619903 angstrom
           Maximum rank =  0   Radius =  0.650 angstrom
                   Q00  =  -0.619217

H          x = -0.212192  y = -3.087997  z = -0.105097 angstrom
           Maximum rank =  0   Radius =  0.325 angstrom
                   Q00  =   0.056308

H          x = -1.368192  y = -1.922997  z =  0.560903 angstrom
           Maximum rank =  0   Radius =  0.325 angstrom
                   Q00  =   0.049235

H          x = -1.699192  y = -3.402997  z =  2.517903 angstrom
           Maximum rank =  0   Radius =  0.325 angstrom
                   Q00  =   0.097609

H          x =  1.015808  y = -2.811997  z =  1.840903 angstrom
           Maximum rank =  0   Radius =  0.325 angstrom
                   Q00  =   0.416623

H          x = -0.714182  y = -4.675167  z =  1.711603 angstrom
           Maximum rank =  0   Radius =  0.325 angstrom
                   Q00  =   0.095162

H          x = -2.270422  y = -4.124427  z =  0.997643 angstrom
           Maximum rank =  0   Radius =  0.325 angstrom
                   Q00  =   0.102034

C          x =  0.288808  y =  3.184003  z = -2.234097 angstrom
           Maximum rank =  0   Radius =  0.650 angstrom
                   Q00  =  -0.129353

C          x =  0.337808  y =  1.422003  z = -0.514097 angstrom
           Maximum rank =  0   Radius =  0.650 angstrom
                   Q00  =   1.075061

N          x = -0.347192  y =  0.485003  z =  0.140903 angstrom
           Maximum rank =  0   Radius =  0.650 angstrom
                   Q00  =  -0.590079

N          x = -0.276192  y =  2.053003  z = -1.507097 angstrom
           Maximum rank =  0   Radius =  0.650 angstrom
                   Q00  =  -0.490453

N          x =  1.565808  y =  1.794003  z = -0.110097 angstrom
           Maximum rank =  0   Radius =  0.650 angstrom
                   Q00  =  -0.591442

H          x = -1.282192  y =  0.222003  z = -0.192097 angstrom
           Maximum rank =  0   Radius =  0.325 angstrom
                   Q00  =   0.262473

H          x =  0.073808  y = -0.043997  z =  0.894903 angstrom
           Maximum rank =  0   Radius =  0.325 angstrom
                   Q00  =   0.282431

H          x = -1.216192  y =  1.734003  z = -1.769097 angstrom
           Maximum rank =  0   Radius =  0.325 angstrom
                   Q00  =   0.239592

H          x =  2.071808  y =  2.524003  z = -0.583097 angstrom
           Maximum rank =  0   Radius =  0.325 angstrom
                   Q00  =   0.268650

H          x =  2.012808  y =  1.327003  z =  0.667903 angstrom
           Maximum rank =  0   Radius =  0.325 angstrom
                   Q00  =   0.271403

H          x =  0.896808  y =  2.832003  z = -3.070097 angstrom
           Maximum rank =  0   Radius =  0.325 angstrom
                   Q00  =   0.124706

H          x =  0.894808  y =  3.818003  z = -1.583097 angstrom
           Maximum rank =  0   Radius =  0.325 angstrom
                   Q00  =   0.112513

H          x = -0.551512  y =  3.782093  z = -2.616387 angstrom
           Maximum rank =  0   Radius =  0.325 angstrom
                   Q00  =   0.159168

Total multipoles referred to origin at
           x =   0.000000,  y =    0.000000,  z =    0.000000 angstrom
                   Q00  =   1.000000

Finished at 0:12:2 on 27 Apr 2020

  DMA results are available in the Python driver through the
	  variable('DMA DISTRIBUTED MULTIPOLES')
  and
	  variable('DMA TOTAL MULTIPOLES')
  commands.

    Psi4 stopped on: Monday, 27 April 2020 12:12AM
    Psi4 wall time for execution: 0:01:39.84

*** Psi4 exiting successfully. Buy a developer a beer!
