                               Psi4 1.3.2 release

  ==> Input File <==

--------------------------------------------------------------------------
import numpy as np
set {scf_type pk
basis cc-pvdz
d_convergence 10
gdma_switch   0
gdma_limit    0
gdma_origin   [ 0.0,  0.0,  0.0 ]
}
molecule test {
    units Angstrom
    0 1
    --
    0 1
    C               -0.726397905601148    -1.854677098065539     1.800357878507524
    C               -1.730397905601148    -2.871677098065539     1.214357878507524
    C               -0.854397905601148    -1.486677098065539     3.286357878507524
    H                0.272602094398852    -2.238677098065539     1.674357878507524
    H               -0.811397905601148    -0.939677098065539     1.213357878507524
    H               -2.747397905601148    -2.490677098065539     1.325357878507524
    H               -1.645397905601148    -3.815677098065539     1.753357878507524
    H               -1.897397905601148    -1.219677098065539     3.488357878507524
    H               -0.611397905601148    -2.366677098065539     3.890357878507524
    H               -1.517195605601148    -3.035040098065539     0.147657878507524
    H               -0.199923705601148    -0.645724098065539     3.559237878507524
    C                2.828602094398852     1.508322901934461    -0.144642121492476
    C               -1.068397905601148     1.239322901934461    -0.477642121492476
    C                0.228602094398852     1.542322901934461     0.055357878507524
    C               -1.184397905601148     0.607322901934461    -1.718642121492476
    C                1.406602094398852     1.191322901934461    -0.637642121492476
    C               -0.026397905601148     0.251322901934461    -2.373642121492476
    C                1.245602094398852     0.552322901934461    -1.852642121492476
    H               -1.959397905601148     1.514322901934461     0.071357878507524
    H                0.259602094398852     2.020322901934462     1.017357878507524
    H               -2.154397905601148     0.379322901934461    -2.139642121492476
    H               -0.107397905601148    -0.245677098065539    -3.328642121492476
    H                3.293602094398852     2.176322901934461    -0.871642121492476
    H                3.397602094398852     0.578322901934461    -0.135642121492476
    H                2.124602094398852     0.274322901934461    -2.416642121492476
    H                2.886130094398852     1.967102901934461     0.853457878507524

}
e, wfn = energy('scf', return_wfn=True)
gdma(wfn)
dmavals = variable('DMA DISTRIBUTED MULTIPOLES')
charges = np.array(dmavals)
print(charges)
np.save('SSI-133LYS-198PHE-1-dimer.npy', np.array(charges))--------------------------------------------------------------------------

*** tstart() called on ds3
*** at Tue Apr 28 20:02:14 2020

   => Loading Basis Set <=

    Name: CC-PVDZ
    Role: ORBITAL
    Keyword: BASIS
    atoms 1-3, 12-18  entry C          line   138 file /theoryfs2/ds/metcalf/miniconda2/envs/tf2gpu/share/psi4/basis/cc-pvdz.gbs
    atoms 4-11, 19-26 entry H          line    22 file /theoryfs2/ds/metcalf/miniconda2/envs/tf2gpu/share/psi4/basis/cc-pvdz.gbs

         ---------------------------------------------------------
                                   SCF
               by Justin Turney, Rob Parrish, Andy Simmonett
                          and Daniel G. A. Smith
                              RHF Reference
                        1 Threads,    500 MiB Core
         ---------------------------------------------------------

  ==> Geometry <==

    Molecular point group: c1
    Full point group: C1

    Geometry (in Angstrom), charge = 0, multiplicity = 1:

       Center              X                  Y                   Z               Mass
    ------------   -----------------  -----------------  -----------------  -----------------
         C           -0.726397905601    -1.854677098066     1.800357878508    12.000000000000
         C           -1.730397905601    -2.871677098066     1.214357878508    12.000000000000
         C           -0.854397905601    -1.486677098066     3.286357878508    12.000000000000
         H            0.272602094399    -2.238677098066     1.674357878508     1.007825032230
         H           -0.811397905601    -0.939677098066     1.213357878508     1.007825032230
         H           -2.747397905601    -2.490677098066     1.325357878508     1.007825032230
         H           -1.645397905601    -3.815677098066     1.753357878508     1.007825032230
         H           -1.897397905601    -1.219677098066     3.488357878508     1.007825032230
         H           -0.611397905601    -2.366677098066     3.890357878508     1.007825032230
         H           -1.517195605601    -3.035040098066     0.147657878508     1.007825032230
         H           -0.199923705601    -0.645724098066     3.559237878508     1.007825032230
         C            2.828602094399     1.508322901934    -0.144642121492    12.000000000000
         C           -1.068397905601     1.239322901934    -0.477642121492    12.000000000000
         C            0.228602094399     1.542322901934     0.055357878508    12.000000000000
         C           -1.184397905601     0.607322901934    -1.718642121492    12.000000000000
         C            1.406602094399     1.191322901934    -0.637642121492    12.000000000000
         C           -0.026397905601     0.251322901934    -2.373642121492    12.000000000000
         C            1.245602094399     0.552322901934    -1.852642121492    12.000000000000
         H           -1.959397905601     1.514322901934     0.071357878508     1.007825032230
         H            0.259602094399     2.020322901934     1.017357878508     1.007825032230
         H           -2.154397905601     0.379322901934    -2.139642121492     1.007825032230
         H           -0.107397905601    -0.245677098066    -3.328642121492     1.007825032230
         H            3.293602094399     2.176322901934    -0.871642121492     1.007825032230
         H            3.397602094399     0.578322901934    -0.135642121492     1.007825032230
         H            2.124602094399     0.274322901934    -2.416642121492     1.007825032230
         H            2.886130094399     1.967102901934     0.853457878508     1.007825032230

  Running in c1 symmetry.

  Rotational constants: A =      0.05130  B =      0.02148  C =      0.01817 [cm^-1]
  Rotational constants: A =   1537.92131  B =    643.95939  C =    544.78558 [MHz]
  Nuclear repulsion =  486.553641082707429

  Charge       = 0
  Multiplicity = 1
  Electrons    = 76
  Nalpha       = 38
  Nbeta        = 38

  ==> Algorithm <==

  SCF Algorithm Type is PK.
  DIIS enabled.
  MOM disabled.
  Fractional occupation disabled.
  Guess Type is SAD.
  Energy threshold   = 1.00e-06
  Density threshold  = 1.00e-10
  Integral threshold = 0.00e+00

  ==> Primary Basis <==

  Basis Set: CC-PVDZ
    Blend: CC-PVDZ
    Number of shells: 108
    Number of basis function: 220
    Number of Cartesian functions: 230
    Spherical Harmonics?: true
    Max angular momentum: 2

  ==> Pre-Iterations <==

   -------------------------------------------------------
    Irrep   Nso     Nmo     Nalpha   Nbeta   Ndocc  Nsocc
   -------------------------------------------------------
     A        220     220       0       0       0       0
   -------------------------------------------------------
    Total     220     220      38      38      38       0
   -------------------------------------------------------

  ==> Integral Setup <==

  Using integral reordering PK algorithm.
  Sizing the integral batches needed.
  Building batch lookup table.
   Calculation information:
      Number of atoms:                  26
      Number of AO shells:             108
      Number of primitives:            300
      Number of atomic orbitals:       230
      Number of basis functions:       220

      Integral cutoff                 1.00e-12
      Number of threads:                 1

	Batch   1 pq = [       0,    9405] index = [             0,44231715] size =     44231715
	Batch   2 pq = [    9405,   13301] index = [      44231715,88464951] size =     44233236
	Batch   3 pq = [   13301,   16290] index = [      88464951,132690195] size =     44225244
	Batch   4 pq = [   16290,   18810] index = [     132690195,176917455] size =     44227260
	Batch   5 pq = [   18810,   21030] index = [     176917455,221140965] size =     44223510
	Batch   6 pq = [   21030,   23037] index = [     221140965,265363203] size =     44222238
	Batch   7 pq = [   23037,   24310] index = [     265363203,295500205] size =     30137002
  Task number: 27
  Buffer size: 11059200
  Buffer per thread: 2
  We computed 15771738 shell quartets total.
  Whereas there are 17325441 unique shell quartets.

  ==> DiskJK: Disk-Based J/K Matrices <==

    J tasked:                  Yes
    K tasked:                  Yes
    wK tasked:                  No
    Memory [MiB]:              375
    Schwarz Cutoff:          1E-12

    OpenMP threads:              1

  Minimum eigenvalue in the overlap matrix is 3.2491436659E-04.
  Using Symmetric Orthogonalization.

  SCF Guess: Superposition of Atomic Densities via on-the-fly atomic UHF.

  ==> Iterations <==

                        Total Energy        Delta E     RMS |[F,P]|

   @RHF iter SAD:  -386.67595548137143   -3.86676e+02   0.00000e+00
   @RHF iter   1:  -387.77467644265624   -1.09872e+00   2.69951e-03 DIIS
   @RHF iter   2:  -387.98802705445576   -2.13351e-01   1.11642e-03 DIIS
   @RHF iter   3:  -388.02103374169667   -3.30067e-02   2.44275e-04 DIIS
   @RHF iter   4:  -388.02382723659866   -2.79349e-03   4.79548e-05 DIIS
   @RHF iter   5:  -388.02390561924864   -7.83826e-05   1.47009e-05 DIIS
   @RHF iter   6:  -388.02391289428738   -7.27504e-06   4.31768e-06 DIIS
   @RHF iter   7:  -388.02391354350453   -6.49217e-07   1.17226e-06 DIIS
   @RHF iter   8:  -388.02391360320814   -5.97036e-08   2.77313e-07 DIIS
   @RHF iter   9:  -388.02391361025241   -7.04426e-09   1.25774e-07 DIIS
   @RHF iter  10:  -388.02391361164865   -1.39624e-09   6.14452e-08 DIIS
   @RHF iter  11:  -388.02391361214700   -4.98346e-10   2.61287e-08 DIIS
   @RHF iter  12:  -388.02391361226091   -1.13914e-10   1.05977e-08 DIIS
   @RHF iter  13:  -388.02391361227444   -1.35287e-11   3.85924e-09 DIIS
   @RHF iter  14:  -388.02391361227592   -1.47793e-12   8.91408e-10 DIIS
   @RHF iter  15:  -388.02391361227376    2.16005e-12   3.08073e-10 DIIS
   @RHF iter  16:  -388.02391361227632   -2.55795e-12   1.52177e-10 DIIS
   @RHF iter  17:  -388.02391361227330    3.01270e-12   6.41442e-11 DIIS
  Energy and wave function converged.

  ==> Post-Iterations <==

    Orbital Energies [Eh]
    ---------------------

    Doubly Occupied:

       1A    -11.247354     2A    -11.241489     3A    -11.238079
       4A    -11.236060     5A    -11.235896     6A    -11.232520
       7A    -11.231513     8A    -11.213100     9A    -11.212432
      10A    -11.208189    11A     -1.147758    12A     -1.044033
      13A     -1.040395    14A     -1.002058    15A     -0.934253
      16A     -0.919925    17A     -0.825641    18A     -0.793944
      19A     -0.787771    20A     -0.690636    21A     -0.631478
      22A     -0.626851    23A     -0.617072    24A     -0.585805
      25A     -0.575887    26A     -0.573762    27A     -0.567507
      28A     -0.542602    29A     -0.540600    30A     -0.527967
      31A     -0.487366    32A     -0.485304    33A     -0.480472
      34A     -0.471328    35A     -0.458424    36A     -0.451153
      37A     -0.327539    38A     -0.324211

    Virtual:

      39A      0.129784    40A      0.141875    41A      0.171429
      42A      0.193700    43A      0.200815    44A      0.214076
      45A      0.231858    46A      0.239737    47A      0.249170
      48A      0.251841    49A      0.256307    50A      0.266488
      51A      0.271539    52A      0.279898    53A      0.288551
      54A      0.300812    55A      0.306507    56A      0.318781
      57A      0.360546    58A      0.368409    59A      0.379576
      60A      0.433548    61A      0.445858    62A      0.461530
      63A      0.465075    64A      0.494577    65A      0.556104
      66A      0.571696    67A      0.597131    68A      0.607031
      69A      0.618610    70A      0.621998    71A      0.625655
      72A      0.637990    73A      0.672081    74A      0.697803
      75A      0.704798    76A      0.726840    77A      0.732280
      78A      0.738742    79A      0.747108    80A      0.750821
      81A      0.770114    82A      0.775685    83A      0.797556
      84A      0.809041    85A      0.817752    86A      0.830858
      87A      0.853223    88A      0.860791    89A      0.862111
      90A      0.881955    91A      0.882853    92A      0.890798
      93A      0.892120    94A      0.897605    95A      0.902077
      96A      0.904741    97A      0.911062    98A      0.917070
      99A      0.919384   100A      0.926157   101A      0.932265
     102A      0.940981   103A      0.957163   104A      0.975602
     105A      0.988697   106A      0.998546   107A      1.042841
     108A      1.075406   109A      1.112158   110A      1.117819
     111A      1.137575   112A      1.142411   113A      1.153348
     114A      1.166769   115A      1.193053   116A      1.212952
     117A      1.234603   118A      1.240666   119A      1.256177
     120A      1.279954   121A      1.296636   122A      1.305735
     123A      1.324814   124A      1.356090   125A      1.369263
     126A      1.417127   127A      1.482505   128A      1.501705
     129A      1.511288   130A      1.522025   131A      1.530250
     132A      1.556804   133A      1.591647   134A      1.635607
     135A      1.663481   136A      1.671934   137A      1.678529
     138A      1.690533   139A      1.698150   140A      1.729786
     141A      1.733761   142A      1.763841   143A      1.790530
     144A      1.800701   145A      1.833473   146A      1.858125
     147A      1.865739   148A      1.873167   149A      1.877592
     150A      1.893835   151A      1.905857   152A      1.913338
     153A      1.922734   154A      1.925567   155A      1.929708
     156A      1.937677   157A      1.946481   158A      1.956892
     159A      1.958581   160A      1.962044   161A      1.966610
     162A      1.977897   163A      2.000873   164A      2.002742
     165A      2.007186   166A      2.023058   167A      2.026191
     168A      2.030932   169A      2.048896   170A      2.075011
     171A      2.097328   172A      2.121098   173A      2.124490
     174A      2.147071   175A      2.160233   176A      2.176326
     177A      2.189093   178A      2.191016   179A      2.236004
     180A      2.257516   181A      2.267928   182A      2.282026
     183A      2.288541   184A      2.303503   185A      2.315148
     186A      2.322224   187A      2.346769   188A      2.374438
     189A      2.438169   190A      2.455982   191A      2.496708
     192A      2.504313   193A      2.511307   194A      2.546014
     195A      2.602261   196A      2.617669   197A      2.628754
     198A      2.644677   199A      2.712674   200A      2.736983
     201A      2.758349   202A      2.762711   203A      2.763852
     204A      2.777248   205A      2.785741   206A      2.803990
     207A      2.816039   208A      2.831789   209A      2.847789
     210A      2.937784   211A      2.958890   212A      2.964485
     213A      2.974817   214A      2.999818   215A      3.028386
     216A      3.104464   217A      3.146877   218A      3.176822
     219A      3.278109   220A      3.913884

    Final Occupation by Irrep:
              A
    DOCC [    38 ]

  @RHF Final Energy:  -388.02391361227330

   => Energetics <=

    Nuclear Repulsion Energy =            486.5536410827074292
    One-Electron Energy =               -1487.6383613381810846
    Two-Electron Energy =                 613.0608066432004080
    Total Energy =                       -388.0239136122733044

Computation Completed

Properties will be evaluated at   0.000000,   0.000000,   0.000000 [a0]

Properties computed using the SCF density matrix

  Nuclear Dipole Moment: [e a0]
     X:    -1.3285      Y:    -7.5818      Z:     9.4703

  Electronic Dipole Moment: [e a0]
     X:     1.5246      Y:     7.6794      Z:    -9.5457

  Dipole Moment: [e a0]
     X:     0.1960      Y:     0.0976      Z:    -0.0754     Total:     0.2316

  Dipole Moment: [D]
     X:     0.4983      Y:     0.2481      Z:    -0.1917     Total:     0.5888

*** tstop() called on ds3 at Tue Apr 28 20:04:45 2020
Module time:
	user time   =     111.16 seconds =       1.85 minutes
	system time =      45.80 seconds =       0.76 minutes
	total time  =        151 seconds =       2.52 minutes
Total time:
	user time   =     111.16 seconds =       1.85 minutes
	system time =      45.80 seconds =       0.76 minutes
	total time  =        151 seconds =       2.52 minutes
                                     G D M A

                                 by Anthony Stone

                           version 2.2.06, 22 June 2011

               Distributed Multipoles from Gaussian wavefunctions

Starting at 20:4:45 on 28 Apr 2020

Using SCF density matrix from file ./SSI/SSI-133LYS-198PHE-1-dimer.test.10880.fchk

                         Distributed Multipole Analysis

Standard DMA

Positions and radii in angstrom
Multipole moments in atomic units, ea_0^k for rank k

C          x = -0.726398  y = -1.854677  z =  1.800358 angstrom
           Maximum rank =  0   Radius =  0.650 angstrom
                   Q00  =  -0.082239

C          x = -1.730398  y = -2.871677  z =  1.214358 angstrom
           Maximum rank =  0   Radius =  0.650 angstrom
                   Q00  =  -0.248087

C          x = -0.854398  y = -1.486677  z =  3.286358 angstrom
           Maximum rank =  0   Radius =  0.650 angstrom
                   Q00  =  -0.244444

H          x =  0.272602  y = -2.238677  z =  1.674358 angstrom
           Maximum rank =  0   Radius =  0.325 angstrom
                   Q00  =   0.041803

H          x = -0.811398  y = -0.939677  z =  1.213358 angstrom
           Maximum rank =  0   Radius =  0.325 angstrom
                   Q00  =   0.064139

H          x = -2.747398  y = -2.490677  z =  1.325358 angstrom
           Maximum rank =  0   Radius =  0.325 angstrom
                   Q00  =   0.075196

H          x = -1.645398  y = -3.815677  z =  1.753358 angstrom
           Maximum rank =  0   Radius =  0.325 angstrom
                   Q00  =   0.073585

H          x = -1.897398  y = -1.219677  z =  3.488358 angstrom
           Maximum rank =  0   Radius =  0.325 angstrom
                   Q00  =   0.070237

H          x = -0.611398  y = -2.366677  z =  3.890358 angstrom
           Maximum rank =  0   Radius =  0.325 angstrom
                   Q00  =   0.073641

H          x = -1.517196  y = -3.035040  z =  0.147658 angstrom
           Maximum rank =  0   Radius =  0.325 angstrom
                   Q00  =   0.089311

H          x = -0.199924  y = -0.645724  z =  3.559238 angstrom
           Maximum rank =  0   Radius =  0.325 angstrom
                   Q00  =   0.085358

C          x =  2.828602  y =  1.508323  z = -0.144642 angstrom
           Maximum rank =  0   Radius =  0.650 angstrom
                   Q00  =  -0.213645

C          x = -1.068398  y =  1.239323  z = -0.477642 angstrom
           Maximum rank =  0   Radius =  0.650 angstrom
                   Q00  =  -0.094164

C          x =  0.228602  y =  1.542323  z =  0.055358 angstrom
           Maximum rank =  0   Radius =  0.650 angstrom
                   Q00  =  -0.076565

C          x = -1.184398  y =  0.607323  z = -1.718642 angstrom
           Maximum rank =  0   Radius =  0.650 angstrom
                   Q00  =  -0.082778

C          x =  1.406602  y =  1.191323  z = -0.637642 angstrom
           Maximum rank =  0   Radius =  0.650 angstrom
                   Q00  =  -0.093115

C          x = -0.026398  y =  0.251323  z = -2.373642 angstrom
           Maximum rank =  0   Radius =  0.650 angstrom
                   Q00  =  -0.012273

C          x =  1.245602  y =  0.552323  z = -1.852642 angstrom
           Maximum rank =  0   Radius =  0.650 angstrom
                   Q00  =  -0.053253

H          x = -1.959398  y =  1.514323  z =  0.071358 angstrom
           Maximum rank =  0   Radius =  0.325 angstrom
                   Q00  =   0.069505

H          x =  0.259602  y =  2.020323  z =  1.017358 angstrom
           Maximum rank =  0   Radius =  0.325 angstrom
                   Q00  =   0.061916

H          x = -2.154398  y =  0.379323  z = -2.139642 angstrom
           Maximum rank =  0   Radius =  0.325 angstrom
                   Q00  =   0.064876

H          x = -0.107398  y = -0.245677  z = -3.328642 angstrom
           Maximum rank =  0   Radius =  0.325 angstrom
                   Q00  =   0.062018

H          x =  3.293602  y =  2.176323  z = -0.871642 angstrom
           Maximum rank =  0   Radius =  0.325 angstrom
                   Q00  =   0.105489

H          x =  3.397602  y =  0.578323  z = -0.135642 angstrom
           Maximum rank =  0   Radius =  0.325 angstrom
                   Q00  =   0.104002

H          x =  2.124602  y =  0.274323  z = -2.416642 angstrom
           Maximum rank =  0   Radius =  0.325 angstrom
                   Q00  =   0.053855

H          x =  2.886130  y =  1.967103  z =  0.853458 angstrom
           Maximum rank =  0   Radius =  0.325 angstrom
                   Q00  =   0.105632

Total multipoles referred to origin at
           x =   0.000000,  y =    0.000000,  z =    0.000000 angstrom
                   Q00  =  -0.000000

Finished at 20:4:45 on 28 Apr 2020

  DMA results are available in the Python driver through the
	  variable('DMA DISTRIBUTED MULTIPOLES')
  and
	  variable('DMA TOTAL MULTIPOLES')
  commands.

    Psi4 stopped on: Tuesday, 28 April 2020 08:04PM
    Psi4 wall time for execution: 0:02:31.26

*** Psi4 exiting successfully. Buy a developer a beer!
