                               Psi4 1.3.2 release

  ==> Input File <==

--------------------------------------------------------------------------
import numpy as np
set {scf_type pk
basis cc-pvdz
d_convergence 10
gdma_switch   0
gdma_limit    0
gdma_origin   [ 0.0,  0.0,  0.0 ]
}
molecule test {
    units Angstrom
    0 1
    --
    0 1
    C                1.480889767698238     2.927809585108424     0.890736132535316
    C                2.537889767698238     2.280809585108424    -0.024263867464684
    H                0.854889767698238     3.609809585108424     0.312736132535316
    H                0.848889767698238     2.155809585108424     1.333736132535316
    H                1.980889767698238     3.483809585108424     1.677736132535316
    H                2.029889767698238     1.790809585108424    -0.858263867464684
    H                3.134632767698238     1.535449585108424     0.521933132535316
    H                3.230366767698237     3.038209585108424    -0.420274867464684
    C               -0.537110232301762    -2.732190414891576     1.397736132535316
    C               -1.315110232301762     0.680809585108424    -0.069263867464684
    C               -1.255110232301762    -0.377190414891576     0.828736132535316
    C               -0.747110232301762     0.561809585108424    -1.328263867464684
    C               -0.605110232301762    -1.555190414891576     0.475736132535316
    C               -0.101110232301762    -0.611190414891576    -1.684263867464684
    C               -0.048110232301762    -1.667190414891576    -0.790263867464684
    H               -1.803110232301762     1.603809585108424     0.198736132535316
    H               -1.664110232301762    -0.279190414891576     1.815736132535316
    H               -0.798110232301762     1.384809585108424    -2.028263867464684
    H                0.347889767698238    -0.707190414891576    -2.663263867464684
    H                0.255889767698238    -3.394190414891576     1.045736132535316
    H               -1.478110232301762    -3.279190414891576     1.311736132535316
    H                0.438889767698238    -2.582190414891576    -1.094263867464684
    H               -0.353852232301762    -2.505813414891576     2.458476132535316

}
e, wfn = energy('scf', return_wfn=True)
gdma(wfn)
dmavals = variable('DMA DISTRIBUTED MULTIPOLES')
charges = np.array(dmavals)
print(charges)
np.save('SSI-100ALA-112PHE-1-dimer.npy', np.array(charges))--------------------------------------------------------------------------

*** tstart() called on ds3
*** at Tue Apr 28 20:10:42 2020

   => Loading Basis Set <=

    Name: CC-PVDZ
    Role: ORBITAL
    Keyword: BASIS
    atoms 1-2, 9-15  entry C          line   138 file /theoryfs2/ds/metcalf/miniconda2/envs/tf2gpu/share/psi4/basis/cc-pvdz.gbs
    atoms 3-8, 16-23 entry H          line    22 file /theoryfs2/ds/metcalf/miniconda2/envs/tf2gpu/share/psi4/basis/cc-pvdz.gbs

         ---------------------------------------------------------
                                   SCF
               by Justin Turney, Rob Parrish, Andy Simmonett
                          and Daniel G. A. Smith
                              RHF Reference
                        1 Threads,    500 MiB Core
         ---------------------------------------------------------

  ==> Geometry <==

    Molecular point group: c1
    Full point group: C1

    Geometry (in Angstrom), charge = 0, multiplicity = 1:

       Center              X                  Y                   Z               Mass
    ------------   -----------------  -----------------  -----------------  -----------------
         C            1.480889767698     2.927809585108     0.890736132535    12.000000000000
         C            2.537889767698     2.280809585108    -0.024263867465    12.000000000000
         H            0.854889767698     3.609809585108     0.312736132535     1.007825032230
         H            0.848889767698     2.155809585108     1.333736132535     1.007825032230
         H            1.980889767698     3.483809585108     1.677736132535     1.007825032230
         H            2.029889767698     1.790809585108    -0.858263867465     1.007825032230
         H            3.134632767698     1.535449585108     0.521933132535     1.007825032230
         H            3.230366767698     3.038209585108    -0.420274867465     1.007825032230
         C           -0.537110232302    -2.732190414892     1.397736132535    12.000000000000
         C           -1.315110232302     0.680809585108    -0.069263867465    12.000000000000
         C           -1.255110232302    -0.377190414892     0.828736132535    12.000000000000
         C           -0.747110232302     0.561809585108    -1.328263867465    12.000000000000
         C           -0.605110232302    -1.555190414892     0.475736132535    12.000000000000
         C           -0.101110232302    -0.611190414892    -1.684263867465    12.000000000000
         C           -0.048110232302    -1.667190414892    -0.790263867465    12.000000000000
         H           -1.803110232302     1.603809585108     0.198736132535     1.007825032230
         H           -1.664110232302    -0.279190414892     1.815736132535     1.007825032230
         H           -0.798110232302     1.384809585108    -2.028263867465     1.007825032230
         H            0.347889767698    -0.707190414892    -2.663263867465     1.007825032230
         H            0.255889767698    -3.394190414892     1.045736132535     1.007825032230
         H           -1.478110232302    -3.279190414892     1.311736132535     1.007825032230
         H            0.438889767698    -2.582190414892    -1.094263867465     1.007825032230
         H           -0.353852232302    -2.505813414892     2.458476132535     1.007825032230

  Running in c1 symmetry.

  Rotational constants: A =      0.07014  B =      0.02747  C =      0.02584 [cm^-1]
  Rotational constants: A =   2102.87641  B =    823.60994  C =    774.72987 [MHz]
  Nuclear repulsion =  414.763581268716564

  Charge       = 0
  Multiplicity = 1
  Electrons    = 68
  Nalpha       = 34
  Nbeta        = 34

  ==> Algorithm <==

  SCF Algorithm Type is PK.
  DIIS enabled.
  MOM disabled.
  Fractional occupation disabled.
  Guess Type is SAD.
  Energy threshold   = 1.00e-06
  Density threshold  = 1.00e-10
  Integral threshold = 0.00e+00

  ==> Primary Basis <==

  Basis Set: CC-PVDZ
    Blend: CC-PVDZ
    Number of shells: 96
    Number of basis function: 196
    Number of Cartesian functions: 205
    Spherical Harmonics?: true
    Max angular momentum: 2

  ==> Pre-Iterations <==

   -------------------------------------------------------
    Irrep   Nso     Nmo     Nalpha   Nbeta   Ndocc  Nsocc
   -------------------------------------------------------
     A        196     196       0       0       0       0
   -------------------------------------------------------
    Total     196     196      34      34      34       0
   -------------------------------------------------------

  ==> Integral Setup <==

  Using integral reordering PK algorithm.
  Sizing the integral batches needed.
  Building batch lookup table.
   Calculation information:
      Number of atoms:                  23
      Number of AO shells:              96
      Number of primitives:            268
      Number of atomic orbitals:       205
      Number of basis functions:       196

      Integral cutoff                 1.00e-12
      Number of threads:                 1

	Batch   1 pq = [       0,    9405] index = [             0,44231715] size =     44231715
	Batch   2 pq = [    9405,   13301] index = [      44231715,88464951] size =     44233236
	Batch   3 pq = [   13301,   16290] index = [      88464951,132690195] size =     44225244
	Batch   4 pq = [   16290,   18810] index = [     132690195,176917455] size =     44227260
	Batch   5 pq = [   18810,   19306] index = [     176917455,186370471] size =      9453016
  Task number: 17
  Buffer size: 11059200
  Buffer per thread: 2
  We computed 10037826 shell quartets total.
  Whereas there are 10841496 unique shell quartets.

  ==> DiskJK: Disk-Based J/K Matrices <==

    J tasked:                  Yes
    K tasked:                  Yes
    wK tasked:                  No
    Memory [MiB]:              375
    Schwarz Cutoff:          1E-12

    OpenMP threads:              1

  Minimum eigenvalue in the overlap matrix is 3.0587766531E-04.
  Using Symmetric Orthogonalization.

  SCF Guess: Superposition of Atomic Densities via on-the-fly atomic UHF.

  ==> Iterations <==

                        Total Energy        Delta E     RMS |[F,P]|

   @RHF iter SAD:  -347.92074438012799   -3.47921e+02   0.00000e+00
   @RHF iter   1:  -348.76578180612631   -8.45037e-01   2.90978e-03 DIIS
   @RHF iter   2:  -348.95895130948031   -1.93170e-01   1.22198e-03 DIIS
   @RHF iter   3:  -348.99001935755672   -3.10680e-02   2.60450e-04 DIIS
   @RHF iter   4:  -348.99250843581086   -2.48908e-03   5.39700e-05 DIIS
   @RHF iter   5:  -348.99258471119936   -7.62754e-05   1.73601e-05 DIIS
   @RHF iter   6:  -348.99259209443335   -7.38323e-06   4.82899e-06 DIIS
   @RHF iter   7:  -348.99259273801511   -6.43582e-07   1.26311e-06 DIIS
   @RHF iter   8:  -348.99259278433198   -4.63169e-08   2.70072e-07 DIIS
   @RHF iter   9:  -348.99259278770899   -3.37701e-09   9.58616e-08 DIIS
   @RHF iter  10:  -348.99259278820500   -4.96016e-10   4.12730e-08 DIIS
   @RHF iter  11:  -348.99259278833779   -1.32786e-10   1.55889e-08 DIIS
   @RHF iter  12:  -348.99259278836541   -2.76259e-11   7.28847e-09 DIIS
   @RHF iter  13:  -348.99259278837053   -5.11591e-12   3.45898e-09 DIIS
   @RHF iter  14:  -348.99259278837218   -1.64846e-12   7.67684e-10 DIIS
   @RHF iter  15:  -348.99259278837320   -1.02318e-12   3.30395e-10 DIIS
   @RHF iter  16:  -348.99259278837383   -6.25278e-13   9.74697e-11 DIIS
  Energy and wave function converged.

  ==> Post-Iterations <==

    Orbital Energies [Eh]
    ---------------------

    Doubly Occupied:

       1A    -11.240017     2A    -11.234916     3A    -11.234182
       4A    -11.229675     5A    -11.229533     6A    -11.229339
       7A    -11.228314     8A    -11.211458     9A    -11.210028
      10A     -1.157018    11A     -1.047756    12A     -1.014476
      13A     -1.006630    14A     -0.932677    15A     -0.830234
      16A     -0.826907    17A     -0.796661    18A     -0.693592
      19A     -0.633897    20A     -0.631083    21A     -0.590991
      22A     -0.586263    23A     -0.584245    24A     -0.577015
      25A     -0.565469    26A     -0.534676    27A     -0.492298
      28A     -0.488359    29A     -0.485104    30A     -0.483706
      31A     -0.478990    32A     -0.476818    33A     -0.333854
      34A     -0.322650

    Virtual:

      35A      0.135800    36A      0.141162    37A      0.174682
      38A      0.195173    39A      0.207963    40A      0.213913
      41A      0.238606    42A      0.242496    43A      0.258343
      44A      0.265039    45A      0.269150    46A      0.277064
      47A      0.280080    48A      0.292622    49A      0.305483
      50A      0.310740    51A      0.367305    52A      0.378597
      53A      0.398755    54A      0.454221    55A      0.464677
      56A      0.479162    57A      0.498145    58A      0.559600
      59A      0.586111    60A      0.595755    61A      0.604686
      62A      0.616832    63A      0.631564    64A      0.659916
      65A      0.680532    66A      0.690922    67A      0.696744
      68A      0.709844    69A      0.737193    70A      0.742078
      71A      0.744357    72A      0.755996    73A      0.758740
      74A      0.776259    75A      0.797622    76A      0.832010
      77A      0.844054    78A      0.846648    79A      0.855057
      80A      0.861640    81A      0.872820    82A      0.884291
      83A      0.897344    84A      0.899650    85A      0.901966
      86A      0.908213    87A      0.924287    88A      0.929518
      89A      0.931534    90A      0.943446    91A      0.953928
      92A      0.979054    93A      1.002859    94A      1.010994
      95A      1.029189    96A      1.050852    97A      1.121549
      98A      1.130090    99A      1.136766   100A      1.151969
     101A      1.156884   102A      1.169670   103A      1.195125
     104A      1.232090   105A      1.244454   106A      1.250520
     107A      1.262938   108A      1.265772   109A      1.301361
     110A      1.308893   111A      1.326375   112A      1.332719
     113A      1.411641   114A      1.473719   115A      1.492695
     116A      1.501412   117A      1.526835   118A      1.559548
     119A      1.575834   120A      1.602491   121A      1.669138
     122A      1.690715   123A      1.697940   124A      1.701570
     125A      1.737619   126A      1.757643   127A      1.778693
     128A      1.795422   129A      1.818123   130A      1.860505
     131A      1.875486   132A      1.885633   133A      1.890260
     134A      1.894918   135A      1.901204   136A      1.907139
     137A      1.921306   138A      1.930379   139A      1.941843
     140A      1.946917   141A      1.952081   142A      1.953901
     143A      1.960908   144A      1.970910   145A      1.974872
     146A      1.982778   147A      1.995850   148A      2.006253
     149A      2.035724   150A      2.080699   151A      2.087481
     152A      2.110100   153A      2.118809   154A      2.126980
     155A      2.143425   156A      2.162939   157A      2.171204
     158A      2.175915   159A      2.189240   160A      2.263393
     161A      2.272592   162A      2.295928   163A      2.300068
     164A      2.306878   165A      2.320575   166A      2.332769
     167A      2.337326   168A      2.454541   169A      2.466485
     170A      2.469633   171A      2.483802   172A      2.493240
     173A      2.550352   174A      2.564696   175A      2.581775
     176A      2.634768   177A      2.737494   178A      2.749988
     179A      2.767458   180A      2.774413   181A      2.794353
     182A      2.803279   183A      2.819672   184A      2.849769
     185A      2.857968   186A      2.866005   187A      2.869614
     188A      2.959590   189A      2.971798   190A      2.998816
     191A      3.030285   192A      3.038866   193A      3.175671
     194A      3.212387   195A      3.320504   196A      3.990813

    Final Occupation by Irrep:
              A
    DOCC [    34 ]

  @RHF Final Energy:  -348.99259278837383

   => Energetics <=

    Nuclear Repulsion Energy =            414.7635812687165640
    One-Electron Energy =               -1292.2746897977867775
    Two-Electron Energy =                 528.5185157406964436
    Total Energy =                       -348.9925927883738268

Computation Completed

Properties will be evaluated at   0.000000,   0.000000,   0.000000 [a0]

Properties computed using the SCF density matrix

  Nuclear Dipole Moment: [e a0]
     X:     6.5857      Y:     5.4887      Z:     3.3864

  Electronic Dipole Moment: [e a0]
     X:    -6.6492      Y:    -5.6702      Z:    -3.3267

  Dipole Moment: [e a0]
     X:    -0.0636      Y:    -0.1815      Z:     0.0597     Total:     0.2014

  Dipole Moment: [D]
     X:    -0.1616      Y:    -0.4614      Z:     0.1517     Total:     0.5119

*** tstop() called on ds3 at Tue Apr 28 20:12:14 2020
Module time:
	user time   =      70.02 seconds =       1.17 minutes
	system time =      26.24 seconds =       0.44 minutes
	total time  =         92 seconds =       1.53 minutes
Total time:
	user time   =      70.02 seconds =       1.17 minutes
	system time =      26.24 seconds =       0.44 minutes
	total time  =         92 seconds =       1.53 minutes
                                     G D M A

                                 by Anthony Stone

                           version 2.2.06, 22 June 2011

               Distributed Multipoles from Gaussian wavefunctions

Starting at 20:12:14 on 28 Apr 2020

Using SCF density matrix from file ./SSI/SSI-100ALA-112PHE-1-dimer.test.16033.fchk

                         Distributed Multipole Analysis

Standard DMA

Positions and radii in angstrom
Multipole moments in atomic units, ea_0^k for rank k

C          x =  1.480890  y =  2.927810  z =  0.890736 angstrom
           Maximum rank =  0   Radius =  0.650 angstrom
                   Q00  =  -0.237016

C          x =  2.537890  y =  2.280810  z = -0.024264 angstrom
           Maximum rank =  0   Radius =  0.650 angstrom
                   Q00  =  -0.239125

H          x =  0.854890  y =  3.609810  z =  0.312736 angstrom
           Maximum rank =  0   Radius =  0.325 angstrom
                   Q00  =   0.074462

H          x =  0.848890  y =  2.155810  z =  1.333736 angstrom
           Maximum rank =  0   Radius =  0.325 angstrom
                   Q00  =   0.089162

H          x =  1.980890  y =  3.483810  z =  1.677736 angstrom
           Maximum rank =  0   Radius =  0.325 angstrom
                   Q00  =   0.074921

H          x =  2.029890  y =  1.790810  z = -0.858264 angstrom
           Maximum rank =  0   Radius =  0.325 angstrom
                   Q00  =   0.086515

H          x =  3.134633  y =  1.535450  z =  0.521933 angstrom
           Maximum rank =  0   Radius =  0.325 angstrom
                   Q00  =   0.078905

H          x =  3.230367  y =  3.038210  z = -0.420275 angstrom
           Maximum rank =  0   Radius =  0.325 angstrom
                   Q00  =   0.071892

C          x = -0.537110  y = -2.732190  z =  1.397736 angstrom
           Maximum rank =  0   Radius =  0.650 angstrom
                   Q00  =  -0.209326

C          x = -1.315110  y =  0.680810  z = -0.069264 angstrom
           Maximum rank =  0   Radius =  0.650 angstrom
                   Q00  =  -0.054877

C          x = -1.255110  y = -0.377190  z =  0.828736 angstrom
           Maximum rank =  0   Radius =  0.650 angstrom
                   Q00  =  -0.091962

C          x = -0.747110  y =  0.561810  z = -1.328264 angstrom
           Maximum rank =  0   Radius =  0.650 angstrom
                   Q00  =  -0.092553

C          x = -0.605110  y = -1.555190  z =  0.475736 angstrom
           Maximum rank =  0   Radius =  0.650 angstrom
                   Q00  =  -0.087405

C          x = -0.101110  y = -0.611190  z = -1.684264 angstrom
           Maximum rank =  0   Radius =  0.650 angstrom
                   Q00  =  -0.066696

C          x = -0.048110  y = -1.667190  z = -0.790264 angstrom
           Maximum rank =  0   Radius =  0.650 angstrom
                   Q00  =   0.002772

H          x = -1.803110  y =  1.603810  z =  0.198736 angstrom
           Maximum rank =  0   Radius =  0.325 angstrom
                   Q00  =   0.064401

H          x = -1.664110  y = -0.279190  z =  1.815736 angstrom
           Maximum rank =  0   Radius =  0.325 angstrom
                   Q00  =   0.055923

H          x = -0.798110  y =  1.384810  z = -2.028264 angstrom
           Maximum rank =  0   Radius =  0.325 angstrom
                   Q00  =   0.059956

H          x =  0.347890  y = -0.707190  z = -2.663264 angstrom
           Maximum rank =  0   Radius =  0.325 angstrom
                   Q00  =   0.064347

H          x =  0.255890  y = -3.394190  z =  1.045736 angstrom
           Maximum rank =  0   Radius =  0.325 angstrom
                   Q00  =   0.095318

H          x = -1.478110  y = -3.279190  z =  1.311736 angstrom
           Maximum rank =  0   Radius =  0.325 angstrom
                   Q00  =   0.103437

H          x =  0.438890  y = -2.582190  z = -1.094264 angstrom
           Maximum rank =  0   Radius =  0.325 angstrom
                   Q00  =   0.055279

H          x = -0.353852  y = -2.505813  z =  2.458476 angstrom
           Maximum rank =  0   Radius =  0.325 angstrom
                   Q00  =   0.101671

Total multipoles referred to origin at
           x =   0.000000,  y =    0.000000,  z =    0.000000 angstrom
                   Q00  =  -0.000000

Finished at 20:12:14 on 28 Apr 2020

  DMA results are available in the Python driver through the
	  variable('DMA DISTRIBUTED MULTIPOLES')
  and
	  variable('DMA TOTAL MULTIPOLES')
  commands.

    Psi4 stopped on: Tuesday, 28 April 2020 08:12PM
    Psi4 wall time for execution: 0:01:32.59

*** Psi4 exiting successfully. Buy a developer a beer!
