                               Psi4 1.3.2 release

  ==> Input File <==

--------------------------------------------------------------------------
import numpy as np
set {scf_type pk
basis cc-pvdz
d_convergence 10
gdma_switch   0
gdma_limit    0
gdma_origin   [ 0.0,  0.0,  0.0 ]
}
molecule test {
    units Angstrom
    1 1
    --
    1 1
    C               -1.097288396621575     2.471654024929559    -2.395069827783745
    N               -0.277288396621576     3.207654024929559    -1.369069827783744
    H               -0.131288396621576     2.663654024929559    -0.521069827783744
    H                0.647711603378424     3.396654024929559    -1.742069827783744
    H               -0.695288396621576     4.097654024929559    -1.121069827783744
    H               -0.601288396621576     1.528654024929559    -2.654069827783744
    H               -1.165288396621576     3.072654024929559    -3.309069827783744
    H               -2.117368396621575     2.255884024929559    -2.044529827783744
    C                1.314711603378425    -3.489345975070441    -0.089069827783744
    C               -0.313288396621576     0.391654024929559     0.847930172216256
    C               -0.950288396621576    -0.438345975070441    -0.063069827783744
    C                0.847711603378424    -0.036345975070441     1.488930172216256
    C               -0.410288396621576    -1.678345975070441    -0.360069827783744
    C                1.379711603378424    -1.290345975070442     1.187930172216256
    C                0.744711603378424    -2.132345975070441     0.268930172216256
    O               -0.849288396621576     1.615654024929559     1.082930172216256
    H               -1.762288396621576     1.676654024929559     0.801930172216256
    H               -1.899288396621576    -0.208345975070441    -0.500069827783744
    H                1.317711603378424     0.603654024929559     2.219930172216256
    H               -0.914288396621576    -2.308345975070441    -1.064069827783744
    H                2.263711603378424    -1.629345975070442     1.706930172216256
    H                0.511711603378424    -4.224345975070441    -0.044069827783744
    H                2.068711603378425    -3.772345975070441     0.645930172216256
    H                1.761299603378424    -3.519215975070441    -1.093889827783744

}
e, wfn = energy('scf', return_wfn=True)
gdma(wfn)
dmavals = variable('DMA DISTRIBUTED MULTIPOLES')
charges = np.array(dmavals)
print(charges)
np.save('SSI-015LYS-047TYR-2-dimer.npy', np.array(charges))--------------------------------------------------------------------------

*** tstart() called on ds3
*** at Sun Apr 26 18:21:41 2020

   => Loading Basis Set <=

    Name: CC-PVDZ
    Role: ORBITAL
    Keyword: BASIS
    atoms 1, 9-15    entry C          line   138 file /theoryfs2/ds/metcalf/miniconda2/envs/tf2gpu/share/psi4/basis/cc-pvdz.gbs
    atoms 2          entry N          line   168 file /theoryfs2/ds/metcalf/miniconda2/envs/tf2gpu/share/psi4/basis/cc-pvdz.gbs
    atoms 3-8, 17-24 entry H          line    22 file /theoryfs2/ds/metcalf/miniconda2/envs/tf2gpu/share/psi4/basis/cc-pvdz.gbs
    atoms 16         entry O          line   198 file /theoryfs2/ds/metcalf/miniconda2/envs/tf2gpu/share/psi4/basis/cc-pvdz.gbs

         ---------------------------------------------------------
                                   SCF
               by Justin Turney, Rob Parrish, Andy Simmonett
                          and Daniel G. A. Smith
                              RHF Reference
                        1 Threads,    500 MiB Core
         ---------------------------------------------------------

  ==> Geometry <==

    Molecular point group: c1
    Full point group: C1

    Geometry (in Angstrom), charge = 1, multiplicity = 1:

       Center              X                  Y                   Z               Mass
    ------------   -----------------  -----------------  -----------------  -----------------
         C           -1.097288396622     2.471654024930    -2.395069827784    12.000000000000
         N           -0.277288396622     3.207654024930    -1.369069827784    14.003074004430
         H           -0.131288396622     2.663654024930    -0.521069827784     1.007825032230
         H            0.647711603378     3.396654024930    -1.742069827784     1.007825032230
         H           -0.695288396622     4.097654024930    -1.121069827784     1.007825032230
         H           -0.601288396622     1.528654024930    -2.654069827784     1.007825032230
         H           -1.165288396622     3.072654024930    -3.309069827784     1.007825032230
         H           -2.117368396622     2.255884024930    -2.044529827784     1.007825032230
         C            1.314711603378    -3.489345975070    -0.089069827784    12.000000000000
         C           -0.313288396622     0.391654024930     0.847930172216    12.000000000000
         C           -0.950288396622    -0.438345975070    -0.063069827784    12.000000000000
         C            0.847711603378    -0.036345975070     1.488930172216    12.000000000000
         C           -0.410288396622    -1.678345975070    -0.360069827784    12.000000000000
         C            1.379711603378    -1.290345975070     1.187930172216    12.000000000000
         C            0.744711603378    -2.132345975070     0.268930172216    12.000000000000
         O           -0.849288396622     1.615654024930     1.082930172216    15.994914619570
         H           -1.762288396622     1.676654024930     0.801930172216     1.007825032230
         H           -1.899288396622    -0.208345975070    -0.500069827784     1.007825032230
         H            1.317711603378     0.603654024930     2.219930172216     1.007825032230
         H           -0.914288396622    -2.308345975070    -1.064069827784     1.007825032230
         H            2.263711603378    -1.629345975070     1.706930172216     1.007825032230
         H            0.511711603378    -4.224345975070    -0.044069827784     1.007825032230
         H            2.068711603378    -3.772345975070     0.645930172216     1.007825032230
         H            1.761299603378    -3.519215975070    -1.093889827784     1.007825032230

  Running in c1 symmetry.

  Rotational constants: A =      0.07327  B =      0.02116  C =      0.01875 [cm^-1]
  Rotational constants: A =   2196.71037  B =    634.22968  C =    562.08684 [MHz]
  Nuclear repulsion =  518.617167838311275

  Charge       = 1
  Multiplicity = 1
  Electrons    = 76
  Nalpha       = 38
  Nbeta        = 38

  ==> Algorithm <==

  SCF Algorithm Type is PK.
  DIIS enabled.
  MOM disabled.
  Fractional occupation disabled.
  Guess Type is SAD.
  Energy threshold   = 1.00e-06
  Density threshold  = 1.00e-10
  Integral threshold = 0.00e+00

  ==> Primary Basis <==

  Basis Set: CC-PVDZ
    Blend: CC-PVDZ
    Number of shells: 102
    Number of basis function: 210
    Number of Cartesian functions: 220
    Spherical Harmonics?: true
    Max angular momentum: 2

  ==> Pre-Iterations <==

   -------------------------------------------------------
    Irrep   Nso     Nmo     Nalpha   Nbeta   Ndocc  Nsocc
   -------------------------------------------------------
     A        210     210       0       0       0       0
   -------------------------------------------------------
    Total     210     210      38      38      38       0
   -------------------------------------------------------

  ==> Integral Setup <==

  Using integral reordering PK algorithm.
  Sizing the integral batches needed.
  Building batch lookup table.
   Calculation information:
      Number of atoms:                  24
      Number of AO shells:             102
      Number of primitives:            290
      Number of atomic orbitals:       220
      Number of basis functions:       210

      Integral cutoff                 1.00e-12
      Number of threads:                 1

	Batch   1 pq = [       0,    9405] index = [             0,44231715] size =     44231715
	Batch   2 pq = [    9405,   13301] index = [      44231715,88464951] size =     44233236
	Batch   3 pq = [   13301,   16290] index = [      88464951,132690195] size =     44225244
	Batch   4 pq = [   16290,   18810] index = [     132690195,176917455] size =     44227260
	Batch   5 pq = [   18810,   21030] index = [     176917455,221140965] size =     44223510
	Batch   6 pq = [   21030,   22155] index = [     221140965,245433090] size =     24292125
  Task number: 23
  Buffer size: 11059200
  Buffer per thread: 2
  We computed 12064183 shell quartets total.
  Whereas there are 13799631 unique shell quartets.

  ==> DiskJK: Disk-Based J/K Matrices <==

    J tasked:                  Yes
    K tasked:                  Yes
    wK tasked:                  No
    Memory [MiB]:              375
    Schwarz Cutoff:          1E-12

    OpenMP threads:              1

  Minimum eigenvalue in the overlap matrix is 3.1809640266E-04.
  Using Symmetric Orthogonalization.

  SCF Guess: Superposition of Atomic Densities via on-the-fly atomic UHF.

  ==> Iterations <==

                        Total Energy        Delta E     RMS |[F,P]|

   @RHF iter SAD:  -439.54166804089914   -4.39542e+02   0.00000e+00
   @RHF iter   1:  -439.99248354720976   -4.50816e-01   2.78881e-03 DIIS
   @RHF iter   2:  -440.19411338479233   -2.01630e-01   1.10874e-03 DIIS
   @RHF iter   3:  -440.22166397521812   -2.75506e-02   3.22940e-04 DIIS
   @RHF iter   4:  -440.22490159196383   -3.23762e-03   1.29886e-04 DIIS
   @RHF iter   5:  -440.22533820951020   -4.36618e-04   2.14387e-05 DIIS
   @RHF iter   6:  -440.22535811522721   -1.99057e-05   6.81947e-06 DIIS
   @RHF iter   7:  -440.22535988065158   -1.76542e-06   2.21143e-06 DIIS
   @RHF iter   8:  -440.22536012448018   -2.43829e-07   7.63211e-07 DIIS
   @RHF iter   9:  -440.22536015343843   -2.89583e-08   2.55555e-07 DIIS
   @RHF iter  10:  -440.22536015770169   -4.26326e-09   1.14699e-07 DIIS
   @RHF iter  11:  -440.22536015905251   -1.35083e-09   5.44954e-08 DIIS
   @RHF iter  12:  -440.22536015939602   -3.43505e-10   2.21269e-08 DIIS
   @RHF iter  13:  -440.22536015945053   -5.45128e-11   8.62692e-09 DIIS
   @RHF iter  14:  -440.22536015945423   -3.69482e-12   2.30980e-09 DIIS
   @RHF iter  15:  -440.22536015945724   -3.01270e-12   6.32580e-10 DIIS
   @RHF iter  16:  -440.22536015945582    1.42109e-12   2.01878e-10 DIIS
   @RHF iter  17:  -440.22536015945730   -1.47793e-12   8.01625e-11 DIIS
  Energy and wave function converged.

  ==> Post-Iterations <==

    Orbital Energies [Eh]
    ---------------------

    Doubly Occupied:

       1A    -20.732936     2A    -15.892371     3A    -11.484543
       4A    -11.420172     5A    -11.349960     6A    -11.348107
       7A    -11.346893     8A    -11.345317     9A    -11.342675
      10A    -11.318202    11A     -1.553416    12A     -1.506736
      13A     -1.265212    14A     -1.156619    15A     -1.146897
      16A     -1.133778    17A     -1.032150    18A     -0.968362
      19A     -0.963960    20A     -0.960044    21A     -0.923972
      22A     -0.863600    23A     -0.851020    24A     -0.792310
      25A     -0.762566    26A     -0.758977    27A     -0.753545
      28A     -0.736282    29A     -0.715397    30A     -0.700924
      31A     -0.688683    32A     -0.664052    33A     -0.628433
      34A     -0.602114    35A     -0.595621    36A     -0.584554
      37A     -0.452209    38A     -0.420816

    Virtual:

      39A     -0.038483    40A      0.013564    41A      0.017483
      42A      0.030938    43A      0.038737    44A      0.055851
      45A      0.078086    46A      0.094211    47A      0.102340
      48A      0.117666    49A      0.122433    50A      0.133367
      51A      0.150365    52A      0.166075    53A      0.171433
      54A      0.189168    55A      0.206403    56A      0.260051
      57A      0.271180    58A      0.313019    59A      0.343165
      60A      0.373866    61A      0.378100    62A      0.384084
      63A      0.395353    64A      0.406789    65A      0.427714
      66A      0.492812    67A      0.516710    68A      0.525634
      69A      0.537306    70A      0.541592    71A      0.562310
      72A      0.581086    73A      0.588156    74A      0.604604
      75A      0.618499    76A      0.624462    77A      0.637333
      78A      0.641248    79A      0.647815    80A      0.667028
      81A      0.669621    82A      0.678320    83A      0.683726
      84A      0.699955    85A      0.715563    86A      0.731452
      87A      0.747239    88A      0.767895    89A      0.773062
      90A      0.783061    91A      0.786801    92A      0.795660
      93A      0.801584    94A      0.808416    95A      0.828373
      96A      0.837712    97A      0.850425    98A      0.855412
      99A      0.864227   100A      0.900325   101A      0.920302
     102A      0.923722   103A      0.948641   104A      0.979856
     105A      1.013304   106A      1.022509   107A      1.030767
     108A      1.052629   109A      1.073268   110A      1.091824
     111A      1.119302   112A      1.140306   113A      1.158059
     114A      1.175658   115A      1.184758   116A      1.204607
     117A      1.208775   118A      1.230040   119A      1.243521
     120A      1.267725   121A      1.275821   122A      1.331785
     123A      1.359023   124A      1.399369   125A      1.424537
     126A      1.450628   127A      1.457316   128A      1.475905
     129A      1.514278   130A      1.530903   131A      1.580005
     132A      1.601697   133A      1.625037   134A      1.628579
     135A      1.640523   136A      1.669446   137A      1.671790
     138A      1.685325   139A      1.686419   140A      1.701305
     141A      1.724887   142A      1.732172   143A      1.744125
     144A      1.766141   145A      1.787562   146A      1.804754
     147A      1.809262   148A      1.814746   149A      1.819923
     150A      1.839941   151A      1.856098   152A      1.864132
     153A      1.894188   154A      1.908731   155A      1.935330
     156A      1.937169   157A      1.940850   158A      1.952588
     159A      1.959998   160A      1.962174   161A      1.964863
     162A      1.989230   163A      2.015481   164A      2.032371
     165A      2.046609   166A      2.076152   167A      2.106432
     168A      2.112673   169A      2.139000   170A      2.159467
     171A      2.166809   172A      2.203239   173A      2.230475
     174A      2.245551   175A      2.271599   176A      2.273799
     177A      2.299119   178A      2.326608   179A      2.371625
     180A      2.400279   181A      2.410891   182A      2.421420
     183A      2.438175   184A      2.486868   185A      2.499921
     186A      2.510338   187A      2.523599   188A      2.538647
     189A      2.635051   190A      2.680267   191A      2.693515
     192A      2.710563   193A      2.733462   194A      2.744212
     195A      2.751713   196A      2.777718   197A      2.798270
     198A      2.874570   199A      2.884593   200A      2.981823
     201A      3.017687   202A      3.080894   203A      3.097087
     204A      3.166267   205A      3.175439   206A      3.217808
     207A      3.458209   208A      3.539777   209A      3.877177
     210A      4.039950

    Final Occupation by Irrep:
              A
    DOCC [    38 ]

  @RHF Final Energy:  -440.22536015945730

   => Energetics <=

    Nuclear Repulsion Energy =            518.6171678383112749
    One-Electron Energy =               -1614.1582084798606047
    Two-Electron Energy =                 655.3156804820921479
    Total Energy =                       -440.2253601594572956

Computation Completed

Properties will be evaluated at   0.000000,   0.000000,   0.000000 [a0]

Properties computed using the SCF density matrix

  Nuclear Dipole Moment: [e a0]
     X:    -0.6741      Y:     3.4048      Z:    -8.1649

  Electronic Dipole Moment: [e a0]
     X:    -0.1758      Y:     1.1185      Z:     5.3539

  Dipole Moment: [e a0]
     X:    -0.8499      Y:     4.5232      Z:    -2.8109     Total:     5.3929

  Dipole Moment: [D]
     X:    -2.1601      Y:    11.4969      Z:    -7.1447     Total:    13.7074

*** tstop() called on ds3 at Sun Apr 26 18:24:32 2020
Module time:
	user time   =      88.51 seconds =       1.48 minutes
	system time =      33.81 seconds =       0.56 minutes
	total time  =        171 seconds =       2.85 minutes
Total time:
	user time   =      88.51 seconds =       1.48 minutes
	system time =      33.81 seconds =       0.56 minutes
	total time  =        171 seconds =       2.85 minutes
                                     G D M A

                                 by Anthony Stone

                           version 2.2.06, 22 June 2011

               Distributed Multipoles from Gaussian wavefunctions

Starting at 18:24:33 on 26 Apr 2020

Using SCF density matrix from file ./SSI/SSI-015LYS-047TYR-2-dimer.test.6326.fchk

                         Distributed Multipole Analysis

Standard DMA

Positions and radii in angstrom
Multipole moments in atomic units, ea_0^k for rank k

C          x = -1.097288  y =  2.471654  z = -2.395070 angstrom
           Maximum rank =  0   Radius =  0.650 angstrom
                   Q00  =  -0.146971

N          x = -0.277288  y =  3.207654  z = -1.369070 angstrom
           Maximum rank =  0   Radius =  0.650 angstrom
                   Q00  =  -0.153425

H          x = -0.131288  y =  2.663654  z = -0.521070 angstrom
           Maximum rank =  0   Radius =  0.325 angstrom
                   Q00  =   0.283544

H          x =  0.647712  y =  3.396654  z = -1.742070 angstrom
           Maximum rank =  0   Radius =  0.325 angstrom
                   Q00  =   0.251133

H          x = -0.695288  y =  4.097654  z = -1.121070 angstrom
           Maximum rank =  0   Radius =  0.325 angstrom
                   Q00  =   0.257811

H          x = -0.601288  y =  1.528654  z = -2.654070 angstrom
           Maximum rank =  0   Radius =  0.325 angstrom
                   Q00  =   0.165967

H          x = -1.165288  y =  3.072654  z = -3.309070 angstrom
           Maximum rank =  0   Radius =  0.325 angstrom
                   Q00  =   0.159501

H          x = -2.117368  y =  2.255884  z = -2.044530 angstrom
           Maximum rank =  0   Radius =  0.325 angstrom
                   Q00  =   0.156263

C          x =  1.314712  y = -3.489346  z = -0.089070 angstrom
           Maximum rank =  0   Radius =  0.650 angstrom
                   Q00  =  -0.199677

C          x = -0.313288  y =  0.391654  z =  0.847930 angstrom
           Maximum rank =  0   Radius =  0.650 angstrom
                   Q00  =   0.218908

C          x = -0.950288  y = -0.438346  z = -0.063070 angstrom
           Maximum rank =  0   Radius =  0.650 angstrom
                   Q00  =  -0.213196

C          x =  0.847712  y = -0.036346  z =  1.488930 angstrom
           Maximum rank =  0   Radius =  0.650 angstrom
                   Q00  =  -0.104402

C          x = -0.410288  y = -1.678346  z = -0.360070 angstrom
           Maximum rank =  0   Radius =  0.650 angstrom
                   Q00  =   0.036386

C          x =  1.379712  y = -1.290346  z =  1.187930 angstrom
           Maximum rank =  0   Radius =  0.650 angstrom
                   Q00  =  -0.041034

C          x =  0.744712  y = -2.132346  z =  0.268930 angstrom
           Maximum rank =  0   Radius =  0.650 angstrom
                   Q00  =  -0.123617

O          x = -0.849288  y =  1.615654  z =  1.082930 angstrom
           Maximum rank =  0   Radius =  0.650 angstrom
                   Q00  =  -0.634131

H          x = -1.762288  y =  1.676654  z =  0.801930 angstrom
           Maximum rank =  0   Radius =  0.325 angstrom
                   Q00  =   0.412805

H          x = -1.899288  y = -0.208346  z = -0.500070 angstrom
           Maximum rank =  0   Radius =  0.325 angstrom
                   Q00  =   0.071538

H          x =  1.317712  y =  0.603654  z =  2.219930 angstrom
           Maximum rank =  0   Radius =  0.325 angstrom
                   Q00  =   0.092664

H          x = -0.914288  y = -2.308346  z = -1.064070 angstrom
           Maximum rank =  0   Radius =  0.325 angstrom
                   Q00  =   0.086174

H          x =  2.263712  y = -1.629346  z =  1.706930 angstrom
           Maximum rank =  0   Radius =  0.325 angstrom
                   Q00  =   0.090567

H          x =  0.511712  y = -4.224346  z = -0.044070 angstrom
           Maximum rank =  0   Radius =  0.325 angstrom
                   Q00  =   0.112051

H          x =  2.068712  y = -3.772346  z =  0.645930 angstrom
           Maximum rank =  0   Radius =  0.325 angstrom
                   Q00  =   0.111706

H          x =  1.761300  y = -3.519216  z = -1.093890 angstrom
           Maximum rank =  0   Radius =  0.325 angstrom
                   Q00  =   0.109436

Total multipoles referred to origin at
           x =   0.000000,  y =    0.000000,  z =    0.000000 angstrom
                   Q00  =   1.000000

Finished at 18:24:33 on 26 Apr 2020

  DMA results are available in the Python driver through the
	  variable('DMA DISTRIBUTED MULTIPOLES')
  and
	  variable('DMA TOTAL MULTIPOLES')
  commands.

    Psi4 stopped on: Sunday, 26 April 2020 06:24PM
    Psi4 wall time for execution: 0:02:51.19

*** Psi4 exiting successfully. Buy a developer a beer!
