                               Psi4 1.3.2 release

  ==> Input File <==

--------------------------------------------------------------------------
import numpy as np
set {scf_type pk
basis cc-pvdz
d_convergence 10
gdma_switch   0
gdma_limit    0
gdma_origin   [ 0.0,  0.0,  0.0 ]
}
molecule test {
    units Angstrom
    -1 1
    --
    -1 1
    C                2.185405628689591     0.464478999711326    -1.779078759986412
    C                1.112405628689591     1.472478999711326    -1.352078759986412
    O                0.647405628689591     1.434478999711326    -0.191078759986412
    O                0.688405628689591     2.295478999711326    -2.186078759986412
    H                2.783405628689591     0.894478999711326    -2.583078759986412
    H                1.701405628689591    -0.433521000288674    -2.166078759986412
    H                2.868885628689591     0.170222999711326    -0.968978759986412
    C                0.141405628689591    -1.222521000288674     1.987921240013588
    C               -1.207594371310409    -1.375521000288674     1.331921240013588
    O               -1.634594371310409    -0.539521000288674     0.542921240013588
    N               -1.893594371310409    -2.455521000288674     1.637921240013588
    H                0.492405628689591    -0.207521000288674     1.840921240013588
    H                0.830405628689591    -1.877521000288674     1.461921240013588
    H               -2.799594371310409    -2.567521000288674     1.203921240013588
    H               -1.520594371310409    -3.145521000288674     2.259921240013588
    H                0.124301928689591    -1.478364600288674     3.057621240013588

}
e, wfn = energy('scf', return_wfn=True)
gdma(wfn)
dmavals = variable('DMA DISTRIBUTED MULTIPOLES')
charges = np.array(dmavals)
print(charges)
np.save('SSI-081GLU-101ASN-1-dimer.npy', np.array(charges))--------------------------------------------------------------------------

*** tstart() called on ds3
*** at Tue Apr 28 20:46:14 2020

   => Loading Basis Set <=

    Name: CC-PVDZ
    Role: ORBITAL
    Keyword: BASIS
    atoms 1-2, 8-9   entry C          line   138 file /theoryfs2/ds/metcalf/miniconda2/envs/tf2gpu/share/psi4/basis/cc-pvdz.gbs
    atoms 3-4, 10    entry O          line   198 file /theoryfs2/ds/metcalf/miniconda2/envs/tf2gpu/share/psi4/basis/cc-pvdz.gbs
    atoms 5-7, 12-16 entry H          line    22 file /theoryfs2/ds/metcalf/miniconda2/envs/tf2gpu/share/psi4/basis/cc-pvdz.gbs
    atoms 11         entry N          line   168 file /theoryfs2/ds/metcalf/miniconda2/envs/tf2gpu/share/psi4/basis/cc-pvdz.gbs

         ---------------------------------------------------------
                                   SCF
               by Justin Turney, Rob Parrish, Andy Simmonett
                          and Daniel G. A. Smith
                              RHF Reference
                        1 Threads,    500 MiB Core
         ---------------------------------------------------------

  ==> Geometry <==

    Molecular point group: c1
    Full point group: C1

    Geometry (in Angstrom), charge = -1, multiplicity = 1:

       Center              X                  Y                   Z               Mass
    ------------   -----------------  -----------------  -----------------  -----------------
         C            2.185405628690     0.464478999711    -1.779078759986    12.000000000000
         C            1.112405628690     1.472478999711    -1.352078759986    12.000000000000
         O            0.647405628690     1.434478999711    -0.191078759986    15.994914619570
         O            0.688405628690     2.295478999711    -2.186078759986    15.994914619570
         H            2.783405628690     0.894478999711    -2.583078759986     1.007825032230
         H            1.701405628690    -0.433521000289    -2.166078759986     1.007825032230
         H            2.868885628690     0.170222999711    -0.968978759986     1.007825032230
         C            0.141405628690    -1.222521000289     1.987921240014    12.000000000000
         C           -1.207594371310    -1.375521000289     1.331921240014    12.000000000000
         O           -1.634594371310    -0.539521000289     0.542921240014    15.994914619570
         N           -1.893594371310    -2.455521000289     1.637921240014    14.003074004430
         H            0.492405628690    -0.207521000289     1.840921240014     1.007825032230
         H            0.830405628690    -1.877521000289     1.461921240014     1.007825032230
         H           -2.799594371310    -2.567521000289     1.203921240014     1.007825032230
         H           -1.520594371310    -3.145521000289     2.259921240014     1.007825032230
         H            0.124301928690    -1.478364600289     3.057621240014     1.007825032230

  Running in c1 symmetry.

  Rotational constants: A =      0.13711  B =      0.02325  C =      0.02193 [cm^-1]
  Rotational constants: A =   4110.53486  B =    697.07537  C =    657.59216 [MHz]
  Nuclear repulsion =  348.523576580817860

  Charge       = -1
  Multiplicity = 1
  Electrons    = 64
  Nalpha       = 32
  Nbeta        = 32

  ==> Algorithm <==

  SCF Algorithm Type is PK.
  DIIS enabled.
  MOM disabled.
  Fractional occupation disabled.
  Guess Type is SAD.
  Energy threshold   = 1.00e-06
  Density threshold  = 1.00e-10
  Integral threshold = 0.00e+00

  ==> Primary Basis <==

  Basis Set: CC-PVDZ
    Blend: CC-PVDZ
    Number of shells: 72
    Number of basis function: 152
    Number of Cartesian functions: 160
    Spherical Harmonics?: true
    Max angular momentum: 2

  ==> Pre-Iterations <==

   -------------------------------------------------------
    Irrep   Nso     Nmo     Nalpha   Nbeta   Ndocc  Nsocc
   -------------------------------------------------------
     A        152     152       0       0       0       0
   -------------------------------------------------------
    Total     152     152      32      32      32       0
   -------------------------------------------------------

  ==> Integral Setup <==

  Using integral reordering PK algorithm.
  Sizing the integral batches needed.
  Building batch lookup table.
   Calculation information:
      Number of atoms:                  16
      Number of AO shells:              72
      Number of primitives:            216
      Number of atomic orbitals:       160
      Number of basis functions:       152

      Integral cutoff                 1.00e-12
      Number of threads:                 1

	Batch   1 pq = [       0,    9405] index = [             0,44231715] size =     44231715
	Batch   2 pq = [    9405,   11628] index = [      44231715,67611006] size =     23379291
  Task number: 7
  Buffer size: 11059200
  Buffer per thread: 2
  We computed 2624139 shell quartets total.
  Whereas there are 3454506 unique shell quartets.

  ==> DiskJK: Disk-Based J/K Matrices <==

    J tasked:                  Yes
    K tasked:                  Yes
    wK tasked:                  No
    Memory [MiB]:              375
    Schwarz Cutoff:          1E-12

    OpenMP threads:              1

  Minimum eigenvalue in the overlap matrix is 4.5582337952E-03.
  Using Symmetric Orthogonalization.

  SCF Guess: Superposition of Atomic Densities via on-the-fly atomic UHF.

  ==> Iterations <==

                        Total Energy        Delta E     RMS |[F,P]|

   @RHF iter SAD:  -433.46683035462593   -4.33467e+02   0.00000e+00
   @RHF iter   1:  -434.86600640891669   -1.39918e+00   5.62595e-03 DIIS
   @RHF iter   2:  -435.11547869355064   -2.49472e-01   3.47564e-03 DIIS
   @RHF iter   3:  -435.21346208825628   -9.79834e-02   5.39086e-04 DIIS
   @RHF iter   4:  -435.21745714280905   -3.99505e-03   2.16619e-04 DIIS
   @RHF iter   5:  -435.21821179765527   -7.54655e-04   5.09107e-05 DIIS
   @RHF iter   6:  -435.21826318142246   -5.13838e-05   2.53876e-05 DIIS
   @RHF iter   7:  -435.21827638886305   -1.32074e-05   8.04212e-06 DIIS
   @RHF iter   8:  -435.21827862794385   -2.23908e-06   3.04809e-06 DIIS
   @RHF iter   9:  -435.21827892634838   -2.98405e-07   1.13489e-06 DIIS
   @RHF iter  10:  -435.21827895982017   -3.34718e-08   3.05667e-07 DIIS
   @RHF iter  11:  -435.21827896189279   -2.07262e-09   1.34373e-07 DIIS
   @RHF iter  12:  -435.21827896212648   -2.33683e-10   2.86927e-08 DIIS
   @RHF iter  13:  -435.21827896215063   -2.41585e-11   7.89106e-09 DIIS
   @RHF iter  14:  -435.21827896215370   -3.06954e-12   2.86384e-09 DIIS
   @RHF iter  15:  -435.21827896215393   -2.27374e-13   1.30466e-09 DIIS
   @RHF iter  16:  -435.21827896215478   -8.52651e-13   5.43980e-10 DIIS
   @RHF iter  17:  -435.21827896215416    6.25278e-13   2.22730e-10 DIIS
   @RHF iter  18:  -435.21827896215490   -7.38964e-13   7.16150e-11 DIIS
  Energy and wave function converged.

  ==> Post-Iterations <==

    Orbital Energies [Eh]
    ---------------------

    Doubly Occupied:

       1A    -20.377662     2A    -20.239654     3A    -20.239101
       4A    -15.480008     5A    -11.221971     6A    -11.112398
       7A    -11.099928     8A    -11.043730     9A     -1.246940
      10A     -1.132857    11A     -1.108326    12A     -1.014516
      13A     -0.877706    14A     -0.786029    15A     -0.688737
      16A     -0.623828    17A     -0.530509    18A     -0.494651
      19A     -0.487035    20A     -0.444229    21A     -0.428810
      22A     -0.404543    23A     -0.400221    24A     -0.393249
      25A     -0.385985    26A     -0.326105    27A     -0.291363
      28A     -0.285217    29A     -0.280367    30A     -0.168446
      31A     -0.149881    32A     -0.139564

    Virtual:

      33A      0.263804    34A      0.313026    35A      0.318554
      36A      0.335019    37A      0.363969    38A      0.392711
      39A      0.402400    40A      0.423518    41A      0.443951
      42A      0.500666    43A      0.504575    44A      0.581134
      45A      0.583671    46A      0.662937    47A      0.710188
      48A      0.722784    49A      0.744214    50A      0.784152
      51A      0.818150    52A      0.829163    53A      0.843353
      54A      0.854564    55A      0.862813    56A      0.887658
      57A      0.953494    58A      0.969465    59A      0.979239
      60A      0.991081    61A      1.025382    62A      1.027066
      63A      1.046125    64A      1.049966    65A      1.059610
      66A      1.080467    67A      1.103246    68A      1.116183
      69A      1.131143    70A      1.149284    71A      1.165174
      72A      1.238825    73A      1.244117    74A      1.258475
      75A      1.353675    76A      1.357116    77A      1.407829
      78A      1.437348    79A      1.477512    80A      1.486884
      81A      1.521112    82A      1.543468    83A      1.562244
      84A      1.577468    85A      1.588885    86A      1.613835
      87A      1.620967    88A      1.662276    89A      1.686272
      90A      1.713259    91A      1.764334    92A      1.774881
      93A      1.801825    94A      1.839302    95A      1.849318
      96A      1.853452    97A      1.910619    98A      1.984988
      99A      1.991606   100A      2.028817   101A      2.040509
     102A      2.064825   103A      2.073775   104A      2.084127
     105A      2.094340   106A      2.108513   107A      2.147873
     108A      2.163158   109A      2.223645   110A      2.230894
     111A      2.250593   112A      2.306307   113A      2.328476
     114A      2.376816   115A      2.396409   116A      2.424163
     117A      2.445700   118A      2.514513   119A      2.556250
     120A      2.585479   121A      2.616505   122A      2.664281
     123A      2.686744   124A      2.699557   125A      2.711194
     126A      2.734309   127A      2.813835   128A      2.844343
     129A      2.888781   130A      2.920646   131A      2.925565
     132A      2.980356   133A      2.992290   134A      3.004857
     135A      3.112659   136A      3.216092   137A      3.262761
     138A      3.271018   139A      3.302207   140A      3.312987
     141A      3.380198   142A      3.410015   143A      3.635546
     144A      3.660406   145A      3.669937   146A      3.774362
     147A      3.844448   148A      4.001676   149A      4.036710
     150A      4.084355   151A      4.115879   152A      4.219996

    Final Occupation by Irrep:
              A
    DOCC [    32 ]

  @RHF Final Energy:  -435.21827896215490

   => Energetics <=

    Nuclear Repulsion Energy =            348.5235765808178598
    One-Electron Energy =               -1299.6765791766113125
    Two-Electron Energy =                 515.9347236336385549
    Total Energy =                       -435.2182789621548409

Computation Completed

Properties will be evaluated at   0.000000,   0.000000,   0.000000 [a0]

Properties computed using the SCF density matrix

  Nuclear Dipole Moment: [e a0]
     X:     4.2045      Y:    -8.0822      Z:     3.8358

  Electronic Dipole Moment: [e a0]
     X:    -4.9126      Y:     3.5162      Z:    -0.9822

  Dipole Moment: [e a0]
     X:    -0.7081      Y:    -4.5661      Z:     2.8537     Total:     5.4308

  Dipole Moment: [D]
     X:    -1.7999      Y:   -11.6057      Z:     7.2533     Total:    13.8038

*** tstop() called on ds3 at Tue Apr 28 20:46:46 2020
Module time:
	user time   =      21.09 seconds =       0.35 minutes
	system time =      10.57 seconds =       0.18 minutes
	total time  =         32 seconds =       0.53 minutes
Total time:
	user time   =      21.09 seconds =       0.35 minutes
	system time =      10.57 seconds =       0.18 minutes
	total time  =         32 seconds =       0.53 minutes
                                     G D M A

                                 by Anthony Stone

                           version 2.2.06, 22 June 2011

               Distributed Multipoles from Gaussian wavefunctions

Starting at 20:46:46 on 28 Apr 2020

Using SCF density matrix from file ./SSI/SSI-081GLU-101ASN-1-dimer.test.27778.fchk

                         Distributed Multipole Analysis

Standard DMA

Positions and radii in angstrom
Multipole moments in atomic units, ea_0^k for rank k

C          x =  2.185406  y =  0.464479  z = -1.779079 angstrom
           Maximum rank =  0   Radius =  0.650 angstrom
                   Q00  =  -0.286710

C          x =  1.112406  y =  1.472479  z = -1.352079 angstrom
           Maximum rank =  0   Radius =  0.650 angstrom
                   Q00  =   0.976940

O          x =  0.647406  y =  1.434479  z = -0.191079 angstrom
           Maximum rank =  0   Radius =  0.650 angstrom
                   Q00  =  -0.928627

O          x =  0.688406  y =  2.295479  z = -2.186079 angstrom
           Maximum rank =  0   Radius =  0.650 angstrom
                   Q00  =  -0.925052

H          x =  2.783406  y =  0.894479  z = -2.583079 angstrom
           Maximum rank =  0   Radius =  0.325 angstrom
                   Q00  =   0.048875

H          x =  1.701406  y = -0.433521  z = -2.166079 angstrom
           Maximum rank =  0   Radius =  0.325 angstrom
                   Q00  =   0.079941

H          x =  2.868886  y =  0.170223  z = -0.968979 angstrom
           Maximum rank =  0   Radius =  0.325 angstrom
                   Q00  =   0.043795

C          x =  0.141406  y = -1.222521  z =  1.987921 angstrom
           Maximum rank =  0   Radius =  0.650 angstrom
                   Q00  =  -0.251551

C          x = -1.207594  y = -1.375521  z =  1.331921 angstrom
           Maximum rank =  0   Radius =  0.650 angstrom
                   Q00  =   0.808681

O          x = -1.634594  y = -0.539521  z =  0.542921 angstrom
           Maximum rank =  0   Radius =  0.650 angstrom
                   Q00  =  -0.759784

N          x = -1.893594  y = -2.455521  z =  1.637921 angstrom
           Maximum rank =  0   Radius =  0.650 angstrom
                   Q00  =  -0.508452

H          x =  0.492406  y = -0.207521  z =  1.840921 angstrom
           Maximum rank =  0   Radius =  0.325 angstrom
                   Q00  =   0.167778

H          x =  0.830406  y = -1.877521  z =  1.461921 angstrom
           Maximum rank =  0   Radius =  0.325 angstrom
                   Q00  =   0.108960

H          x = -2.799594  y = -2.567521  z =  1.203921 angstrom
           Maximum rank =  0   Radius =  0.325 angstrom
                   Q00  =   0.197689

H          x = -1.520594  y = -3.145521  z =  2.259921 angstrom
           Maximum rank =  0   Radius =  0.325 angstrom
                   Q00  =   0.181799

H          x =  0.124302  y = -1.478365  z =  3.057621 angstrom
           Maximum rank =  0   Radius =  0.325 angstrom
                   Q00  =   0.045719

Total multipoles referred to origin at
           x =   0.000000,  y =    0.000000,  z =    0.000000 angstrom
                   Q00  =  -1.000000

Finished at 20:46:46 on 28 Apr 2020

  DMA results are available in the Python driver through the
	  variable('DMA DISTRIBUTED MULTIPOLES')
  and
	  variable('DMA TOTAL MULTIPOLES')
  commands.

    Psi4 stopped on: Tuesday, 28 April 2020 08:46PM
    Psi4 wall time for execution: 0:00:31.49

*** Psi4 exiting successfully. Buy a developer a beer!
