                               Psi4 1.3.2 release

  ==> Input File <==

--------------------------------------------------------------------------
import numpy as np
set {scf_type pk
basis cc-pvdz
d_convergence 10
gdma_switch   0
gdma_limit    0
gdma_origin   [ 0.0,  0.0,  0.0 ]
}
molecule test {
    units Angstrom
    0 1
    --
    0 1
    C                2.658903975847574    -0.885711601081341     0.474765082623835
    C                3.401903975847574     0.210288398918659    -0.284234917376165
    H                3.113903975847574    -1.855711601081341     0.315765082623835
    H                2.695903975847574    -0.672711601081341     1.541765082623835
    H                1.618903975847574    -0.914711601081341     0.161765082623835
    H                4.458903975847574     0.169288398918659    -0.020234917376165
    H                3.275023975847574     0.066207398918659    -1.367351917376165
    H                3.025353975847574     1.200442398918659     0.012088082623835
    C               -1.186096024152426     2.089288398918659     0.976765082623835
    C               -1.128096024152426    -1.409711601081341    -0.007234917376165
    C               -1.109096024152426     0.775288398918659     0.252765082623835
    C               -1.016096024152426     0.513288398918659    -1.077234917376166
    N               -1.178096024152426    -0.441711601081341     0.898765082623835
    N               -1.030096024152426    -0.857711601081341    -1.211234917376165
    H               -1.192096024152426    -2.473711601081341     0.194765082623835
    H               -1.087096024152426    -1.366711601081341    -2.092234917376165
    H               -0.991096024152426     1.245288398918659    -1.873234917376166
    H               -0.700096024152426     2.845288398918659     0.364765082623835
    H               -0.627096024152426     2.011288398918659     1.908765082623834
    H               -2.215136024152426     2.408076398918659     1.199124882623835

}
e, wfn = energy('scf', return_wfn=True)
gdma(wfn)
dmavals = variable('DMA DISTRIBUTED MULTIPOLES')
charges = np.array(dmavals)
print(charges)
np.save('SSI-063LEU-068HIE-1-dimer.npy', np.array(charges))--------------------------------------------------------------------------

*** tstart() called on ds3
*** at Tue Apr 28 12:03:01 2020

   => Loading Basis Set <=

    Name: CC-PVDZ
    Role: ORBITAL
    Keyword: BASIS
    atoms 1-2, 9-12  entry C          line   138 file /theoryfs2/ds/metcalf/miniconda2/envs/tf2gpu/share/psi4/basis/cc-pvdz.gbs
    atoms 3-8, 15-20 entry H          line    22 file /theoryfs2/ds/metcalf/miniconda2/envs/tf2gpu/share/psi4/basis/cc-pvdz.gbs
    atoms 13-14      entry N          line   168 file /theoryfs2/ds/metcalf/miniconda2/envs/tf2gpu/share/psi4/basis/cc-pvdz.gbs

         ---------------------------------------------------------
                                   SCF
               by Justin Turney, Rob Parrish, Andy Simmonett
                          and Daniel G. A. Smith
                              RHF Reference
                        1 Threads,    500 MiB Core
         ---------------------------------------------------------

  ==> Geometry <==

    Molecular point group: c1
    Full point group: C1

    Geometry (in Angstrom), charge = 0, multiplicity = 1:

       Center              X                  Y                   Z               Mass
    ------------   -----------------  -----------------  -----------------  -----------------
         C            2.658903975848    -0.885711601081     0.474765082624    12.000000000000
         C            3.401903975848     0.210288398919    -0.284234917376    12.000000000000
         H            3.113903975848    -1.855711601081     0.315765082624     1.007825032230
         H            2.695903975848    -0.672711601081     1.541765082624     1.007825032230
         H            1.618903975848    -0.914711601081     0.161765082624     1.007825032230
         H            4.458903975848     0.169288398919    -0.020234917376     1.007825032230
         H            3.275023975848     0.066207398919    -1.367351917376     1.007825032230
         H            3.025353975848     1.200442398919     0.012088082624     1.007825032230
         C           -1.186096024152     2.089288398919     0.976765082624    12.000000000000
         C           -1.128096024152    -1.409711601081    -0.007234917376    12.000000000000
         C           -1.109096024152     0.775288398919     0.252765082624    12.000000000000
         C           -1.016096024152     0.513288398919    -1.077234917376    12.000000000000
         N           -1.178096024152    -0.441711601081     0.898765082624    14.003074004430
         N           -1.030096024152    -0.857711601081    -1.211234917376    14.003074004430
         H           -1.192096024152    -2.473711601081     0.194765082624     1.007825032230
         H           -1.087096024152    -1.366711601081    -2.092234917376     1.007825032230
         H           -0.991096024152     1.245288398919    -1.873234917376     1.007825032230
         H           -0.700096024152     2.845288398919     0.364765082624     1.007825032230
         H           -0.627096024152     2.011288398919     1.908765082624     1.007825032230
         H           -2.215136024152     2.408076398919     1.199124882624     1.007825032230

  Running in c1 symmetry.

  Rotational constants: A =      0.07758  B =      0.03672  C =      0.03107 [cm^-1]
  Rotational constants: A =   2325.92753  B =   1100.86887  C =    931.60375 [MHz]
  Nuclear repulsion =  360.442443001085223

  Charge       = 0
  Multiplicity = 1
  Electrons    = 62
  Nalpha       = 31
  Nbeta        = 31

  ==> Algorithm <==

  SCF Algorithm Type is PK.
  DIIS enabled.
  MOM disabled.
  Fractional occupation disabled.
  Guess Type is SAD.
  Energy threshold   = 1.00e-06
  Density threshold  = 1.00e-10
  Integral threshold = 0.00e+00

  ==> Primary Basis <==

  Basis Set: CC-PVDZ
    Blend: CC-PVDZ
    Number of shells: 84
    Number of basis function: 172
    Number of Cartesian functions: 180
    Spherical Harmonics?: true
    Max angular momentum: 2

  ==> Pre-Iterations <==

   -------------------------------------------------------
    Irrep   Nso     Nmo     Nalpha   Nbeta   Ndocc  Nsocc
   -------------------------------------------------------
     A        172     172       0       0       0       0
   -------------------------------------------------------
    Total     172     172      31      31      31       0
   -------------------------------------------------------

  ==> Integral Setup <==

  Using integral reordering PK algorithm.
  Sizing the integral batches needed.
  Building batch lookup table.
   Calculation information:
      Number of atoms:                  20
      Number of AO shells:              84
      Number of primitives:            236
      Number of atomic orbitals:       180
      Number of basis functions:       172

      Integral cutoff                 1.00e-12
      Number of threads:                 1

	Batch   1 pq = [       0,    9405] index = [             0,44231715] size =     44231715
	Batch   2 pq = [    9405,   13301] index = [      44231715,88464951] size =     44233236
	Batch   3 pq = [   13301,   14878] index = [      88464951,110684881] size =     22219930
  Task number: 11
  Buffer size: 11059200
  Buffer per thread: 2
  We computed 5813766 shell quartets total.
  Whereas there are 6374235 unique shell quartets.

  ==> DiskJK: Disk-Based J/K Matrices <==

    J tasked:                  Yes
    K tasked:                  Yes
    wK tasked:                  No
    Memory [MiB]:              375
    Schwarz Cutoff:          1E-12

    OpenMP threads:              1

  Minimum eigenvalue in the overlap matrix is 1.2070872766E-03.
  Using Symmetric Orthogonalization.

  SCF Guess: Superposition of Atomic Densities via on-the-fly atomic UHF.

  ==> Iterations <==

                        Total Energy        Delta E     RMS |[F,P]|

   @RHF iter SAD:  -342.20636868708908   -3.42206e+02   0.00000e+00
   @RHF iter   1:  -342.88714000781124   -6.80771e-01   3.37292e-03 DIIS
   @RHF iter   2:  -343.05957421924364   -1.72434e-01   1.71940e-03 DIIS
   @RHF iter   3:  -343.10091178245523   -4.13376e-02   4.34972e-04 DIIS
   @RHF iter   4:  -343.10439424131715   -3.48246e-03   1.81489e-04 DIIS
   @RHF iter   5:  -343.10495647412938   -5.62233e-04   2.70455e-05 DIIS
   @RHF iter   6:  -343.10497780515681   -2.13310e-05   1.17161e-05 DIIS
   @RHF iter   7:  -343.10498135742262   -3.55227e-06   4.10008e-06 DIIS
   @RHF iter   8:  -343.10498212471759   -7.67295e-07   1.64307e-06 DIIS
   @RHF iter   9:  -343.10498228949058   -1.64773e-07   5.91420e-07 DIIS
   @RHF iter  10:  -343.10498230558238   -1.60918e-08   1.85828e-07 DIIS
   @RHF iter  11:  -343.10498230745793   -1.87555e-09   8.04533e-08 DIIS
   @RHF iter  12:  -343.10498230771657   -2.58638e-10   3.22385e-08 DIIS
   @RHF iter  13:  -343.10498230776312   -4.65548e-11   8.73614e-09 DIIS
   @RHF iter  14:  -343.10498230776710   -3.97904e-12   3.29116e-09 DIIS
   @RHF iter  15:  -343.10498230776659    5.11591e-13   1.33038e-09 DIIS
   @RHF iter  16:  -343.10498230776710   -5.11591e-13   4.11148e-10 DIIS
   @RHF iter  17:  -343.10498230776739   -2.84217e-13   1.20881e-10 DIIS
   @RHF iter  18:  -343.10498230776614    1.25056e-12   4.59540e-11 DIIS
  Energy and wave function converged.

  ==> Post-Iterations <==

    Orbital Energies [Eh]
    ---------------------

    Doubly Occupied:

       1A    -15.622072     2A    -15.528278     3A    -11.293279
       4A    -11.251472     5A    -11.242507     6A    -11.223925
       7A    -11.212023     8A    -11.203788     9A     -1.342543
      10A     -1.153250    11A     -1.031540    12A     -1.010043
      13A     -0.941329    14A     -0.828309    15A     -0.817194
      16A     -0.762599    17A     -0.741094    18A     -0.611926
      19A     -0.606701    20A     -0.597255    21A     -0.589593
      22A     -0.586251    23A     -0.552779    24A     -0.541122
      25A     -0.521257    26A     -0.492371    27A     -0.477096
      28A     -0.475425    29A     -0.410364    30A     -0.378716
      31A     -0.310930

    Virtual:

      32A      0.169000    33A      0.184740    34A      0.187414
      35A      0.209184    36A      0.223526    37A      0.225694
      38A      0.236762    39A      0.249992    40A      0.263600
      41A      0.269941    42A      0.279781    43A      0.294474
      44A      0.308541    45A      0.312663    46A      0.380396
      47A      0.389245    48A      0.404573    49A      0.420642
      50A      0.483108    51A      0.521122    52A      0.585500
      53A      0.593600    54A      0.605800    55A      0.613745
      56A      0.625761    57A      0.658822    58A      0.669092
      59A      0.683348    60A      0.685408    61A      0.714046
      62A      0.740580    63A      0.751431    64A      0.777676
      65A      0.810296    66A      0.825510    67A      0.840076
      68A      0.855301    69A      0.868711    70A      0.877375
      71A      0.895373    72A      0.901573    73A      0.905627
      74A      0.909346    75A      0.918062    76A      0.930180
      77A      0.940323    78A      0.959074    79A      0.965658
      80A      0.973847    81A      1.003848    82A      1.025835
      83A      1.063746    84A      1.093862    85A      1.126003
      86A      1.130812    87A      1.137318    88A      1.148364
      89A      1.149766    90A      1.185830    91A      1.247505
      92A      1.266189    93A      1.302310    94A      1.316586
      95A      1.328520    96A      1.367550    97A      1.425720
      98A      1.441299    99A      1.478128   100A      1.486122
     101A      1.495089   102A      1.528753   103A      1.570360
     104A      1.599939   105A      1.602319   106A      1.627776
     107A      1.687365   108A      1.693046   109A      1.711572
     110A      1.761055   111A      1.772023   112A      1.804349
     113A      1.829754   114A      1.858061   115A      1.874407
     116A      1.886155   117A      1.902265   118A      1.909037
     119A      1.926737   120A      1.936653   121A      1.948909
     122A      1.954854   123A      1.959194   124A      1.964060
     125A      1.967745   126A      1.971919   127A      1.978712
     128A      1.988717   129A      2.052006   130A      2.093804
     131A      2.099541   132A      2.127040   133A      2.131352
     134A      2.142305   135A      2.207351   136A      2.226910
     137A      2.230032   138A      2.292214   139A      2.308200
     140A      2.328269   141A      2.336020   142A      2.373667
     143A      2.427674   144A      2.455560   145A      2.468549
     146A      2.472476   147A      2.505309   148A      2.557200
     149A      2.576242   150A      2.596391   151A      2.606474
     152A      2.690862   153A      2.724637   154A      2.743833
     155A      2.768406   156A      2.782099   157A      2.793010
     158A      2.821235   159A      2.840031   160A      2.855884
     161A      2.861832   162A      2.874302   163A      2.892550
     164A      2.931020   165A      2.962851   166A      2.989892
     167A      3.000895   168A      3.062142   169A      3.158710
     170A      3.233691   171A      3.468609   172A      3.789626

    Final Occupation by Irrep:
              A
    DOCC [    31 ]

  @RHF Final Energy:  -343.10498230776614

   => Energetics <=

    Nuclear Repulsion Energy =            360.4424430010852234
    One-Electron Energy =               -1178.3807890405746548
    Two-Electron Energy =                 474.8333637317233524
    Total Energy =                       -343.1049823077661358

Computation Completed

Properties will be evaluated at   0.000000,   0.000000,   0.000000 [a0]

Properties computed using the SCF density matrix

  Nuclear Dipole Moment: [e a0]
     X:    10.6705      Y:     2.4996      Z:     0.3250

  Electronic Dipole Moment: [e a0]
     X:   -10.7768      Y:    -2.7987      Z:    -1.6190

  Dipole Moment: [e a0]
     X:    -0.1063      Y:    -0.2991      Z:    -1.2940     Total:     1.3323

  Dipole Moment: [D]
     X:    -0.2702      Y:    -0.7602      Z:    -3.2889     Total:     3.3864

*** tstop() called on ds3 at Tue Apr 28 12:04:14 2020
Module time:
	user time   =      42.55 seconds =       0.71 minutes
	system time =      16.48 seconds =       0.27 minutes
	total time  =         73 seconds =       1.22 minutes
Total time:
	user time   =      42.55 seconds =       0.71 minutes
	system time =      16.48 seconds =       0.27 minutes
	total time  =         73 seconds =       1.22 minutes
                                     G D M A

                                 by Anthony Stone

                           version 2.2.06, 22 June 2011

               Distributed Multipoles from Gaussian wavefunctions

Starting at 12:4:14 on 28 Apr 2020

Using SCF density matrix from file ./SSI/SSI-063LEU-068HIE-1-dimer.test.32184.fchk

                         Distributed Multipole Analysis

Standard DMA

Positions and radii in angstrom
Multipole moments in atomic units, ea_0^k for rank k

C          x =  2.658904  y = -0.885712  z =  0.474765 angstrom
           Maximum rank =  0   Radius =  0.650 angstrom
                   Q00  =  -0.243350

C          x =  3.401904  y =  0.210288  z = -0.284235 angstrom
           Maximum rank =  0   Radius =  0.650 angstrom
                   Q00  =  -0.228204

H          x =  3.113904  y = -1.855712  z =  0.315765 angstrom
           Maximum rank =  0   Radius =  0.325 angstrom
                   Q00  =   0.070110

H          x =  2.695904  y = -0.672712  z =  1.541765 angstrom
           Maximum rank =  0   Radius =  0.325 angstrom
                   Q00  =   0.079751

H          x =  1.618904  y = -0.914712  z =  0.161765 angstrom
           Maximum rank =  0   Radius =  0.325 angstrom
                   Q00  =   0.091951

H          x =  4.458904  y =  0.169288  z = -0.020235 angstrom
           Maximum rank =  0   Radius =  0.325 angstrom
                   Q00  =   0.073776

H          x =  3.275024  y =  0.066207  z = -1.367352 angstrom
           Maximum rank =  0   Radius =  0.325 angstrom
                   Q00  =   0.071736

H          x =  3.025354  y =  1.200442  z =  0.012088 angstrom
           Maximum rank =  0   Radius =  0.325 angstrom
                   Q00  =   0.078836

C          x = -1.186096  y =  2.089288  z =  0.976765 angstrom
           Maximum rank =  0   Radius =  0.650 angstrom
                   Q00  =  -0.195988

C          x = -1.128096  y = -1.409712  z = -0.007235 angstrom
           Maximum rank =  0   Radius =  0.650 angstrom
                   Q00  =   0.466983

C          x = -1.109096  y =  0.775288  z =  0.252765 angstrom
           Maximum rank =  0   Radius =  0.650 angstrom
                   Q00  =   0.226903

C          x = -1.016096  y =  0.513288  z = -1.077235 angstrom
           Maximum rank =  0   Radius =  0.650 angstrom
                   Q00  =   0.000792

N          x = -1.178096  y = -0.441712  z =  0.898765 angstrom
           Maximum rank =  0   Radius =  0.650 angstrom
                   Q00  =  -0.774681

N          x = -1.030096  y = -0.857712  z = -1.211235 angstrom
           Maximum rank =  0   Radius =  0.650 angstrom
                   Q00  =  -0.480674

H          x = -1.192096  y = -2.473712  z =  0.194765 angstrom
           Maximum rank =  0   Radius =  0.325 angstrom
                   Q00  =   0.123566

H          x = -1.087096  y = -1.366712  z = -2.092235 angstrom
           Maximum rank =  0   Radius =  0.325 angstrom
                   Q00  =   0.220649

H          x = -0.991096  y =  1.245288  z = -1.873235 angstrom
           Maximum rank =  0   Radius =  0.325 angstrom
                   Q00  =   0.102202

H          x = -0.700096  y =  2.845288  z =  0.364765 angstrom
           Maximum rank =  0   Radius =  0.325 angstrom
                   Q00  =   0.092791

H          x = -0.627096  y =  2.011288  z =  1.908765 angstrom
           Maximum rank =  0   Radius =  0.325 angstrom
                   Q00  =   0.117697

H          x = -2.215136  y =  2.408076  z =  1.199125 angstrom
           Maximum rank =  0   Radius =  0.325 angstrom
                   Q00  =   0.105151

Total multipoles referred to origin at
           x =   0.000000,  y =    0.000000,  z =    0.000000 angstrom
                   Q00  =  -0.000000

Finished at 12:4:14 on 28 Apr 2020

  DMA results are available in the Python driver through the
	  variable('DMA DISTRIBUTED MULTIPOLES')
  and
	  variable('DMA TOTAL MULTIPOLES')
  commands.

    Psi4 stopped on: Tuesday, 28 April 2020 12:04PM
    Psi4 wall time for execution: 0:01:13.04

*** Psi4 exiting successfully. Buy a developer a beer!
