                               Psi4 1.3.2 release

  ==> Input File <==

--------------------------------------------------------------------------
import numpy as np
set {scf_type pk
basis cc-pvdz
d_convergence 10
gdma_switch   0
gdma_limit    0
gdma_origin   [ 0.0,  0.0,  0.0 ]
}
molecule test {
    units Angstrom
    -1 1
    --
    -1 1
    C                0.058189965439447    -1.267044632438245    -2.077027577580180
    C                1.006189965439447    -0.173044632438245    -1.678027577580181
    C                1.821189965439447     1.481955367561755    -0.475027577580180
    C                2.150189965439447     0.253955367561755    -2.273027577580180
    N                0.828189965439447     0.608955367561755    -0.556027577580180
    N                2.639189965439447     1.282955367561755    -1.501027577580180
    H                1.940189965439447     2.228955367561755     0.300972422419820
    H               -0.188810034560553    -1.846044632438245    -1.188027577580180
    H                0.567189965439447    -1.925044632438245    -2.782027577580180
    H                3.494189965439447     1.796955367561755    -1.688027577580181
    H                2.586189965439447    -0.141044632438245    -3.180027577580181
    H               -0.868660034560553    -0.903484632438245    -2.544763577580180
    C               -1.619810034560553     0.200955367561755     3.208972422419820
    C               -1.983810034560553    -0.539044632438245     1.927972422418819
    O               -1.377810034560553    -0.271044632438245     0.873972422419820
    O               -2.912810034560553    -1.378044632438245     1.981972422419820
    H               -1.590810034560553    -0.492044632438245     4.051972422419819
    H               -2.408810034560553     0.927955367561755     3.409972422419819
    H               -0.664650034560553     0.742445367561755     3.142182422419820

}
e, wfn = energy('scf', return_wfn=True)
gdma(wfn)
dmavals = variable('DMA DISTRIBUTED MULTIPOLES')
charges = np.array(dmavals)
print(charges)
np.save('SSI-096HIE-127ASP-1-dimer.npy', np.array(charges))--------------------------------------------------------------------------

*** tstart() called on ds3
*** at Mon Apr 27 07:38:42 2020

   => Loading Basis Set <=

    Name: CC-PVDZ
    Role: ORBITAL
    Keyword: BASIS
    atoms 1-4, 13-14  entry C          line   138 file /theoryfs2/ds/metcalf/miniconda2/envs/tf2gpu/share/psi4/basis/cc-pvdz.gbs
    atoms 5-6         entry N          line   168 file /theoryfs2/ds/metcalf/miniconda2/envs/tf2gpu/share/psi4/basis/cc-pvdz.gbs
    atoms 7-12, 17-19 entry H          line    22 file /theoryfs2/ds/metcalf/miniconda2/envs/tf2gpu/share/psi4/basis/cc-pvdz.gbs
    atoms 15-16       entry O          line   198 file /theoryfs2/ds/metcalf/miniconda2/envs/tf2gpu/share/psi4/basis/cc-pvdz.gbs

         ---------------------------------------------------------
                                   SCF
               by Justin Turney, Rob Parrish, Andy Simmonett
                          and Daniel G. A. Smith
                              RHF Reference
                        1 Threads,    500 MiB Core
         ---------------------------------------------------------

  ==> Geometry <==

    Molecular point group: c1
    Full point group: C1

    Geometry (in Angstrom), charge = -1, multiplicity = 1:

       Center              X                  Y                   Z               Mass
    ------------   -----------------  -----------------  -----------------  -----------------
         C            0.058189965439    -1.267044632438    -2.077027577580    12.000000000000
         C            1.006189965439    -0.173044632438    -1.678027577580    12.000000000000
         C            1.821189965439     1.481955367562    -0.475027577580    12.000000000000
         C            2.150189965439     0.253955367562    -2.273027577580    12.000000000000
         N            0.828189965439     0.608955367562    -0.556027577580    14.003074004430
         N            2.639189965439     1.282955367562    -1.501027577580    14.003074004430
         H            1.940189965439     2.228955367562     0.300972422420     1.007825032230
         H           -0.188810034561    -1.846044632438    -1.188027577580     1.007825032230
         H            0.567189965439    -1.925044632438    -2.782027577580     1.007825032230
         H            3.494189965439     1.796955367562    -1.688027577580     1.007825032230
         H            2.586189965439    -0.141044632438    -3.180027577580     1.007825032230
         H           -0.868660034561    -0.903484632438    -2.544763577580     1.007825032230
         C           -1.619810034561     0.200955367562     3.208972422420    12.000000000000
         C           -1.983810034561    -0.539044632438     1.927972422419    12.000000000000
         O           -1.377810034561    -0.271044632438     0.873972422420    15.994914619570
         O           -2.912810034561    -1.378044632438     1.981972422420    15.994914619570
         H           -1.590810034561    -0.492044632438     4.051972422420     1.007825032230
         H           -2.408810034561     0.927955367562     3.409972422420     1.007825032230
         H           -0.664650034561     0.742445367562     3.142182422420     1.007825032230

  Running in c1 symmetry.

  Rotational constants: A =      0.09009  B =      0.01800  C =      0.01518 [cm^-1]
  Rotational constants: A =   2700.88522  B =    539.71967  C =    454.96994 [MHz]
  Nuclear repulsion =  483.895395207761851

  Charge       = -1
  Multiplicity = 1
  Electrons    = 76
  Nalpha       = 38
  Nbeta        = 38

  ==> Algorithm <==

  SCF Algorithm Type is PK.
  DIIS enabled.
  MOM disabled.
  Fractional occupation disabled.
  Guess Type is SAD.
  Energy threshold   = 1.00e-06
  Density threshold  = 1.00e-10
  Integral threshold = 0.00e+00

  ==> Primary Basis <==

  Basis Set: CC-PVDZ
    Blend: CC-PVDZ
    Number of shells: 87
    Number of basis function: 185
    Number of Cartesian functions: 195
    Spherical Harmonics?: true
    Max angular momentum: 2

  ==> Pre-Iterations <==

   -------------------------------------------------------
    Irrep   Nso     Nmo     Nalpha   Nbeta   Ndocc  Nsocc
   -------------------------------------------------------
     A        185     185       0       0       0       0
   -------------------------------------------------------
    Total     185     185      38      38      38       0
   -------------------------------------------------------

  ==> Integral Setup <==

  Using integral reordering PK algorithm.
  Sizing the integral batches needed.
  Building batch lookup table.
   Calculation information:
      Number of atoms:                  19
      Number of AO shells:              87
      Number of primitives:            265
      Number of atomic orbitals:       195
      Number of basis functions:       185

      Integral cutoff                 1.00e-12
      Number of threads:                 1

	Batch   1 pq = [       0,    9405] index = [             0,44231715] size =     44231715
	Batch   2 pq = [    9405,   13301] index = [      44231715,88464951] size =     44233236
	Batch   3 pq = [   13301,   16290] index = [      88464951,132690195] size =     44225244
	Batch   4 pq = [   16290,   17205] index = [     132690195,148014615] size =     15324420
  Task number: 14
  Buffer size: 11059200
  Buffer per thread: 2
  We computed 5410344 shell quartets total.
  Whereas there are 7328706 unique shell quartets.

  ==> DiskJK: Disk-Based J/K Matrices <==

    J tasked:                  Yes
    K tasked:                  Yes
    wK tasked:                  No
    Memory [MiB]:              375
    Schwarz Cutoff:          1E-12

    OpenMP threads:              1

  Minimum eigenvalue in the overlap matrix is 1.1989533870E-03.
  Using Symmetric Orthogonalization.

  SCF Guess: Superposition of Atomic Densities via on-the-fly atomic UHF.

  ==> Iterations <==

                        Total Energy        Delta E     RMS |[F,P]|

   @RHF iter SAD:  -489.70856416882702   -4.89709e+02   0.00000e+00
   @RHF iter   1:  -490.73806827559156   -1.02950e+00   4.42690e-03 DIIS
   @RHF iter   2:  -490.98412247508094   -2.46054e-01   2.72588e-03 DIIS
   @RHF iter   3:  -491.08293312118866   -9.88106e-02   4.64424e-04 DIIS
   @RHF iter   4:  -491.08730022581403   -4.36710e-03   1.94556e-04 DIIS
   @RHF iter   5:  -491.08809839150575   -7.98166e-04   4.39132e-05 DIIS
   @RHF iter   6:  -491.08814672991673   -4.83384e-05   1.80739e-05 DIIS
   @RHF iter   7:  -491.08815638571849   -9.65580e-06   5.41178e-06 DIIS
   @RHF iter   8:  -491.08815785228126   -1.46656e-06   2.38882e-06 DIIS
   @RHF iter   9:  -491.08815815162819   -2.99347e-07   1.10667e-06 DIIS
   @RHF iter  10:  -491.08815822187051   -7.02423e-08   3.32228e-07 DIIS
   @RHF iter  11:  -491.08815822770850   -5.83799e-09   1.44199e-07 DIIS
   @RHF iter  12:  -491.08815822868371   -9.75206e-10   5.20196e-08 DIIS
   @RHF iter  13:  -491.08815822882605   -1.42336e-10   1.59494e-08 DIIS
   @RHF iter  14:  -491.08815822883776   -1.17097e-11   4.77370e-09 DIIS
   @RHF iter  15:  -491.08815822884003   -2.27374e-12   1.99196e-09 DIIS
   @RHF iter  16:  -491.08815822884014   -1.13687e-13   7.05733e-10 DIIS
   @RHF iter  17:  -491.08815822884145   -1.30740e-12   3.22975e-10 DIIS
   @RHF iter  18:  -491.08815822884014    1.30740e-12   7.72026e-11 DIIS
  Energy and wave function converged.

  ==> Post-Iterations <==

    Orbital Energies [Eh]
    ---------------------

    Doubly Occupied:

       1A    -20.236501     2A    -20.234557     3A    -15.511276
       4A    -15.400846     5A    -11.174984     6A    -11.139790
       7A    -11.126249     8A    -11.099427     9A    -11.094605
      10A    -11.037149    11A     -1.229637    12A     -1.128702
      13A     -1.035720    14A     -1.013474    15A     -0.915061
      16A     -0.821987    17A     -0.781333    18A     -0.704590
      19A     -0.648987    20A     -0.628131    21A     -0.496128
      22A     -0.490335    23A     -0.487351    24A     -0.480099
      25A     -0.431332    26A     -0.418219    27A     -0.399354
      28A     -0.395339    29A     -0.390296    30A     -0.383968
      31A     -0.325966    32A     -0.284991    33A     -0.268893
      34A     -0.256241    35A     -0.199138    36A     -0.162973
      37A     -0.146850    38A     -0.138032

    Virtual:

      39A      0.264517    40A      0.298982    41A      0.303822
      42A      0.321701    43A      0.345171    44A      0.357775
      45A      0.366898    46A      0.395417    47A      0.409761
      48A      0.425589    49A      0.438727    50A      0.485919
      51A      0.503066    52A      0.508703    53A      0.536016
      54A      0.585970    55A      0.589077    56A      0.600746
      57A      0.702577    58A      0.718714    59A      0.724345
      60A      0.751726    61A      0.756180    62A      0.784319
      63A      0.807663    64A      0.818008    65A      0.830441
      66A      0.861659    67A      0.879315    68A      0.883482
      69A      0.899403    70A      0.931740    71A      0.955034
      72A      0.957317    73A      0.963377    74A      0.983580
      75A      1.009450    76A      1.019976    77A      1.029116
      78A      1.046499    79A      1.048694    80A      1.051675
      81A      1.061672    82A      1.081067    83A      1.088498
      84A      1.107069    85A      1.143084    86A      1.150553
      87A      1.161645    88A      1.203561    89A      1.209637
      90A      1.241131    91A      1.250138    92A      1.257171
      93A      1.297337    94A      1.357971    95A      1.364908
      96A      1.372143    97A      1.383759    98A      1.422474
      99A      1.435429   100A      1.437599   101A      1.488290
     102A      1.537600   103A      1.550743   104A      1.573296
     105A      1.582517   106A      1.601744   107A      1.621222
     108A      1.640993   109A      1.676423   110A      1.681248
     111A      1.701067   112A      1.718567   113A      1.755701
     114A      1.769263   115A      1.793384   116A      1.823109
     117A      1.827591   118A      1.856238   119A      1.871538
     120A      1.891213   121A      1.919943   122A      1.955482
     123A      1.975211   124A      2.023169   125A      2.042182
     126A      2.058100   127A      2.066103   128A      2.079076
     129A      2.084633   130A      2.092272   131A      2.101319
     132A      2.115084   133A      2.152946   134A      2.172535
     135A      2.193608   136A      2.222581   137A      2.227710
     138A      2.256513   139A      2.270870   140A      2.309621
     141A      2.330576   142A      2.343422   143A      2.359551
     144A      2.415772   145A      2.436527   146A      2.449380
     147A      2.464670   148A      2.513736   149A      2.543426
     150A      2.563076   151A      2.595812   152A      2.613398
     153A      2.671136   154A      2.677062   155A      2.722525
     156A      2.737729   157A      2.804172   158A      2.815646
     159A      2.849428   160A      2.889545   161A      2.906574
     162A      2.913022   163A      2.926448   164A      2.952831
     165A      2.977861   166A      2.981399   167A      3.002831
     168A      3.013743   169A      3.035048   170A      3.074566
     171A      3.190757   172A      3.264942   173A      3.284405
     174A      3.300693   175A      3.317041   176A      3.361271
     177A      3.384332   178A      3.597459   179A      3.660851
     180A      3.808394   181A      3.858061   182A      3.906430
     183A      4.084697   184A      4.142012   185A      4.227243

    Final Occupation by Irrep:
              A
    DOCC [    38 ]

  @RHF Final Energy:  -491.08815822884014

   => Energetics <=

    Nuclear Repulsion Energy =            483.8953952077618510
    One-Electron Energy =               -1643.7300854740531122
    Two-Electron Energy =                 668.7465320374511748
    Total Energy =                       -491.0881582288401432

Computation Completed

Properties will be evaluated at   0.000000,   0.000000,   0.000000 [a0]

Properties computed using the SCF density matrix

  Nuclear Dipole Moment: [e a0]
     X:     2.6561      Y:     0.3509      Z:    -0.4282

  Electronic Dipole Moment: [e a0]
     X:     2.0715      Y:     1.6546      Z:    -2.2713

  Dipole Moment: [e a0]
     X:     4.7276      Y:     2.0056      Z:    -2.6995     Total:     5.8017

  Dipole Moment: [D]
     X:    12.0164      Y:     5.0976      Z:    -6.8616     Total:    14.7465

*** tstop() called on ds3 at Mon Apr 27 07:40:34 2020
Module time:
	user time   =      48.34 seconds =       0.81 minutes
	system time =      23.01 seconds =       0.38 minutes
	total time  =        112 seconds =       1.87 minutes
Total time:
	user time   =      48.34 seconds =       0.81 minutes
	system time =      23.01 seconds =       0.38 minutes
	total time  =        112 seconds =       1.87 minutes
                                     G D M A

                                 by Anthony Stone

                           version 2.2.06, 22 June 2011

               Distributed Multipoles from Gaussian wavefunctions

Starting at 7:40:34 on 27 Apr 2020

Using SCF density matrix from file ./SSI/SSI-096HIE-127ASP-1-dimer.test.29330.fchk

                         Distributed Multipole Analysis

Standard DMA

Positions and radii in angstrom
Multipole moments in atomic units, ea_0^k for rank k

C          x =  0.058190  y = -1.267045  z = -2.077028 angstrom
           Maximum rank =  0   Radius =  0.650 angstrom
                   Q00  =  -0.191794

C          x =  1.006190  y = -0.173045  z = -1.678028 angstrom
           Maximum rank =  0   Radius =  0.650 angstrom
                   Q00  =   0.274121

C          x =  1.821190  y =  1.481955  z = -0.475028 angstrom
           Maximum rank =  0   Radius =  0.650 angstrom
                   Q00  =   0.431170

C          x =  2.150190  y =  0.253955  z = -2.273028 angstrom
           Maximum rank =  0   Radius =  0.650 angstrom
                   Q00  =  -0.049016

N          x =  0.828190  y =  0.608955  z = -0.556028 angstrom
           Maximum rank =  0   Radius =  0.650 angstrom
                   Q00  =  -0.719058

N          x =  2.639190  y =  1.282955  z = -1.501028 angstrom
           Maximum rank =  0   Radius =  0.650 angstrom
                   Q00  =  -0.446506

H          x =  1.940190  y =  2.228955  z =  0.300972 angstrom
           Maximum rank =  0   Radius =  0.325 angstrom
                   Q00  =   0.108151

H          x = -0.188810  y = -1.846045  z = -1.188028 angstrom
           Maximum rank =  0   Radius =  0.325 angstrom
                   Q00  =   0.158579

H          x =  0.567190  y = -1.925045  z = -2.782028 angstrom
           Maximum rank =  0   Radius =  0.325 angstrom
                   Q00  =   0.038075

H          x =  3.494190  y =  1.796955  z = -1.688028 angstrom
           Maximum rank =  0   Radius =  0.325 angstrom
                   Q00  =   0.185829

H          x =  2.586190  y = -0.141045  z = -3.180028 angstrom
           Maximum rank =  0   Radius =  0.325 angstrom
                   Q00  =   0.082079

H          x = -0.868660  y = -0.903485  z = -2.544764 angstrom
           Maximum rank =  0   Radius =  0.325 angstrom
                   Q00  =   0.113046

C          x = -1.619810  y =  0.200955  z =  3.208972 angstrom
           Maximum rank =  0   Radius =  0.650 angstrom
                   Q00  =  -0.281472

C          x = -1.983810  y = -0.539045  z =  1.927972 angstrom
           Maximum rank =  0   Radius =  0.650 angstrom
                   Q00  =   0.981780

O          x = -1.377810  y = -0.271045  z =  0.873972 angstrom
           Maximum rank =  0   Radius =  0.650 angstrom
                   Q00  =  -0.907274

O          x = -2.912810  y = -1.378045  z =  1.981972 angstrom
           Maximum rank =  0   Radius =  0.650 angstrom
                   Q00  =  -0.947441

H          x = -1.590810  y = -0.492045  z =  4.051972 angstrom
           Maximum rank =  0   Radius =  0.325 angstrom
                   Q00  =   0.052649

H          x = -2.408810  y =  0.927955  z =  3.409972 angstrom
           Maximum rank =  0   Radius =  0.325 angstrom
                   Q00  =   0.069635

H          x = -0.664650  y =  0.742445  z =  3.142182 angstrom
           Maximum rank =  0   Radius =  0.325 angstrom
                   Q00  =   0.047448

Total multipoles referred to origin at
           x =   0.000000,  y =    0.000000,  z =    0.000000 angstrom
                   Q00  =  -1.000000

Finished at 7:40:34 on 27 Apr 2020

  DMA results are available in the Python driver through the
	  variable('DMA DISTRIBUTED MULTIPOLES')
  and
	  variable('DMA TOTAL MULTIPOLES')
  commands.

    Psi4 stopped on: Monday, 27 April 2020 07:40AM
    Psi4 wall time for execution: 0:01:52.52

*** Psi4 exiting successfully. Buy a developer a beer!
