                               Psi4 1.3.2 release

  ==> Input File <==

--------------------------------------------------------------------------
import numpy as np
set {scf_type pk
basis cc-pvdz
d_convergence 10
gdma_switch   0
gdma_limit    0
gdma_origin   [ 0.0,  0.0,  0.0 ]
}
molecule test {
    units Angstrom
    0 1
    --
    0 1
    C                1.761163595714515    -1.391790128122730    -0.430733123634696
    C                2.384163595714515    -0.028790128122730    -0.136733123634696
    O                2.688163595714515    -2.332790128122730    -0.949733123634696
    H                1.356163595714515    -1.780790128122730     0.501266876365304
    H                0.932163595714515    -1.270790128122730    -1.129733123634695
    H                1.721163595714515     0.475209871877270     0.557266876365304
    H                3.108163595714515    -1.952790128122730    -1.754733123634695
    H                2.446203595714515     0.596894871877270    -1.039323123634696
    H                3.344403595714515    -0.129829128122730     0.390266876365304
    C               -2.056836404285485    -1.643790128122730     0.227266876365304
    C               -1.500836404285485    -0.239790128122730     0.259266876365304
    C               -0.844836404285485     0.249209871877270     1.382266876365304
    C               -1.615836404285485     0.587209871877270    -0.841733123634696
    C               -0.346836404285485     1.550209871877270     1.397266876365304
    C               -1.098836404285485     1.873209871877270    -0.832733123634696
    C               -0.476836404285485     2.362209871877270     0.287266876365304
    H               -1.264836404285485    -2.341790128122730     0.500266876365304
    H               -2.358836404285485    -1.872790128122730    -0.794733123634696
    H               -0.690836404285485    -0.382790128122730     2.244266876365304
    H               -2.090836404285485     0.222209871877270    -1.738733123634696
    H                0.203163595714515     1.898209871877270     2.257266876365304
    H               -1.192836404285485     2.495209871877270    -1.712733123634696
    H               -0.058836404285485     3.358209871877270     0.292266876365304
    H               -2.924816404285485    -1.796836228122730     0.885436876365304

}
e, wfn = energy('scf', return_wfn=True)
gdma(wfn)
dmavals = variable('DMA DISTRIBUTED MULTIPOLES')
charges = np.array(dmavals)
print(charges)
np.save('SSI-151SER-159PHE-1-dimer.npy', np.array(charges))--------------------------------------------------------------------------

*** tstart() called on ds3
*** at Tue Apr 28 20:43:55 2020

   => Loading Basis Set <=

    Name: CC-PVDZ
    Role: ORBITAL
    Keyword: BASIS
    atoms 1-2, 10-16 entry C          line   138 file /theoryfs2/ds/metcalf/miniconda2/envs/tf2gpu/share/psi4/basis/cc-pvdz.gbs
    atoms 3          entry O          line   198 file /theoryfs2/ds/metcalf/miniconda2/envs/tf2gpu/share/psi4/basis/cc-pvdz.gbs
    atoms 4-9, 17-24 entry H          line    22 file /theoryfs2/ds/metcalf/miniconda2/envs/tf2gpu/share/psi4/basis/cc-pvdz.gbs

         ---------------------------------------------------------
                                   SCF
               by Justin Turney, Rob Parrish, Andy Simmonett
                          and Daniel G. A. Smith
                              RHF Reference
                        1 Threads,    500 MiB Core
         ---------------------------------------------------------

  ==> Geometry <==

    Molecular point group: c1
    Full point group: C1

    Geometry (in Angstrom), charge = 0, multiplicity = 1:

       Center              X                  Y                   Z               Mass
    ------------   -----------------  -----------------  -----------------  -----------------
         C            1.761163595715    -1.391790128123    -0.430733123635    12.000000000000
         C            2.384163595715    -0.028790128123    -0.136733123635    12.000000000000
         O            2.688163595715    -2.332790128123    -0.949733123635    15.994914619570
         H            1.356163595715    -1.780790128123     0.501266876365     1.007825032230
         H            0.932163595715    -1.270790128123    -1.129733123635     1.007825032230
         H            1.721163595715     0.475209871877     0.557266876365     1.007825032230
         H            3.108163595715    -1.952790128123    -1.754733123635     1.007825032230
         H            2.446203595715     0.596894871877    -1.039323123635     1.007825032230
         H            3.344403595715    -0.129829128123     0.390266876365     1.007825032230
         C           -2.056836404285    -1.643790128123     0.227266876365    12.000000000000
         C           -1.500836404285    -0.239790128123     0.259266876365    12.000000000000
         C           -0.844836404285     0.249209871877     1.382266876365    12.000000000000
         C           -1.615836404285     0.587209871877    -0.841733123635    12.000000000000
         C           -0.346836404285     1.550209871877     1.397266876365    12.000000000000
         C           -1.098836404285     1.873209871877    -0.832733123635    12.000000000000
         C           -0.476836404285     2.362209871877     0.287266876365    12.000000000000
         H           -1.264836404285    -2.341790128123     0.500266876365     1.007825032230
         H           -2.358836404285    -1.872790128123    -0.794733123635     1.007825032230
         H           -0.690836404285    -0.382790128123     2.244266876365     1.007825032230
         H           -2.090836404285     0.222209871877    -1.738733123635     1.007825032230
         H            0.203163595715     1.898209871877     2.257266876365     1.007825032230
         H           -1.192836404285     2.495209871877    -1.712733123635     1.007825032230
         H           -0.058836404285     3.358209871877     0.292266876365     1.007825032230
         H           -2.924816404285    -1.796836228123     0.885436876365     1.007825032230

  Running in c1 symmetry.

  Rotational constants: A =      0.05372  B =      0.02695  C =      0.02227 [cm^-1]
  Rotational constants: A =   1610.34043  B =    807.91619  C =    667.51187 [MHz]
  Nuclear repulsion =  511.078259976756044

  Charge       = 0
  Multiplicity = 1
  Electrons    = 76
  Nalpha       = 38
  Nbeta        = 38

  ==> Algorithm <==

  SCF Algorithm Type is PK.
  DIIS enabled.
  MOM disabled.
  Fractional occupation disabled.
  Guess Type is SAD.
  Energy threshold   = 1.00e-06
  Density threshold  = 1.00e-10
  Integral threshold = 0.00e+00

  ==> Primary Basis <==

  Basis Set: CC-PVDZ
    Blend: CC-PVDZ
    Number of shells: 102
    Number of basis function: 210
    Number of Cartesian functions: 220
    Spherical Harmonics?: true
    Max angular momentum: 2

  ==> Pre-Iterations <==

   -------------------------------------------------------
    Irrep   Nso     Nmo     Nalpha   Nbeta   Ndocc  Nsocc
   -------------------------------------------------------
     A        210     210       0       0       0       0
   -------------------------------------------------------
    Total     210     210      38      38      38       0
   -------------------------------------------------------

  ==> Integral Setup <==

  Using integral reordering PK algorithm.
  Sizing the integral batches needed.
  Building batch lookup table.
   Calculation information:
      Number of atoms:                  24
      Number of AO shells:             102
      Number of primitives:            290
      Number of atomic orbitals:       220
      Number of basis functions:       210

      Integral cutoff                 1.00e-12
      Number of threads:                 1

	Batch   1 pq = [       0,    9405] index = [             0,44231715] size =     44231715
	Batch   2 pq = [    9405,   13301] index = [      44231715,88464951] size =     44233236
	Batch   3 pq = [   13301,   16290] index = [      88464951,132690195] size =     44225244
	Batch   4 pq = [   16290,   18810] index = [     132690195,176917455] size =     44227260
	Batch   5 pq = [   18810,   21030] index = [     176917455,221140965] size =     44223510
	Batch   6 pq = [   21030,   22155] index = [     221140965,245433090] size =     24292125
  Task number: 23
  Buffer size: 11059200
  Buffer per thread: 2
  We computed 14032457 shell quartets total.
  Whereas there are 13799631 unique shell quartets.
     1.69 percent of shell quartets recomputed by reordering.

  ==> DiskJK: Disk-Based J/K Matrices <==

    J tasked:                  Yes
    K tasked:                  Yes
    wK tasked:                  No
    Memory [MiB]:              375
    Schwarz Cutoff:          1E-12

    OpenMP threads:              1

  Minimum eigenvalue in the overlap matrix is 2.9039534979E-04.
  Using Symmetric Orthogonalization.

  SCF Guess: Superposition of Atomic Densities via on-the-fly atomic UHF.

  ==> Iterations <==

                        Total Energy        Delta E     RMS |[F,P]|

   @RHF iter SAD:  -422.72985067194145   -4.22730e+02   0.00000e+00
   @RHF iter   1:  -423.59594945467734   -8.66099e-01   2.94825e-03 DIIS
   @RHF iter   2:  -423.80525257581940   -2.09303e-01   1.30131e-03 DIIS
   @RHF iter   3:  -423.83994610622415   -3.46935e-02   2.78298e-04 DIIS
   @RHF iter   4:  -423.84272072262877   -2.77462e-03   8.15480e-05 DIIS
   @RHF iter   5:  -423.84288722488992   -1.66502e-04   1.87516e-05 DIIS
   @RHF iter   6:  -423.84289875945291   -1.15346e-05   5.03906e-06 DIIS
   @RHF iter   7:  -423.84289974545078   -9.85998e-07   1.83420e-06 DIIS
   @RHF iter   8:  -423.84289986778447   -1.22334e-07   5.60234e-07 DIIS
   @RHF iter   9:  -423.84289988591132   -1.81269e-08   2.38596e-07 DIIS
   @RHF iter  10:  -423.84289988928271   -3.37138e-09   7.87124e-08 DIIS
   @RHF iter  11:  -423.84289989003059   -7.47889e-10   3.34658e-08 DIIS
   @RHF iter  12:  -423.84289989018487   -1.54273e-10   1.44967e-08 DIIS
   @RHF iter  13:  -423.84289989021113   -2.62617e-11   6.12999e-09 DIIS
   @RHF iter  14:  -423.84289989021488   -3.75167e-12   1.97013e-09 DIIS
   @RHF iter  15:  -423.84289989021761   -2.72848e-12   6.04722e-10 DIIS
   @RHF iter  16:  -423.84289989021488    2.72848e-12   2.26673e-10 DIIS
   @RHF iter  17:  -423.84289989021693   -2.04636e-12   1.07589e-10 DIIS
   @RHF iter  18:  -423.84289989021488    2.04636e-12   4.93624e-11 DIIS
  Energy and wave function converged.

  ==> Post-Iterations <==

    Orbital Energies [Eh]
    ---------------------

    Doubly Occupied:

       1A    -20.540660     2A    -11.264883     3A    -11.244149
       4A    -11.238290     5A    -11.237358     6A    -11.234157
       7A    -11.232935     8A    -11.232550     9A    -11.232525
      10A    -11.208966    11A     -1.337535    12A     -1.163664
      13A     -1.052332    14A     -1.018465    15A     -0.997892
      16A     -0.937440    17A     -0.833423    18A     -0.830515
      19A     -0.801913    20A     -0.698804    21A     -0.665887
      22A     -0.638872    23A     -0.633104    24A     -0.612896
      25A     -0.596034    26A     -0.586340    27A     -0.578114
      28A     -0.569241    29A     -0.538572    30A     -0.530952
      31A     -0.514894    32A     -0.489451    33A     -0.488717
      34A     -0.484145    35A     -0.464750    36A     -0.423426
      37A     -0.336735    38A     -0.331110

    Virtual:

      39A      0.128839    40A      0.137603    41A      0.173988
      42A      0.193741    43A      0.197883    44A      0.206747
      45A      0.236778    46A      0.239971    47A      0.243064
      48A      0.256117    49A      0.261141    50A      0.267433
      51A      0.291872    52A      0.301152    53A      0.310271
      54A      0.345574    55A      0.362054    56A      0.372985
      57A      0.399264    58A      0.413247    59A      0.449686
      60A      0.461548    61A      0.472969    62A      0.503646
      63A      0.562876    64A      0.593755    65A      0.595307
      66A      0.609537    67A      0.643889    68A      0.666992
      69A      0.680018    70A      0.691002    71A      0.693815
      72A      0.719232    73A      0.733079    74A      0.740923
      75A      0.744814    76A      0.758127    77A      0.763985
      78A      0.777524    79A      0.785936    80A      0.796024
      81A      0.821813    82A      0.832788    83A      0.848919
      84A      0.852792    85A      0.872640    86A      0.879873
      87A      0.884971    88A      0.893838    89A      0.896749
      90A      0.908016    91A      0.916187    92A      0.925610
      93A      0.932638    94A      0.938675    95A      0.954933
      96A      0.961597    97A      0.991696    98A      1.005700
      99A      1.015713   100A      1.044640   101A      1.066227
     102A      1.123307   103A      1.130844   104A      1.135762
     105A      1.149566   106A      1.154820   107A      1.156308
     108A      1.185328   109A      1.217221   110A      1.229463
     111A      1.253732   112A      1.264142   113A      1.278921
     114A      1.303554   115A      1.305747   116A      1.321374
     117A      1.328476   118A      1.341937   119A      1.353072
     120A      1.408896   121A      1.425977   122A      1.487306
     123A      1.504126   124A      1.510631   125A      1.539740
     126A      1.550024   127A      1.592301   128A      1.618858
     129A      1.668204   130A      1.683192   131A      1.687850
     132A      1.702611   133A      1.736171   134A      1.754113
     135A      1.762731   136A      1.770465   137A      1.809668
     138A      1.827273   139A      1.866263   140A      1.876304
     141A      1.883031   142A      1.892073   143A      1.897134
     144A      1.911031   145A      1.913905   146A      1.927822
     147A      1.945605   148A      1.951105   149A      1.957770
     150A      1.962565   151A      1.968907   152A      1.979864
     153A      1.981661   154A      2.002385   155A      2.007644
     156A      2.021951   157A      2.034033   158A      2.061349
     159A      2.083751   160A      2.095612   161A      2.116853
     162A      2.137823   163A      2.150901   164A      2.160598
     165A      2.176815   166A      2.191253   167A      2.197520
     168A      2.207249   169A      2.242993   170A      2.269525
     171A      2.288256   172A      2.291925   173A      2.305784
     174A      2.322896   175A      2.341823   176A      2.352413
     177A      2.379442   178A      2.427014   179A      2.450754
     180A      2.476620   181A      2.487961   182A      2.527577
     183A      2.539020   184A      2.553215   185A      2.587903
     186A      2.632070   187A      2.735315   188A      2.749146
     189A      2.774482   190A      2.781315   191A      2.787424
     192A      2.814607   193A      2.836732   194A      2.845463
     195A      2.864756   196A      2.880114   197A      2.911551
     198A      2.948109   199A      3.011760   200A      3.035438
     201A      3.062645   202A      3.168256   203A      3.215242
     204A      3.306171   205A      3.313087   206A      3.408328
     207A      3.460964   208A      3.665681   209A      3.992013
     210A      4.083382

    Final Occupation by Irrep:
              A
    DOCC [    38 ]

  @RHF Final Energy:  -423.84289989021488

   => Energetics <=

    Nuclear Repulsion Energy =            511.0782599767560441
    One-Electron Energy =               -1588.1989225255722431
    Two-Electron Energy =                 653.2777626586013184
    Total Energy =                       -423.8428998902148805

Computation Completed

Properties will be evaluated at   0.000000,   0.000000,   0.000000 [a0]

Properties computed using the SCF density matrix

  Nuclear Dipole Moment: [e a0]
     X:     2.3843      Y:    -2.3384      Z:    -0.5124

  Electronic Dipole Moment: [e a0]
     X:    -2.6513      Y:     2.9172      Z:     0.2848

  Dipole Moment: [e a0]
     X:    -0.2670      Y:     0.5787      Z:    -0.2276     Total:     0.6768

  Dipole Moment: [D]
     X:    -0.6785      Y:     1.4710      Z:    -0.5785     Total:     1.7202

*** tstop() called on ds3 at Tue Apr 28 20:46:10 2020
Module time:
	user time   =     103.15 seconds =       1.72 minutes
	system time =      36.24 seconds =       0.60 minutes
	total time  =        135 seconds =       2.25 minutes
Total time:
	user time   =     103.15 seconds =       1.72 minutes
	system time =      36.24 seconds =       0.60 minutes
	total time  =        135 seconds =       2.25 minutes
                                     G D M A

                                 by Anthony Stone

                           version 2.2.06, 22 June 2011

               Distributed Multipoles from Gaussian wavefunctions

Starting at 20:46:10 on 28 Apr 2020

Using SCF density matrix from file ./SSI/SSI-151SER-159PHE-1-dimer.test.24746.fchk

                         Distributed Multipole Analysis

Standard DMA

Positions and radii in angstrom
Multipole moments in atomic units, ea_0^k for rank k

C          x =  1.761164  y = -1.391790  z = -0.430733 angstrom
           Maximum rank =  0   Radius =  0.650 angstrom
                   Q00  =   0.144011

C          x =  2.384164  y = -0.028790  z = -0.136733 angstrom
           Maximum rank =  0   Radius =  0.650 angstrom
                   Q00  =  -0.282852

O          x =  2.688164  y = -2.332790  z = -0.949733 angstrom
           Maximum rank =  0   Radius =  0.650 angstrom
                   Q00  =  -0.632251

H          x =  1.356164  y = -1.780790  z =  0.501267 angstrom
           Maximum rank =  0   Radius =  0.325 angstrom
                   Q00  =   0.078452

H          x =  0.932164  y = -1.270790  z = -1.129733 angstrom
           Maximum rank =  0   Radius =  0.325 angstrom
                   Q00  =   0.036777

H          x =  1.721164  y =  0.475210  z =  0.557267 angstrom
           Maximum rank =  0   Radius =  0.325 angstrom
                   Q00  =   0.115579

H          x =  3.108164  y = -1.952790  z = -1.754733 angstrom
           Maximum rank =  0   Radius =  0.325 angstrom
                   Q00  =   0.382182

H          x =  2.446204  y =  0.596895  z = -1.039323 angstrom
           Maximum rank =  0   Radius =  0.325 angstrom
                   Q00  =   0.074491

H          x =  3.344404  y = -0.129829  z =  0.390267 angstrom
           Maximum rank =  0   Radius =  0.325 angstrom
                   Q00  =   0.081979

C          x = -2.056836  y = -1.643790  z =  0.227267 angstrom
           Maximum rank =  0   Radius =  0.650 angstrom
                   Q00  =  -0.205491

C          x = -1.500836  y = -0.239790  z =  0.259267 angstrom
           Maximum rank =  0   Radius =  0.650 angstrom
                   Q00  =  -0.102026

C          x = -0.844836  y =  0.249210  z =  1.382267 angstrom
           Maximum rank =  0   Radius =  0.650 angstrom
                   Q00  =  -0.095625

C          x = -1.615836  y =  0.587210  z = -0.841733 angstrom
           Maximum rank =  0   Radius =  0.650 angstrom
                   Q00  =   0.013112

C          x = -0.346836  y =  1.550210  z =  1.397267 angstrom
           Maximum rank =  0   Radius =  0.650 angstrom
                   Q00  =  -0.069617

C          x = -1.098836  y =  1.873210  z = -0.832733 angstrom
           Maximum rank =  0   Radius =  0.650 angstrom
                   Q00  =  -0.063517

C          x = -0.476836  y =  2.362210  z =  0.287267 angstrom
           Maximum rank =  0   Radius =  0.650 angstrom
                   Q00  =  -0.083393

H          x = -1.264836  y = -2.341790  z =  0.500267 angstrom
           Maximum rank =  0   Radius =  0.325 angstrom
                   Q00  =   0.103292

H          x = -2.358836  y = -1.872790  z = -0.794733 angstrom
           Maximum rank =  0   Radius =  0.325 angstrom
                   Q00  =   0.097587

H          x = -0.690836  y = -0.382790  z =  2.244267 angstrom
           Maximum rank =  0   Radius =  0.325 angstrom
                   Q00  =   0.056158

H          x = -2.090836  y =  0.222210  z = -1.738733 angstrom
           Maximum rank =  0   Radius =  0.325 angstrom
                   Q00  =   0.056387

H          x =  0.203164  y =  1.898210  z =  2.257267 angstrom
           Maximum rank =  0   Radius =  0.325 angstrom
                   Q00  =   0.063712

H          x = -1.192836  y =  2.495210  z = -1.712733 angstrom
           Maximum rank =  0   Radius =  0.325 angstrom
                   Q00  =   0.062882

H          x = -0.058836  y =  3.358210  z =  0.292267 angstrom
           Maximum rank =  0   Radius =  0.325 angstrom
                   Q00  =   0.060535

H          x = -2.924816  y = -1.796836  z =  0.885437 angstrom
           Maximum rank =  0   Radius =  0.325 angstrom
                   Q00  =   0.107637

Total multipoles referred to origin at
           x =   0.000000,  y =    0.000000,  z =    0.000000 angstrom
                   Q00  =  -0.000000

Finished at 20:46:10 on 28 Apr 2020

  DMA results are available in the Python driver through the
	  variable('DMA DISTRIBUTED MULTIPOLES')
  and
	  variable('DMA TOTAL MULTIPOLES')
  commands.

    Psi4 stopped on: Tuesday, 28 April 2020 08:46PM
    Psi4 wall time for execution: 0:02:15.23

*** Psi4 exiting successfully. Buy a developer a beer!
