                               Psi4 1.3.2 release

  ==> Input File <==

--------------------------------------------------------------------------
import numpy as np
set {scf_type pk
basis cc-pvdz
d_convergence 10
gdma_switch   0
gdma_limit    0
gdma_origin   [ 0.0,  0.0,  0.0 ]
}
molecule test {
    units Angstrom
    0 1
    --
    0 1
    C               -0.466052567365708     1.702263871447637     2.430880823127543
    C                0.639947432634292     2.493263871447637     3.126880823127542
    H               -0.968052567365708     2.320263871447638     1.682880823127543
    H               -0.032052567365708     0.831263871447638     1.941880823127543
    H               -1.189052567365708     1.326263871447638     3.152880823127543
    H                1.058947432634292     1.866263871447638     3.912880823127542
    H                0.238367432634292     3.407513871447638     3.588270823127543
    H                1.442727432634292     2.730643871447638     2.413300823127543
    C               -1.945052567365708     0.183263871447638    -2.153119176872457
    C                0.221947432634292     0.514263871447638    -0.917119176872457
    C               -0.756052567365708    -0.349736128552362    -1.397119176872457
    C                1.308947432634292     0.019263871447638    -0.207119176872457
    C                1.418947432634292    -1.343736128552363     0.041880823127543
    C               -0.643052567365708    -1.711736128552363    -1.139119176872457
    C                0.440947432634292    -2.210736128552362    -0.427119176872457
    H                0.141947432634292     1.576263871447638    -1.103119176872457
    H                2.081947432634292     0.694263871447638     0.122880823127543
    H               -2.350052567365708     1.026263871447638    -1.597119176872457
    H               -2.710052567365707    -0.583736128552362    -2.183119176872457
    H                2.266947432634292    -1.729736128552362     0.590880823127543
    H               -1.414052567365708    -2.371736128552362    -1.494119176872457
    H                0.522947432634292    -3.272736128552362    -0.233119176872457
    H               -1.716292567365708     0.556883871447638    -3.162119176872457

}
e, wfn = energy('scf', return_wfn=True)
gdma(wfn)
dmavals = variable('DMA DISTRIBUTED MULTIPOLES')
charges = np.array(dmavals)
print(charges)
np.save('SSI-083VAL-094PHE-1-dimer.npy', np.array(charges))--------------------------------------------------------------------------

*** tstart() called on ds3
*** at Mon Apr 27 15:53:11 2020

   => Loading Basis Set <=

    Name: CC-PVDZ
    Role: ORBITAL
    Keyword: BASIS
    atoms 1-2, 9-15  entry C          line   138 file /theoryfs2/ds/metcalf/miniconda2/envs/tf2gpu/share/psi4/basis/cc-pvdz.gbs
    atoms 3-8, 16-23 entry H          line    22 file /theoryfs2/ds/metcalf/miniconda2/envs/tf2gpu/share/psi4/basis/cc-pvdz.gbs

         ---------------------------------------------------------
                                   SCF
               by Justin Turney, Rob Parrish, Andy Simmonett
                          and Daniel G. A. Smith
                              RHF Reference
                        1 Threads,    500 MiB Core
         ---------------------------------------------------------

  ==> Geometry <==

    Molecular point group: c1
    Full point group: C1

    Geometry (in Angstrom), charge = 0, multiplicity = 1:

       Center              X                  Y                   Z               Mass
    ------------   -----------------  -----------------  -----------------  -----------------
         C           -0.466052567366     1.702263871448     2.430880823128    12.000000000000
         C            0.639947432634     2.493263871448     3.126880823128    12.000000000000
         H           -0.968052567366     2.320263871448     1.682880823128     1.007825032230
         H           -0.032052567366     0.831263871448     1.941880823128     1.007825032230
         H           -1.189052567366     1.326263871448     3.152880823128     1.007825032230
         H            1.058947432634     1.866263871448     3.912880823128     1.007825032230
         H            0.238367432634     3.407513871448     3.588270823128     1.007825032230
         H            1.442727432634     2.730643871448     2.413300823128     1.007825032230
         C           -1.945052567366     0.183263871448    -2.153119176872    12.000000000000
         C            0.221947432634     0.514263871448    -0.917119176872    12.000000000000
         C           -0.756052567366    -0.349736128552    -1.397119176872    12.000000000000
         C            1.308947432634     0.019263871448    -0.207119176872    12.000000000000
         C            1.418947432634    -1.343736128552     0.041880823128    12.000000000000
         C           -0.643052567366    -1.711736128552    -1.139119176872    12.000000000000
         C            0.440947432634    -2.210736128552    -0.427119176872    12.000000000000
         H            0.141947432634     1.576263871448    -1.103119176872     1.007825032230
         H            2.081947432634     0.694263871448     0.122880823128     1.007825032230
         H           -2.350052567366     1.026263871448    -1.597119176872     1.007825032230
         H           -2.710052567366    -0.583736128552    -2.183119176872     1.007825032230
         H            2.266947432634    -1.729736128552     0.590880823128     1.007825032230
         H           -1.414052567366    -2.371736128552    -1.494119176872     1.007825032230
         H            0.522947432634    -3.272736128552    -0.233119176872     1.007825032230
         H           -1.716292567366     0.556883871448    -3.162119176872     1.007825032230

  Running in c1 symmetry.

  Rotational constants: A =      0.06796  B =      0.02786  C =      0.02266 [cm^-1]
  Rotational constants: A =   2037.48960  B =    835.09849  C =    679.42859 [MHz]
  Nuclear repulsion =  411.898826679462331

  Charge       = 0
  Multiplicity = 1
  Electrons    = 68
  Nalpha       = 34
  Nbeta        = 34

  ==> Algorithm <==

  SCF Algorithm Type is PK.
  DIIS enabled.
  MOM disabled.
  Fractional occupation disabled.
  Guess Type is SAD.
  Energy threshold   = 1.00e-06
  Density threshold  = 1.00e-10
  Integral threshold = 0.00e+00

  ==> Primary Basis <==

  Basis Set: CC-PVDZ
    Blend: CC-PVDZ
    Number of shells: 96
    Number of basis function: 196
    Number of Cartesian functions: 205
    Spherical Harmonics?: true
    Max angular momentum: 2

  ==> Pre-Iterations <==

   -------------------------------------------------------
    Irrep   Nso     Nmo     Nalpha   Nbeta   Ndocc  Nsocc
   -------------------------------------------------------
     A        196     196       0       0       0       0
   -------------------------------------------------------
    Total     196     196      34      34      34       0
   -------------------------------------------------------

  ==> Integral Setup <==

  Using integral reordering PK algorithm.
  Sizing the integral batches needed.
  Building batch lookup table.
   Calculation information:
      Number of atoms:                  23
      Number of AO shells:              96
      Number of primitives:            268
      Number of atomic orbitals:       205
      Number of basis functions:       196

      Integral cutoff                 1.00e-12
      Number of threads:                 1

	Batch   1 pq = [       0,    9405] index = [             0,44231715] size =     44231715
	Batch   2 pq = [    9405,   13301] index = [      44231715,88464951] size =     44233236
	Batch   3 pq = [   13301,   16290] index = [      88464951,132690195] size =     44225244
	Batch   4 pq = [   16290,   18810] index = [     132690195,176917455] size =     44227260
	Batch   5 pq = [   18810,   19306] index = [     176917455,186370471] size =      9453016
  Task number: 17
  Buffer size: 11059200
  Buffer per thread: 2
  We computed 9819865 shell quartets total.
  Whereas there are 10841496 unique shell quartets.

  ==> DiskJK: Disk-Based J/K Matrices <==

    J tasked:                  Yes
    K tasked:                  Yes
    wK tasked:                  No
    Memory [MiB]:              375
    Schwarz Cutoff:          1E-12

    OpenMP threads:              1

  Minimum eigenvalue in the overlap matrix is 3.0511941246E-04.
  Using Symmetric Orthogonalization.

  SCF Guess: Superposition of Atomic Densities via on-the-fly atomic UHF.

  ==> Iterations <==

                        Total Energy        Delta E     RMS |[F,P]|

   @RHF iter SAD:  -347.91637424975983   -3.47916e+02   0.00000e+00
   @RHF iter   1:  -348.76537509624796   -8.49001e-01   2.90204e-03 DIIS
   @RHF iter   2:  -348.95854621437957   -1.93171e-01   1.19908e-03 DIIS
   @RHF iter   3:  -348.98862961790655   -3.00834e-02   2.57562e-04 DIIS
   @RHF iter   4:  -348.99108038322441   -2.45077e-03   5.36297e-05 DIIS
   @RHF iter   5:  -348.99115507138492   -7.46882e-05   1.82549e-05 DIIS
   @RHF iter   6:  -348.99116317965292   -8.10827e-06   4.84483e-06 DIIS
   @RHF iter   7:  -348.99116383859894   -6.58946e-07   1.20691e-06 DIIS
   @RHF iter   8:  -348.99116388256124   -4.39623e-08   2.60334e-07 DIIS
   @RHF iter   9:  -348.99116388567774   -3.11650e-09   9.16817e-08 DIIS
   @RHF iter  10:  -348.99116388607410   -3.96369e-10   3.41606e-08 DIIS
   @RHF iter  11:  -348.99116388616386   -8.97558e-11   1.15131e-08 DIIS
   @RHF iter  12:  -348.99116388618148   -1.76215e-11   5.78830e-09 DIIS
   @RHF iter  13:  -348.99116388618791   -6.42331e-12   2.86007e-09 DIIS
   @RHF iter  14:  -348.99116388618603    1.87583e-12   7.69980e-10 DIIS
   @RHF iter  15:  -348.99116388618586    1.70530e-13   3.03112e-10 DIIS
   @RHF iter  16:  -348.99116388618518    6.82121e-13   6.54354e-11 DIIS
  Energy and wave function converged.

  ==> Post-Iterations <==

    Orbital Energies [Eh]
    ---------------------

    Doubly Occupied:

       1A    -11.239572     2A    -11.235487     3A    -11.234759
       4A    -11.231169     5A    -11.229453     6A    -11.229346
       7A    -11.228355     8A    -11.215441     9A    -11.207704
      10A     -1.154843    11A     -1.045462    12A     -1.014610
      13A     -1.011249    14A     -0.932254    15A     -0.830961
      16A     -0.826532    17A     -0.796310    18A     -0.692534
      19A     -0.633279    20A     -0.630227    21A     -0.593581
      22A     -0.592509    23A     -0.583073    24A     -0.574514
      25A     -0.562824    26A     -0.538460    27A     -0.497952
      28A     -0.490649    29A     -0.485250    30A     -0.482867
      31A     -0.479930    32A     -0.473196    33A     -0.332002
      34A     -0.322924

    Virtual:

      35A      0.133772    36A      0.141477    37A      0.169880
      38A      0.193553    39A      0.201113    40A      0.223172
      41A      0.232341    42A      0.241167    43A      0.255930
      44A      0.260314    45A      0.270314    46A      0.273255
      47A      0.292583    48A      0.296108    49A      0.311703
      50A      0.322059    51A      0.368493    52A      0.376049
      53A      0.402135    54A      0.452155    55A      0.461893
      56A      0.477803    57A      0.499237    58A      0.566470
      59A      0.582864    60A      0.597243    61A      0.604014
      62A      0.618731    63A      0.631420    64A      0.662911
      65A      0.673929    66A      0.689615    67A      0.698592
      68A      0.704569    69A      0.724066    70A      0.738231
      71A      0.745939    72A      0.748467    73A      0.760904
      74A      0.782198    75A      0.786720    76A      0.822115
      77A      0.837662    78A      0.858629    79A      0.862765
      80A      0.872212    81A      0.881126    82A      0.888837
      83A      0.893924    84A      0.897165    85A      0.899790
      86A      0.910554    87A      0.916044    88A      0.929398
      89A      0.933516    90A      0.944538    91A      0.958935
      92A      0.968425    93A      0.991481    94A      1.008469
      95A      1.046547    96A      1.048961    97A      1.119911
      98A      1.125502    99A      1.136945   100A      1.154116
     101A      1.156273   102A      1.167209   103A      1.196753
     104A      1.234477   105A      1.242458   106A      1.251384
     107A      1.264661   108A      1.277034   109A      1.304264
     110A      1.316897   111A      1.318541   112A      1.337128
     113A      1.414719   114A      1.478902   115A      1.492065
     116A      1.506734   117A      1.519991   118A      1.550351
     119A      1.580515   120A      1.603948   121A      1.677814
     122A      1.685245   123A      1.693112   124A      1.704558
     125A      1.740807   126A      1.749949   127A      1.774948
     128A      1.794381   129A      1.821133   130A      1.858432
     131A      1.869119   132A      1.878195   133A      1.890284
     134A      1.901608   135A      1.906988   136A      1.914825
     137A      1.917901   138A      1.933561   139A      1.937828
     140A      1.944809   141A      1.953140   142A      1.957899
     143A      1.964603   144A      1.971588   145A      1.977729
     146A      1.987255   147A      2.008483   148A      2.013994
     149A      2.044758   150A      2.047758   151A      2.083429
     152A      2.110825   153A      2.113708   154A      2.127015
     155A      2.136808   156A      2.156825   157A      2.171033
     158A      2.176221   159A      2.197637   160A      2.240912
     161A      2.276676   162A      2.292551   163A      2.298154
     164A      2.309098   165A      2.315804   166A      2.338972
     167A      2.355118   168A      2.452701   169A      2.462727
     170A      2.463542   171A      2.489163   172A      2.528930
     173A      2.539390   174A      2.567977   175A      2.589061
     176A      2.626085   177A      2.733302   178A      2.751425
     179A      2.769014   180A      2.778573   181A      2.784169
     182A      2.816076   183A      2.817403   184A      2.854561
     185A      2.859160   186A      2.869013   187A      2.874294
     188A      2.962174   189A      2.969908   190A      2.991326
     191A      3.025732   192A      3.057518   193A      3.166590
     194A      3.207957   195A      3.310357   196A      3.980320

    Final Occupation by Irrep:
              A
    DOCC [    34 ]

  @RHF Final Energy:  -348.99116388618518

   => Energetics <=

    Nuclear Repulsion Energy =            411.8988266794623314
    One-Electron Energy =               -1286.5214268567588078
    Two-Electron Energy =                 525.6314362911112994
    Total Energy =                       -348.9911638861851770

Computation Completed

Properties will be evaluated at   0.000000,   0.000000,   0.000000 [a0]

Properties computed using the SCF density matrix

  Nuclear Dipole Moment: [e a0]
     X:    -2.4616      Y:     7.8541      Z:     7.1558

  Electronic Dipole Moment: [e a0]
     X:     2.3575      Y:    -7.8702      Z:    -7.2585

  Dipole Moment: [e a0]
     X:    -0.1041      Y:    -0.0161      Z:    -0.1027     Total:     0.1471

  Dipole Moment: [D]
     X:    -0.2645      Y:    -0.0409      Z:    -0.2610     Total:     0.3738

*** tstop() called on ds3 at Mon Apr 27 15:54:37 2020
Module time:
	user time   =      63.23 seconds =       1.05 minutes
	system time =      25.75 seconds =       0.43 minutes
	total time  =         86 seconds =       1.43 minutes
Total time:
	user time   =      63.23 seconds =       1.05 minutes
	system time =      25.75 seconds =       0.43 minutes
	total time  =         86 seconds =       1.43 minutes
                                     G D M A

                                 by Anthony Stone

                           version 2.2.06, 22 June 2011

               Distributed Multipoles from Gaussian wavefunctions

Starting at 15:54:37 on 27 Apr 2020

Using SCF density matrix from file ./SSI/SSI-083VAL-094PHE-1-dimer.test.20500.fchk

                         Distributed Multipole Analysis

Standard DMA

Positions and radii in angstrom
Multipole moments in atomic units, ea_0^k for rank k

C          x = -0.466053  y =  1.702264  z =  2.430881 angstrom
           Maximum rank =  0   Radius =  0.650 angstrom
                   Q00  =  -0.239914

C          x =  0.639947  y =  2.493264  z =  3.126881 angstrom
           Maximum rank =  0   Radius =  0.650 angstrom
                   Q00  =  -0.230387

H          x = -0.968053  y =  2.320264  z =  1.682881 angstrom
           Maximum rank =  0   Radius =  0.325 angstrom
                   Q00  =   0.071925

H          x = -0.032053  y =  0.831264  z =  1.941881 angstrom
           Maximum rank =  0   Radius =  0.325 angstrom
                   Q00  =   0.092566

H          x = -1.189053  y =  1.326264  z =  3.152881 angstrom
           Maximum rank =  0   Radius =  0.325 angstrom
                   Q00  =   0.076207

H          x =  1.058947  y =  1.866264  z =  3.912881 angstrom
           Maximum rank =  0   Radius =  0.325 angstrom
                   Q00  =   0.076603

H          x =  0.238367  y =  3.407514  z =  3.588271 angstrom
           Maximum rank =  0   Radius =  0.325 angstrom
                   Q00  =   0.077575

H          x =  1.442727  y =  2.730644  z =  2.413301 angstrom
           Maximum rank =  0   Radius =  0.325 angstrom
                   Q00  =   0.073174

C          x = -1.945053  y =  0.183264  z = -2.153119 angstrom
           Maximum rank =  0   Radius =  0.650 angstrom
                   Q00  =  -0.199015

C          x =  0.221947  y =  0.514264  z = -0.917119 angstrom
           Maximum rank =  0   Radius =  0.650 angstrom
                   Q00  =  -0.079569

C          x = -0.756053  y = -0.349736  z = -1.397119 angstrom
           Maximum rank =  0   Radius =  0.650 angstrom
                   Q00  =  -0.102145

C          x =  1.308947  y =  0.019264  z = -0.207119 angstrom
           Maximum rank =  0   Radius =  0.650 angstrom
                   Q00  =  -0.073405

C          x =  1.418947  y = -1.343736  z =  0.041881 angstrom
           Maximum rank =  0   Radius =  0.650 angstrom
                   Q00  =  -0.079552

C          x = -0.643053  y = -1.711736  z = -1.139119 angstrom
           Maximum rank =  0   Radius =  0.650 angstrom
                   Q00  =   0.016939

C          x =  0.440947  y = -2.210736  z = -0.427119 angstrom
           Maximum rank =  0   Radius =  0.650 angstrom
                   Q00  =  -0.084983

H          x =  0.141947  y =  1.576264  z = -1.103119 angstrom
           Maximum rank =  0   Radius =  0.325 angstrom
                   Q00  =   0.055297

H          x =  2.081947  y =  0.694264  z =  0.122881 angstrom
           Maximum rank =  0   Radius =  0.325 angstrom
                   Q00  =   0.064065

H          x = -2.350053  y =  1.026264  z = -1.597119 angstrom
           Maximum rank =  0   Radius =  0.325 angstrom
                   Q00  =   0.098193

H          x = -2.710053  y = -0.583736  z = -2.183119 angstrom
           Maximum rank =  0   Radius =  0.325 angstrom
                   Q00  =   0.098824

H          x =  2.266947  y = -1.729736  z =  0.590881 angstrom
           Maximum rank =  0   Radius =  0.325 angstrom
                   Q00  =   0.060977

H          x = -1.414053  y = -2.371736  z = -1.494119 angstrom
           Maximum rank =  0   Radius =  0.325 angstrom
                   Q00  =   0.057662

H          x =  0.522947  y = -3.272736  z = -0.233119 angstrom
           Maximum rank =  0   Radius =  0.325 angstrom
                   Q00  =   0.064841

H          x = -1.716293  y =  0.556884  z = -3.162119 angstrom
           Maximum rank =  0   Radius =  0.325 angstrom
                   Q00  =   0.104122

Total multipoles referred to origin at
           x =   0.000000,  y =    0.000000,  z =    0.000000 angstrom
                   Q00  =  -0.000000

Finished at 15:54:37 on 27 Apr 2020

  DMA results are available in the Python driver through the
	  variable('DMA DISTRIBUTED MULTIPOLES')
  and
	  variable('DMA TOTAL MULTIPOLES')
  commands.

    Psi4 stopped on: Monday, 27 April 2020 03:54PM
    Psi4 wall time for execution: 0:01:26.39

*** Psi4 exiting successfully. Buy a developer a beer!
