                               Psi4 1.3.2 release

  ==> Input File <==

--------------------------------------------------------------------------
import numpy as np
set {scf_type pk
basis cc-pvdz
d_convergence 10
gdma_switch   0
gdma_limit    0
gdma_origin   [ 0.0,  0.0,  0.0 ]
}
molecule test {
    units Angstrom
    0 1
    --
    0 1
    C                0.814607900385019    -0.762679324886649    -2.243979341895744
    C                2.330607900385020    -0.836679324886649    -2.030979341895744
    H                0.296607900385019    -1.179679324886649    -1.379979341895744
    H                0.507607900385019     0.275320675113351    -2.380979341895744
    H                0.543607900385019    -1.343679324886649    -3.126979341895744
    H                2.802607900385019    -0.372679324886649    -2.888979341895744
    H                2.627387900385019    -1.895047324886649    -1.988789341895744
    H                2.619147900385019    -0.274948324886649    -1.130309341895744
    C               -0.677392099614981     0.282320675113351     1.151020658104256
    C               -2.171392099614981    -0.015679324886649     1.024020658104256
    C               -0.343392099614981     1.349320675113351     2.188020658104256
    H               -0.144392099614981    -0.633679324886649     1.403020658104256
    H               -0.304392099614981     0.628320675113351     0.187020658104256
    H               -2.692392099614981     0.919320675113351     0.811020658104256
    H               -0.719392099614981     2.315320675113351     1.848020658104256
    H               -0.798392099614981     1.107320675113351     3.147020658104256
    H               -2.567522099614981    -0.440210324886649     1.958290658104256
    H               -2.360202099614981    -0.698761324886649     0.182740658104256
    H                0.748867900385019     1.395387675113351     2.309850658104256

}
e, wfn = energy('scf', return_wfn=True)
gdma(wfn)
dmavals = variable('DMA DISTRIBUTED MULTIPOLES')
charges = np.array(dmavals)
print(charges)
np.save('SSI-012LEU-070MET-1-dimer.npy', np.array(charges))--------------------------------------------------------------------------

*** tstart() called on ds3
*** at Tue Apr 28 09:56:11 2020

   => Loading Basis Set <=

    Name: CC-PVDZ
    Role: ORBITAL
    Keyword: BASIS
    atoms 1-2, 9-11  entry C          line   138 file /theoryfs2/ds/metcalf/miniconda2/envs/tf2gpu/share/psi4/basis/cc-pvdz.gbs
    atoms 3-8, 12-19 entry H          line    22 file /theoryfs2/ds/metcalf/miniconda2/envs/tf2gpu/share/psi4/basis/cc-pvdz.gbs

         ---------------------------------------------------------
                                   SCF
               by Justin Turney, Rob Parrish, Andy Simmonett
                          and Daniel G. A. Smith
                              RHF Reference
                        1 Threads,    500 MiB Core
         ---------------------------------------------------------

  ==> Geometry <==

    Molecular point group: c1
    Full point group: C1

    Geometry (in Angstrom), charge = 0, multiplicity = 1:

       Center              X                  Y                   Z               Mass
    ------------   -----------------  -----------------  -----------------  -----------------
         C            0.814607900385    -0.762679324887    -2.243979341896    12.000000000000
         C            2.330607900385    -0.836679324887    -2.030979341896    12.000000000000
         H            0.296607900385    -1.179679324887    -1.379979341896     1.007825032230
         H            0.507607900385     0.275320675113    -2.380979341896     1.007825032230
         H            0.543607900385    -1.343679324887    -3.126979341896     1.007825032230
         H            2.802607900385    -0.372679324887    -2.888979341896     1.007825032230
         H            2.627387900385    -1.895047324887    -1.988789341896     1.007825032230
         H            2.619147900385    -0.274948324887    -1.130309341896     1.007825032230
         C           -0.677392099615     0.282320675113     1.151020658104    12.000000000000
         C           -2.171392099615    -0.015679324887     1.024020658104    12.000000000000
         C           -0.343392099615     1.349320675113     2.188020658104    12.000000000000
         H           -0.144392099615    -0.633679324887     1.403020658104     1.007825032230
         H           -0.304392099615     0.628320675113     0.187020658104     1.007825032230
         H           -2.692392099615     0.919320675113     0.811020658104     1.007825032230
         H           -0.719392099615     2.315320675113     1.848020658104     1.007825032230
         H           -0.798392099615     1.107320675113     3.147020658104     1.007825032230
         H           -2.567522099615    -0.440210324887     1.958290658104     1.007825032230
         H           -2.360202099615    -0.698761324887     0.182740658104     1.007825032230
         H            0.748867900385     1.395387675113     2.309850658104     1.007825032230

  Running in c1 symmetry.

  Rotational constants: A =      0.20699  B =      0.04029  C =      0.03523 [cm^-1]
  Rotational constants: A =   6205.51946  B =   1207.91010  C =   1056.21119 [MHz]
  Nuclear repulsion =  176.892861486725138

  Charge       = 0
  Multiplicity = 1
  Electrons    = 44
  Nalpha       = 22
  Nbeta        = 22

  ==> Algorithm <==

  SCF Algorithm Type is PK.
  DIIS enabled.
  MOM disabled.
  Fractional occupation disabled.
  Guess Type is SAD.
  Energy threshold   = 1.00e-06
  Density threshold  = 1.00e-10
  Integral threshold = 0.00e+00

  ==> Primary Basis <==

  Basis Set: CC-PVDZ
    Blend: CC-PVDZ
    Number of shells: 72
    Number of basis function: 140
    Number of Cartesian functions: 145
    Spherical Harmonics?: true
    Max angular momentum: 2

  ==> Pre-Iterations <==

   -------------------------------------------------------
    Irrep   Nso     Nmo     Nalpha   Nbeta   Ndocc  Nsocc
   -------------------------------------------------------
     A        140     140       0       0       0       0
   -------------------------------------------------------
    Total     140     140      22      22      22       0
   -------------------------------------------------------

  ==> Integral Setup <==

  Using integral reordering PK algorithm.
  Sizing the integral batches needed.
  Building batch lookup table.
   Calculation information:
      Number of atoms:                  19
      Number of AO shells:              72
      Number of primitives:            180
      Number of atomic orbitals:       145
      Number of basis functions:       140

      Integral cutoff                 1.00e-12
      Number of threads:                 1

	Batch   1 pq = [       0,    9405] index = [             0,44231715] size =     44231715
	Batch   2 pq = [    9405,    9870] index = [      44231715,48713385] size =      4481670
  Task number: 5
  Buffer size: 11059200
  Buffer per thread: 2
  We computed 2830831 shell quartets total.
  Whereas there are 3454506 unique shell quartets.

  ==> DiskJK: Disk-Based J/K Matrices <==

    J tasked:                  Yes
    K tasked:                  Yes
    wK tasked:                  No
    Memory [MiB]:              375
    Schwarz Cutoff:          1E-12

    OpenMP threads:              1

  Minimum eigenvalue in the overlap matrix is 5.4164840015E-03.
  Using Symmetric Orthogonalization.

  SCF Guess: Superposition of Atomic Densities via on-the-fly atomic UHF.

  ==> Iterations <==

                        Total Energy        Delta E     RMS |[F,P]|

   @RHF iter SAD:  -196.35554043812385   -1.96356e+02   0.00000e+00
   @RHF iter   1:  -197.31233046779957   -9.56790e-01   3.80352e-03 DIIS
   @RHF iter   2:  -197.47242286566245   -1.60092e-01   1.63918e-03 DIIS
   @RHF iter   3:  -197.50080964924751   -2.83868e-02   3.25661e-04 DIIS
   @RHF iter   4:  -197.50303659972553   -2.22695e-03   4.94450e-05 DIIS
   @RHF iter   5:  -197.50307640006011   -3.98003e-05   1.51451e-05 DIIS
   @RHF iter   6:  -197.50307990104147   -3.50098e-06   2.37668e-06 DIIS
   @RHF iter   7:  -197.50308000534426   -1.04303e-07   4.46920e-07 DIIS
   @RHF iter   8:  -197.50308000934947   -4.00522e-09   1.16260e-07 DIIS
   @RHF iter   9:  -197.50308000960803   -2.58552e-10   3.54470e-08 DIIS
   @RHF iter  10:  -197.50308000963648   -2.84501e-11   7.85646e-09 DIIS
   @RHF iter  11:  -197.50308000963767   -1.19371e-12   1.51231e-09 DIIS
   @RHF iter  12:  -197.50308000963724    4.26326e-13   2.94130e-10 DIIS
   @RHF iter  13:  -197.50308000963787   -6.25278e-13   5.82623e-11 DIIS
  Energy and wave function converged.

  ==> Post-Iterations <==

    Orbital Energies [Eh]
    ---------------------

    Doubly Occupied:

       1A    -11.219068     2A    -11.218289     3A    -11.217358
       4A    -11.216641     5A    -11.215880     6A     -1.053528
       7A     -1.018237     8A     -0.924617     9A     -0.835751
      10A     -0.795355    11A     -0.626681    12A     -0.601707
      13A     -0.599235    14A     -0.591533    15A     -0.549438
      16A     -0.533131    17A     -0.496025    18A     -0.490200
      19A     -0.485270    20A     -0.470696    21A     -0.467390
      22A     -0.466778

    Virtual:

      23A      0.168343    24A      0.195042    25A      0.211880
      26A      0.222878    27A      0.233222    28A      0.251885
      29A      0.253695    30A      0.268951    31A      0.270765
      32A      0.279798    33A      0.291905    34A      0.302768
      35A      0.315584    36A      0.338835    37A      0.386498
      38A      0.391387    39A      0.430780    40A      0.571239
      41A      0.592330    42A      0.599486    43A      0.603534
      44A      0.609638    45A      0.618799    46A      0.629539
      47A      0.654964    48A      0.677159    49A      0.768962
      50A      0.787236    51A      0.814385    52A      0.843004
      53A      0.852635    54A      0.879999    55A      0.883940
      56A      0.892602    57A      0.894915    58A      0.899701
      59A      0.902331    60A      0.904234    61A      0.910564
      62A      0.920692    63A      0.924780    64A      0.932100
      65A      0.950847    66A      0.962877    67A      0.997303
      68A      1.020706    69A      1.122773    70A      1.123166
      71A      1.132416    72A      1.149678    73A      1.220729
      74A      1.246128    75A      1.383021    76A      1.467819
      77A      1.470825    78A      1.484206    79A      1.498974
      80A      1.532134    81A      1.572322    82A      1.622028
      83A      1.667295    84A      1.677332    85A      1.684420
      86A      1.696517    87A      1.716875    88A      1.851817
      89A      1.858920    90A      1.869510    91A      1.879263
      92A      1.887782    93A      1.893172    94A      1.907767
      95A      1.925255    96A      1.935289    97A      1.943095
      98A      1.951017    99A      1.960475   100A      1.965936
     101A      1.970329   102A      1.985354   103A      1.986923
     104A      1.989731   105A      2.012062   106A      2.019798
     107A      2.043893   108A      2.101673   109A      2.121727
     110A      2.148035   111A      2.158530   112A      2.280677
     113A      2.288520   114A      2.296526   115A      2.311654
     116A      2.331634   117A      2.342298   118A      2.445076
     119A      2.480626   120A      2.496826   121A      2.528497
     122A      2.567160   123A      2.577347   124A      2.589123
     125A      2.615814   126A      2.628081   127A      2.750747
     128A      2.762568   129A      2.769534   130A      2.784424
     131A      2.795305   132A      2.810535   133A      2.840689
     134A      2.847484   135A      2.914090   136A      2.939723
     137A      2.965684   138A      2.972061   139A      2.977133
     140A      3.077129

    Final Occupation by Irrep:
              A
    DOCC [    22 ]

  @RHF Final Energy:  -197.50308000963787

   => Energetics <=

    Nuclear Repulsion Energy =            176.8928614867251383
    One-Electron Energy =                -614.6062683975127356
    Two-Electron Energy =                 240.2103269011497559
    Total Energy =                       -197.5030800096378698

Computation Completed

Properties will be evaluated at   0.000000,   0.000000,   0.000000 [a0]

Properties computed using the SCF density matrix

  Nuclear Dipole Moment: [e a0]
     X:     0.5242      Y:    -0.1853      Z:    -0.9834

  Electronic Dipole Moment: [e a0]
     X:    -0.5055      Y:     0.1784      Z:     0.9466

  Dipole Moment: [e a0]
     X:     0.0186      Y:    -0.0069      Z:    -0.0368     Total:     0.0418

  Dipole Moment: [D]
     X:     0.0474      Y:    -0.0175      Z:    -0.0936     Total:     0.1063

*** tstop() called on ds3 at Tue Apr 28 09:56:55 2020
Module time:
	user time   =      14.26 seconds =       0.24 minutes
	system time =       5.48 seconds =       0.09 minutes
	total time  =         44 seconds =       0.73 minutes
Total time:
	user time   =      14.26 seconds =       0.24 minutes
	system time =       5.48 seconds =       0.09 minutes
	total time  =         44 seconds =       0.73 minutes
                                     G D M A

                                 by Anthony Stone

                           version 2.2.06, 22 June 2011

               Distributed Multipoles from Gaussian wavefunctions

Starting at 9:56:55 on 28 Apr 2020

Using SCF density matrix from file ./SSI/SSI-012LEU-070MET-1-dimer.test.423.fchk

                         Distributed Multipole Analysis

Standard DMA

Positions and radii in angstrom
Multipole moments in atomic units, ea_0^k for rank k

C          x =  0.814608  y = -0.762679  z = -2.243979 angstrom
           Maximum rank =  0   Radius =  0.650 angstrom
                   Q00  =  -0.239957

C          x =  2.330608  y = -0.836679  z = -2.030979 angstrom
           Maximum rank =  0   Radius =  0.650 angstrom
                   Q00  =  -0.234036

H          x =  0.296608  y = -1.179679  z = -1.379979 angstrom
           Maximum rank =  0   Radius =  0.325 angstrom
                   Q00  =   0.081708

H          x =  0.507608  y =  0.275321  z = -2.380979 angstrom
           Maximum rank =  0   Radius =  0.325 angstrom
                   Q00  =   0.077686

H          x =  0.543608  y = -1.343679  z = -3.126979 angstrom
           Maximum rank =  0   Radius =  0.325 angstrom
                   Q00  =   0.078102

H          x =  2.802608  y = -0.372679  z = -2.888979 angstrom
           Maximum rank =  0   Radius =  0.325 angstrom
                   Q00  =   0.077946

H          x =  2.627388  y = -1.895047  z = -1.988789 angstrom
           Maximum rank =  0   Radius =  0.325 angstrom
                   Q00  =   0.078944

H          x =  2.619148  y = -0.274948  z = -1.130309 angstrom
           Maximum rank =  0   Radius =  0.325 angstrom
                   Q00  =   0.080199

C          x = -0.677392  y =  0.282321  z =  1.151021 angstrom
           Maximum rank =  0   Radius =  0.650 angstrom
                   Q00  =  -0.086069

C          x = -2.171392  y = -0.015679  z =  1.024021 angstrom
           Maximum rank =  0   Radius =  0.650 angstrom
                   Q00  =  -0.240330

C          x = -0.343392  y =  1.349321  z =  2.188021 angstrom
           Maximum rank =  0   Radius =  0.650 angstrom
                   Q00  =  -0.238844

H          x = -0.144392  y = -0.633679  z =  1.403021 angstrom
           Maximum rank =  0   Radius =  0.325 angstrom
                   Q00  =   0.043686

H          x = -0.304392  y =  0.628321  z =  0.187021 angstrom
           Maximum rank =  0   Radius =  0.325 angstrom
                   Q00  =   0.048403

H          x = -2.692392  y =  0.919321  z =  0.811021 angstrom
           Maximum rank =  0   Radius =  0.325 angstrom
                   Q00  =   0.073963

H          x = -0.719392  y =  2.315321  z =  1.848021 angstrom
           Maximum rank =  0   Radius =  0.325 angstrom
                   Q00  =   0.076963

H          x = -0.798392  y =  1.107321  z =  3.147021 angstrom
           Maximum rank =  0   Radius =  0.325 angstrom
                   Q00  =   0.076740

H          x = -2.567522  y = -0.440210  z =  1.958291 angstrom
           Maximum rank =  0   Radius =  0.325 angstrom
                   Q00  =   0.077985

H          x = -2.360202  y = -0.698761  z =  0.182741 angstrom
           Maximum rank =  0   Radius =  0.325 angstrom
                   Q00  =   0.084827

H          x =  0.748868  y =  1.395388  z =  2.309851 angstrom
           Maximum rank =  0   Radius =  0.325 angstrom
                   Q00  =   0.082083

Total multipoles referred to origin at
           x =   0.000000,  y =    0.000000,  z =    0.000000 angstrom
                   Q00  =  -0.000000

Finished at 9:56:55 on 28 Apr 2020

  DMA results are available in the Python driver through the
	  variable('DMA DISTRIBUTED MULTIPOLES')
  and
	  variable('DMA TOTAL MULTIPOLES')
  commands.

    Psi4 stopped on: Tuesday, 28 April 2020 09:56AM
    Psi4 wall time for execution: 0:00:44.16

*** Psi4 exiting successfully. Buy a developer a beer!
