                               Psi4 1.3.2 release

  ==> Input File <==

--------------------------------------------------------------------------
import numpy as np
set {scf_type pk
basis cc-pvdz
d_convergence 10
gdma_switch   0
gdma_limit    0
gdma_origin   [ 0.0,  0.0,  0.0 ]
}
molecule test {
    units Angstrom
    -1 1
    --
    -1 1
    C               -0.724751996811084    -2.406053804964003    -1.063419806063714
    C                0.135248003188916    -2.646053804964003     0.172580193936286
    C               -1.305751996811084    -3.693053804964003    -1.630419806063714
    O               -2.111751996811084    -4.345053804964002    -0.927419806063714
    O               -0.964751996811084    -4.051053804964003    -2.779419806063714
    H               -1.557751996811084    -1.762053804964003    -0.776419806063714
    H               -0.132751996811084    -1.877053804964003    -1.811419806063714
    H               -0.377751996811084    -3.326053804964003     0.852580193936286
    H                0.245248003188916    -1.693053804964003     0.689580193936286
    H                1.148171003188916    -3.021316804964003    -0.035180806063714
    C                2.623248003188916     3.932946195035997     2.354580193936286
    C               -0.234751996811084     1.568946195035997     0.118580193936286
    C                0.094248003188916     1.217946195035997     1.430580193936286
    C                0.350248003188916     2.692946195035998    -0.466419806063714
    C                1.012248003188916     1.995946195035997     2.151580193936286
    C                1.267248003188916     3.461946195035997     0.261580193936286
    C                1.606248003188916     3.122946195035997     1.575580193936286
    O               -1.120751996811084     0.814946195035997    -0.599419806063714
    H               -1.485751996811084     0.090946195035997    -0.082419806063714
    H               -0.356751996811084     0.350946195035997     1.890580193936286
    H                0.092248003188916     2.963946195035998    -1.480419806063714
    H                1.267248003188916     1.718946195035997     3.165580193936286
    H                1.731248003188915     4.318946195035998    -0.206419806063714
    H                2.226248003188916     4.097946195035997     3.355580193936286
    H                2.774248003188916     4.886946195035997     1.936580193936286
    H                3.607249003188916     3.449589795035997     2.444624193936286

}
e, wfn = energy('scf', return_wfn=True)
gdma(wfn)
dmavals = variable('DMA DISTRIBUTED MULTIPOLES')
charges = np.array(dmavals)
print(charges)
np.save('SSI-067GLU-139TYR-1-dimer.npy', np.array(charges))--------------------------------------------------------------------------

*** tstart() called on ds3
*** at Tue Apr 28 11:33:55 2020

   => Loading Basis Set <=

    Name: CC-PVDZ
    Role: ORBITAL
    Keyword: BASIS
    atoms 1-3, 11-17  entry C          line   138 file /theoryfs2/ds/metcalf/miniconda2/envs/tf2gpu/share/psi4/basis/cc-pvdz.gbs
    atoms 4-5, 18     entry O          line   198 file /theoryfs2/ds/metcalf/miniconda2/envs/tf2gpu/share/psi4/basis/cc-pvdz.gbs
    atoms 6-10, 19-26 entry H          line    22 file /theoryfs2/ds/metcalf/miniconda2/envs/tf2gpu/share/psi4/basis/cc-pvdz.gbs

         ---------------------------------------------------------
                                   SCF
               by Justin Turney, Rob Parrish, Andy Simmonett
                          and Daniel G. A. Smith
                              RHF Reference
                        1 Threads,    500 MiB Core
         ---------------------------------------------------------

  ==> Geometry <==

    Molecular point group: c1
    Full point group: C1

    Geometry (in Angstrom), charge = -1, multiplicity = 1:

       Center              X                  Y                   Z               Mass
    ------------   -----------------  -----------------  -----------------  -----------------
         C           -0.724751996811    -2.406053804964    -1.063419806064    12.000000000000
         C            0.135248003189    -2.646053804964     0.172580193936    12.000000000000
         C           -1.305751996811    -3.693053804964    -1.630419806064    12.000000000000
         O           -2.111751996811    -4.345053804964    -0.927419806064    15.994914619570
         O           -0.964751996811    -4.051053804964    -2.779419806064    15.994914619570
         H           -1.557751996811    -1.762053804964    -0.776419806064     1.007825032230
         H           -0.132751996811    -1.877053804964    -1.811419806064     1.007825032230
         H           -0.377751996811    -3.326053804964     0.852580193936     1.007825032230
         H            0.245248003189    -1.693053804964     0.689580193936     1.007825032230
         H            1.148171003189    -3.021316804964    -0.035180806064     1.007825032230
         C            2.623248003189     3.932946195036     2.354580193936    12.000000000000
         C           -0.234751996811     1.568946195036     0.118580193936    12.000000000000
         C            0.094248003189     1.217946195036     1.430580193936    12.000000000000
         C            0.350248003189     2.692946195036    -0.466419806064    12.000000000000
         C            1.012248003189     1.995946195036     2.151580193936    12.000000000000
         C            1.267248003189     3.461946195036     0.261580193936    12.000000000000
         C            1.606248003189     3.122946195036     1.575580193936    12.000000000000
         O           -1.120751996811     0.814946195036    -0.599419806064    15.994914619570
         H           -1.485751996811     0.090946195036    -0.082419806064     1.007825032230
         H           -0.356751996811     0.350946195036     1.890580193936     1.007825032230
         H            0.092248003189     2.963946195036    -1.480419806064     1.007825032230
         H            1.267248003189     1.718946195036     3.165580193936     1.007825032230
         H            1.731248003189     4.318946195036    -0.206419806064     1.007825032230
         H            2.226248003189     4.097946195036     3.355580193936     1.007825032230
         H            2.774248003189     4.886946195036     1.936580193936     1.007825032230
         H            3.607249003189     3.449589795036     2.444624193936     1.007825032230

  Running in c1 symmetry.

  Rotational constants: A =      0.06872  B =      0.00770  C =      0.00736 [cm^-1]
  Rotational constants: A =   2060.06378  B =    230.76395  C =    220.58610 [MHz]
  Nuclear repulsion =  710.812028834496232

  Charge       = -1
  Multiplicity = 1
  Electrons    = 98
  Nalpha       = 49
  Nbeta        = 49

  ==> Algorithm <==

  SCF Algorithm Type is PK.
  DIIS enabled.
  MOM disabled.
  Fractional occupation disabled.
  Guess Type is SAD.
  Energy threshold   = 1.00e-06
  Density threshold  = 1.00e-10
  Integral threshold = 0.00e+00

  ==> Primary Basis <==

  Basis Set: CC-PVDZ
    Blend: CC-PVDZ
    Number of shells: 117
    Number of basis function: 247
    Number of Cartesian functions: 260
    Spherical Harmonics?: true
    Max angular momentum: 2

  ==> Pre-Iterations <==

   -------------------------------------------------------
    Irrep   Nso     Nmo     Nalpha   Nbeta   Ndocc  Nsocc
   -------------------------------------------------------
     A        247     247       0       0       0       0
   -------------------------------------------------------
    Total     247     247      49      49      49       0
   -------------------------------------------------------

  ==> Integral Setup <==

  Using integral reordering PK algorithm.
  Sizing the integral batches needed.
  Building batch lookup table.
   Calculation information:
      Number of atoms:                  26
      Number of AO shells:             117
      Number of primitives:            351
      Number of atomic orbitals:       260
      Number of basis functions:       247

      Integral cutoff                 1.00e-12
      Number of threads:                 1

	Batch   1 pq = [       0,    9405] index = [             0,44231715] size =     44231715
	Batch   2 pq = [    9405,   13301] index = [      44231715,88464951] size =     44233236
	Batch   3 pq = [   13301,   16290] index = [      88464951,132690195] size =     44225244
	Batch   4 pq = [   16290,   18810] index = [     132690195,176917455] size =     44227260
	Batch   5 pq = [   18810,   21030] index = [     176917455,221140965] size =     44223510
	Batch   6 pq = [   21030,   23037] index = [     221140965,265363203] size =     44222238
	Batch   7 pq = [   23037,   24883] index = [     265363203,309594286] size =     44231083
	Batch   8 pq = [   24883,   26601] index = [     309594286,353819901] size =     44225615
	Batch   9 pq = [   26601,   28214] index = [     353819901,398029005] size =     44209104
	Batch  10 pq = [   28214,   29740] index = [     398029005,442248670] size =     44219665
	Batch  11 pq = [   29740,   30628] index = [     442248670,469052506] size =     26803836
  Task number: 43
  Buffer size: 11059200
  Buffer per thread: 2
  We computed 18405751 shell quartets total.
  Whereas there are 23829156 unique shell quartets.

  ==> DiskJK: Disk-Based J/K Matrices <==

    J tasked:                  Yes
    K tasked:                  Yes
    wK tasked:                  No
    Memory [MiB]:              375
    Schwarz Cutoff:          1E-12

    OpenMP threads:              1

  Minimum eigenvalue in the overlap matrix is 3.2971748581E-04.
  Using Symmetric Orthogonalization.

  SCF Guess: Superposition of Atomic Densities via on-the-fly atomic UHF.

  ==> Iterations <==

                        Total Energy        Delta E     RMS |[F,P]|

   @RHF iter SAD:  -609.15474905846770   -6.09155e+02   0.00000e+00
   @RHF iter   1:  -610.51921222170381   -1.36446e+00   3.41115e-03 DIIS
   @RHF iter   2:  -610.81898057186947   -2.99768e-01   1.79303e-03 DIIS
   @RHF iter   3:  -610.89388243353392   -7.49019e-02   3.22265e-04 DIIS
   @RHF iter   4:  -610.89807354173035   -4.19111e-03   1.23329e-04 DIIS
   @RHF iter   5:  -610.89865929152211   -5.85750e-04   1.95147e-05 DIIS
   @RHF iter   6:  -610.89868166742156   -2.23759e-05   7.38336e-06 DIIS
   @RHF iter   7:  -610.89868437053781   -2.70312e-06   2.71148e-06 DIIS
   @RHF iter   8:  -610.89868483359999   -4.63062e-07   9.34745e-07 DIIS
   @RHF iter   9:  -610.89868491006007   -7.64601e-08   3.66630e-07 DIIS
   @RHF iter  10:  -610.89868492756648   -1.75064e-08   1.59106e-07 DIIS
   @RHF iter  11:  -610.89868493176027   -4.19379e-09   6.78631e-08 DIIS
   @RHF iter  12:  -610.89868493252266   -7.62384e-10   3.41028e-08 DIIS
   @RHF iter  13:  -610.89868493266044   -1.37788e-10   1.06850e-08 DIIS
   @RHF iter  14:  -610.89868493266920   -8.75389e-12   3.62394e-09 DIIS
   @RHF iter  15:  -610.89868493266943   -2.27374e-13   1.72696e-09 DIIS
   @RHF iter  16:  -610.89868493267477   -5.34328e-12   6.63792e-10 DIIS
   @RHF iter  17:  -610.89868493267431    4.54747e-13   2.92957e-10 DIIS
   @RHF iter  18:  -610.89868493266954    4.77485e-12   1.08180e-10 DIIS
   @RHF iter  19:  -610.89868493267329   -3.75167e-12   4.27827e-11 DIIS
  Energy and wave function converged.

  ==> Post-Iterations <==

    Orbital Energies [Eh]
    ---------------------

    Doubly Occupied:

       1A    -20.495613     2A    -20.256313     3A    -20.255745
       4A    -11.224959     5A    -11.170559     6A    -11.170036
       7A    -11.166343     8A    -11.164966     9A    -11.160080
      10A    -11.159002    11A    -11.111527    12A    -11.082631
      13A    -11.057578    14A     -1.311174    15A     -1.146184
      16A     -1.075655    17A     -1.031841    18A     -0.966839
      19A     -0.942604    20A     -0.880534    21A     -0.861686
      22A     -0.770276    23A     -0.728768    24A     -0.709556
      25A     -0.652613    26A     -0.593410    27A     -0.569167
      28A     -0.535328    29A     -0.516487    30A     -0.513567
      31A     -0.511271    32A     -0.498320    33A     -0.491917
      34A     -0.462348    35A     -0.457131    36A     -0.433505
      37A     -0.427278    38A     -0.411904    39A     -0.392211
      40A     -0.389845    41A     -0.373222    42A     -0.363752
      43A     -0.326126    44A     -0.300979    45A     -0.264866
      46A     -0.227934    47A     -0.179401    48A     -0.168619
      49A     -0.156905

    Virtual:

      50A      0.199058    51A      0.226155    52A      0.247974
      53A      0.271854    54A      0.280154    55A      0.297878
      56A      0.320788    57A      0.331004    58A      0.343764
      59A      0.352546    60A      0.360569    61A      0.399455
      62A      0.411254    63A      0.415865    64A      0.429768
      65A      0.442570    66A      0.451658    67A      0.481632
      68A      0.510157    69A      0.536386    70A      0.542286
      71A      0.561466    72A      0.565707    73A      0.578031
      74A      0.625329    75A      0.677960    76A      0.693190
      77A      0.694654    78A      0.713664    79A      0.724391
      80A      0.732585    81A      0.756887    82A      0.762253
      83A      0.769018    84A      0.779492    85A      0.782176
      86A      0.801933    87A      0.810100    88A      0.818963
      89A      0.830892    90A      0.847628    91A      0.852228
      92A      0.865071    93A      0.878412    94A      0.914981
      95A      0.924450    96A      0.931920    97A      0.943315
      98A      0.952287    99A      0.961206   100A      0.968091
     101A      0.978478   102A      0.988717   103A      0.991685
     104A      1.004340   105A      1.012434   106A      1.014207
     107A      1.023067   108A      1.033235   109A      1.048305
     110A      1.061077   111A      1.064292   112A      1.075427
     113A      1.077228   114A      1.086010   115A      1.117087
     116A      1.124910   117A      1.137556   118A      1.162738
     119A      1.192948   120A      1.213674   121A      1.220491
     122A      1.224359   123A      1.269522   124A      1.289774
     125A      1.295435   126A      1.307688   127A      1.314094
     128A      1.323494   129A      1.344970   130A      1.357454
     131A      1.380457   132A      1.390673   133A      1.395758
     134A      1.421397   135A      1.437249   136A      1.453193
     137A      1.472280   138A      1.514468   139A      1.531562
     140A      1.550339   141A      1.561596   142A      1.578323
     143A      1.594671   144A      1.603667   145A      1.618916
     146A      1.626744   147A      1.652423   148A      1.676424
     149A      1.683879   150A      1.691263   151A      1.716732
     152A      1.747405   153A      1.766269   154A      1.772905
     155A      1.799683   156A      1.813387   157A      1.827164
     158A      1.836829   159A      1.847604   160A      1.872785
     161A      1.875069   162A      1.938752   163A      1.955251
     164A      1.967273   165A      1.973013   166A      1.979614
     167A      1.989822   168A      2.006155   169A      2.016654
     170A      2.022542   171A      2.027324   172A      2.039261
     173A      2.051802   174A      2.063168   175A      2.077165
     176A      2.089592   177A      2.097826   178A      2.112717
     179A      2.119208   180A      2.122872   181A      2.131440
     182A      2.135037   183A      2.146567   184A      2.154856
     185A      2.184327   186A      2.197442   187A      2.221441
     188A      2.228671   189A      2.250319   190A      2.272441
     191A      2.291618   192A      2.308242   193A      2.329704
     194A      2.341720   195A      2.359108   196A      2.374340
     197A      2.385831   198A      2.416265   199A      2.451038
     200A      2.463783   201A      2.480212   202A      2.494756
     203A      2.533306   204A      2.539780   205A      2.552669
     206A      2.573753   207A      2.592586   208A      2.622234
     209A      2.637072   210A      2.667649   211A      2.680037
     212A      2.714027   213A      2.736025   214A      2.759564
     215A      2.810850   216A      2.828712   217A      2.843023
     218A      2.868420   219A      2.877914   220A      2.911430
     221A      2.919532   222A      2.976470   223A      2.994544
     224A      3.013867   225A      3.034526   226A      3.065919
     227A      3.073706   228A      3.117252   229A      3.148844
     230A      3.200299   231A      3.249212   232A      3.287566
     233A      3.301018   234A      3.336660   235A      3.342665
     236A      3.368239   237A      3.443199   238A      3.640390
     239A      3.650943   240A      3.750214   241A      3.796215
     242A      3.828658   243A      4.035771   244A      4.054895
     245A      4.086296   246A      4.199311   247A      4.293666

    Final Occupation by Irrep:
              A
    DOCC [    49 ]

  @RHF Final Energy:  -610.89868493267329

   => Energetics <=

    Nuclear Repulsion Energy =            710.8120288344962319
    One-Electron Energy =               -2257.1842775168056505
    Two-Electron Energy =                 935.4735637496361278
    Total Energy =                       -610.8986849326732909

Computation Completed

Properties will be evaluated at   0.000000,   0.000000,   0.000000 [a0]

Properties computed using the SCF density matrix

  Nuclear Dipole Moment: [e a0]
     X:     8.5869      Y:     9.5245      Z:     9.3004

  Electronic Dipole Moment: [e a0]
     X:    -5.8274      Y:    -2.0875      Z:    -5.5272

  Dipole Moment: [e a0]
     X:     2.7595      Y:     7.4371      Z:     3.7732     Total:     8.7842

  Dipole Moment: [D]
     X:     7.0139      Y:    18.9031      Z:     9.5905     Total:    22.3271

*** tstop() called on ds3 at Tue Apr 28 11:37:42 2020
Module time:
	user time   =     152.87 seconds =       2.55 minutes
	system time =      74.78 seconds =       1.25 minutes
	total time  =        227 seconds =       3.78 minutes
Total time:
	user time   =     152.87 seconds =       2.55 minutes
	system time =      74.78 seconds =       1.25 minutes
	total time  =        227 seconds =       3.78 minutes
                                     G D M A

                                 by Anthony Stone

                           version 2.2.06, 22 June 2011

               Distributed Multipoles from Gaussian wavefunctions

Starting at 11:37:42 on 28 Apr 2020

Using SCF density matrix from file ./SSI/SSI-067GLU-139TYR-1-dimer.test.29801.fchk

                         Distributed Multipole Analysis

Standard DMA

Positions and radii in angstrom
Multipole moments in atomic units, ea_0^k for rank k

C          x = -0.724752  y = -2.406054  z = -1.063420 angstrom
           Maximum rank =  0   Radius =  0.650 angstrom
                   Q00  =  -0.060633

C          x =  0.135248  y = -2.646054  z =  0.172580 angstrom
           Maximum rank =  0   Radius =  0.650 angstrom
                   Q00  =  -0.232624

C          x = -1.305752  y = -3.693054  z = -1.630420 angstrom
           Maximum rank =  0   Radius =  0.650 angstrom
                   Q00  =   0.983328

O          x = -2.111752  y = -4.345054  z = -0.927420 angstrom
           Maximum rank =  0   Radius =  0.650 angstrom
                   Q00  =  -0.957694

O          x = -0.964752  y = -4.051054  z = -2.779420 angstrom
           Maximum rank =  0   Radius =  0.650 angstrom
                   Q00  =  -0.920419

H          x = -1.557752  y = -1.762054  z = -0.776420 angstrom
           Maximum rank =  0   Radius =  0.325 angstrom
                   Q00  =  -0.009216

H          x = -0.132752  y = -1.877054  z = -1.811420 angstrom
           Maximum rank =  0   Radius =  0.325 angstrom
                   Q00  =   0.036509

H          x = -0.377752  y = -3.326054  z =  0.852580 angstrom
           Maximum rank =  0   Radius =  0.325 angstrom
                   Q00  =   0.081121

H          x =  0.245248  y = -1.693054  z =  0.689580 angstrom
           Maximum rank =  0   Radius =  0.325 angstrom
                   Q00  =   0.008367

H          x =  1.148171  y = -3.021317  z = -0.035181 angstrom
           Maximum rank =  0   Radius =  0.325 angstrom
                   Q00  =   0.065490

C          x =  2.623248  y =  3.932946  z =  2.354580 angstrom
           Maximum rank =  0   Radius =  0.650 angstrom
                   Q00  =  -0.209470

C          x = -0.234752  y =  1.568946  z =  0.118580 angstrom
           Maximum rank =  0   Radius =  0.650 angstrom
                   Q00  =   0.354389

C          x =  0.094248  y =  1.217946  z =  1.430580 angstrom
           Maximum rank =  0   Radius =  0.650 angstrom
                   Q00  =  -0.190808

C          x =  0.350248  y =  2.692946  z = -0.466420 angstrom
           Maximum rank =  0   Radius =  0.650 angstrom
                   Q00  =  -0.115125

C          x =  1.012248  y =  1.995946  z =  2.151580 angstrom
           Maximum rank =  0   Radius =  0.650 angstrom
                   Q00  =  -0.029525

C          x =  1.267248  y =  3.461946  z =  0.261580 angstrom
           Maximum rank =  0   Radius =  0.650 angstrom
                   Q00  =   0.033679

C          x =  1.606248  y =  3.122946  z =  1.575580 angstrom
           Maximum rank =  0   Radius =  0.650 angstrom
                   Q00  =  -0.138207

O          x = -1.120752  y =  0.814946  z = -0.599420 angstrom
           Maximum rank =  0   Radius =  0.650 angstrom
                   Q00  =  -0.681035

H          x = -1.485752  y =  0.090946  z = -0.082420 angstrom
           Maximum rank =  0   Radius =  0.325 angstrom
                   Q00  =   0.425434

H          x = -0.356752  y =  0.350946  z =  1.890580 angstrom
           Maximum rank =  0   Radius =  0.325 angstrom
                   Q00  =   0.086289

H          x =  0.092248  y =  2.963946  z = -1.480420 angstrom
           Maximum rank =  0   Radius =  0.325 angstrom
                   Q00  =   0.077803

H          x =  1.267248  y =  1.718946  z =  3.165580 angstrom
           Maximum rank =  0   Radius =  0.325 angstrom
                   Q00  =   0.060313

H          x =  1.731248  y =  4.318946  z = -0.206420 angstrom
           Maximum rank =  0   Radius =  0.325 angstrom
                   Q00  =   0.053311

H          x =  2.226248  y =  4.097946  z =  3.355580 angstrom
           Maximum rank =  0   Radius =  0.325 angstrom
                   Q00  =   0.086679

H          x =  2.774248  y =  4.886946  z =  1.936580 angstrom
           Maximum rank =  0   Radius =  0.325 angstrom
                   Q00  =   0.099080

H          x =  3.607249  y =  3.449590  z =  2.444624 angstrom
           Maximum rank =  0   Radius =  0.325 angstrom
                   Q00  =   0.092965

Total multipoles referred to origin at
           x =   0.000000,  y =    0.000000,  z =    0.000000 angstrom
                   Q00  =  -1.000000

Finished at 11:37:42 on 28 Apr 2020

  DMA results are available in the Python driver through the
	  variable('DMA DISTRIBUTED MULTIPOLES')
  and
	  variable('DMA TOTAL MULTIPOLES')
  commands.

    Psi4 stopped on: Tuesday, 28 April 2020 11:37AM
    Psi4 wall time for execution: 0:03:47.54

*** Psi4 exiting successfully. Buy a developer a beer!
