                               Psi4 1.3.2 release

  ==> Input File <==

--------------------------------------------------------------------------
import numpy as np
set {scf_type pk
basis cc-pvdz
d_convergence 10
gdma_switch   0
gdma_limit    0
gdma_origin   [ 0.0,  0.0,  0.0 ]
}
molecule test {
    units Angstrom
    0 1
    --
    0 1
    C                1.325876147833629     1.728156809706194    -1.070018566015152
    C                2.842876147833629     1.899156809706194    -0.892018566015152
    C                0.496876147833629     2.443156809706194    -0.029018566015152
    O                0.984876147833629     2.825156809706194     1.034981433984848
    N               -0.786123852166371     2.612156809706194    -0.330018566015152
    H                1.027876147833629     2.077156809706194    -2.057018566015152
    H                1.074876147833629     0.668156809706194    -1.005018566015152
    H                3.127876147833629     1.655156809706194     0.133981433984848
    H               -1.392123852166371     3.035156809706195     0.350981433984848
    H               -1.164123852166371     2.245156809706195    -1.189018566015152
    H                3.169581147833628     2.919166809706194    -1.142693566015152
    H                3.340144147833628     1.183436809706194    -1.563186566015152
    C                1.044876147833629    -0.633843190293806     2.402981433984848
    C                0.188876147833629    -1.106843190293806     1.241981433984848
    C               -1.065123852166371    -0.531843190293806     1.005981433984848
    C                0.626876147833629    -2.138843190293806     0.395981433984848
    C               -1.870123852166371    -0.968843190293806    -0.043018566015152
    C               -0.185123852166371    -2.595843190293806    -0.657018566015152
    C               -1.437123852166371    -2.004843190293806    -0.868018566015152
    O               -2.241123852166371    -2.436843190293805    -1.884018566015152
    H                0.831876147833629     0.418156809706194     2.600981433984848
    H                2.094876147833629    -0.704843190293806     2.117981433984848
    H               -1.418123852166371     0.267156809706194     1.644981433984848
    H                1.595876147833629    -2.594843190293806     0.560981433984848
    H               -2.829123852166372    -0.509843190293806    -0.209018566015152
    H                0.146876147833629    -3.396843190293805    -1.303018566015152
    H               -3.071123852166372    -1.948843190293806    -1.922018566015152
    H                0.883298147833629    -1.209683190293806     3.326181433984848

}
e, wfn = energy('scf', return_wfn=True)
gdma(wfn)
dmavals = variable('DMA DISTRIBUTED MULTIPOLES')
charges = np.array(dmavals)
print(charges)
np.save('SSI-024ASN-034TYR-1-dimer.npy', np.array(charges))--------------------------------------------------------------------------

*** tstart() called on ds3
*** at Mon Apr 27 19:07:57 2020

   => Loading Basis Set <=

    Name: CC-PVDZ
    Role: ORBITAL
    Keyword: BASIS
    atoms 1-3, 13-19  entry C          line   138 file /theoryfs2/ds/metcalf/miniconda2/envs/tf2gpu/share/psi4/basis/cc-pvdz.gbs
    atoms 4, 20       entry O          line   198 file /theoryfs2/ds/metcalf/miniconda2/envs/tf2gpu/share/psi4/basis/cc-pvdz.gbs
    atoms 5           entry N          line   168 file /theoryfs2/ds/metcalf/miniconda2/envs/tf2gpu/share/psi4/basis/cc-pvdz.gbs
    atoms 6-12, 21-28 entry H          line    22 file /theoryfs2/ds/metcalf/miniconda2/envs/tf2gpu/share/psi4/basis/cc-pvdz.gbs

         ---------------------------------------------------------
                                   SCF
               by Justin Turney, Rob Parrish, Andy Simmonett
                          and Daniel G. A. Smith
                              RHF Reference
                        1 Threads,    500 MiB Core
         ---------------------------------------------------------

  ==> Geometry <==

    Molecular point group: c1
    Full point group: C1

    Geometry (in Angstrom), charge = 0, multiplicity = 1:

       Center              X                  Y                   Z               Mass
    ------------   -----------------  -----------------  -----------------  -----------------
         C            1.325876147834     1.728156809706    -1.070018566015    12.000000000000
         C            2.842876147834     1.899156809706    -0.892018566015    12.000000000000
         C            0.496876147834     2.443156809706    -0.029018566015    12.000000000000
         O            0.984876147834     2.825156809706     1.034981433985    15.994914619570
         N           -0.786123852166     2.612156809706    -0.330018566015    14.003074004430
         H            1.027876147834     2.077156809706    -2.057018566015     1.007825032230
         H            1.074876147834     0.668156809706    -1.005018566015     1.007825032230
         H            3.127876147834     1.655156809706     0.133981433985     1.007825032230
         H           -1.392123852166     3.035156809706     0.350981433985     1.007825032230
         H           -1.164123852166     2.245156809706    -1.189018566015     1.007825032230
         H            3.169581147834     2.919166809706    -1.142693566015     1.007825032230
         H            3.340144147834     1.183436809706    -1.563186566015     1.007825032230
         C            1.044876147834    -0.633843190294     2.402981433985    12.000000000000
         C            0.188876147834    -1.106843190294     1.241981433985    12.000000000000
         C           -1.065123852166    -0.531843190294     1.005981433985    12.000000000000
         C            0.626876147834    -2.138843190294     0.395981433985    12.000000000000
         C           -1.870123852166    -0.968843190294    -0.043018566015    12.000000000000
         C           -0.185123852166    -2.595843190294    -0.657018566015    12.000000000000
         C           -1.437123852166    -2.004843190294    -0.868018566015    12.000000000000
         O           -2.241123852166    -2.436843190294    -1.884018566015    15.994914619570
         H            0.831876147834     0.418156809706     2.600981433985     1.007825032230
         H            2.094876147834    -0.704843190294     2.117981433985     1.007825032230
         H           -1.418123852166     0.267156809706     1.644981433985     1.007825032230
         H            1.595876147834    -2.594843190294     0.560981433985     1.007825032230
         H           -2.829123852166    -0.509843190294    -0.209018566015     1.007825032230
         H            0.146876147834    -3.396843190294    -1.303018566015     1.007825032230
         H           -3.071123852166    -1.948843190294    -1.922018566015     1.007825032230
         H            0.883298147834    -1.209683190294     3.326181433985     1.007825032230

  Running in c1 symmetry.

  Rotational constants: A =      0.03424  B =      0.01544  C =      0.01411 [cm^-1]
  Rotational constants: A =   1026.41449  B =    462.87413  C =    422.88072 [MHz]
  Nuclear repulsion =  782.991371894133522

  Charge       = 0
  Multiplicity = 1
  Electrons    = 98
  Nalpha       = 49
  Nbeta        = 49

  ==> Algorithm <==

  SCF Algorithm Type is PK.
  DIIS enabled.
  MOM disabled.
  Fractional occupation disabled.
  Guess Type is SAD.
  Energy threshold   = 1.00e-06
  Density threshold  = 1.00e-10
  Integral threshold = 0.00e+00

  ==> Primary Basis <==

  Basis Set: CC-PVDZ
    Blend: CC-PVDZ
    Number of shells: 123
    Number of basis function: 257
    Number of Cartesian functions: 270
    Spherical Harmonics?: true
    Max angular momentum: 2

  ==> Pre-Iterations <==

   -------------------------------------------------------
    Irrep   Nso     Nmo     Nalpha   Nbeta   Ndocc  Nsocc
   -------------------------------------------------------
     A        257     257       0       0       0       0
   -------------------------------------------------------
    Total     257     257      49      49      49       0
   -------------------------------------------------------

  ==> Integral Setup <==

  Using integral reordering PK algorithm.
  Sizing the integral batches needed.
  Building batch lookup table.
   Calculation information:
      Number of atoms:                  28
      Number of AO shells:             123
      Number of primitives:            361
      Number of atomic orbitals:       270
      Number of basis functions:       257

      Integral cutoff                 1.00e-12
      Number of threads:                 1

	Batch   1 pq = [       0,    9405] index = [             0,44231715] size =     44231715
	Batch   2 pq = [    9405,   13301] index = [      44231715,88464951] size =     44233236
	Batch   3 pq = [   13301,   16290] index = [      88464951,132690195] size =     44225244
	Batch   4 pq = [   16290,   18810] index = [     132690195,176917455] size =     44227260
	Batch   5 pq = [   18810,   21030] index = [     176917455,221140965] size =     44223510
	Batch   6 pq = [   21030,   23037] index = [     221140965,265363203] size =     44222238
	Batch   7 pq = [   23037,   24883] index = [     265363203,309594286] size =     44231083
	Batch   8 pq = [   24883,   26601] index = [     309594286,353819901] size =     44225615
	Batch   9 pq = [   26601,   28214] index = [     353819901,398029005] size =     44209104
	Batch  10 pq = [   28214,   29740] index = [     398029005,442248670] size =     44219665
	Batch  11 pq = [   29740,   31191] index = [     442248670,486454836] size =     44206166
	Batch  12 pq = [   31191,   32578] index = [     486454836,530679331] size =     44224495
	Batch  13 pq = [   32578,   33153] index = [     530679331,549577281] size =     18897950
  Task number: 50
  Buffer size: 11059200
  Buffer per thread: 2
  We computed 31680735 shell quartets total.
  Whereas there are 29081751 unique shell quartets.
     8.94 percent of shell quartets recomputed by reordering.

  ==> DiskJK: Disk-Based J/K Matrices <==

    J tasked:                  Yes
    K tasked:                  Yes
    wK tasked:                  No
    Memory [MiB]:              375
    Schwarz Cutoff:          1E-12

    OpenMP threads:              1

  Minimum eigenvalue in the overlap matrix is 3.3372772047E-04.
  Using Symmetric Orthogonalization.

  SCF Guess: Superposition of Atomic Densities via on-the-fly atomic UHF.

  ==> Iterations <==

                        Total Energy        Delta E     RMS |[F,P]|

   @RHF iter SAD:  -590.17244038820297   -5.90172e+02   0.00000e+00
   @RHF iter   1:  -591.30961588572450   -1.13718e+00   3.00184e-03 DIIS
   @RHF iter   2:  -591.58643776551958   -2.76822e-01   1.55519e-03 DIIS
   @RHF iter   3:  -591.65085196939049   -6.44142e-02   3.69603e-04 DIIS
   @RHF iter   4:  -591.65605965220345   -5.20768e-03   1.50175e-04 DIIS
   @RHF iter   5:  -591.65693017995625   -8.70528e-04   2.20102e-05 DIIS
   @RHF iter   6:  -591.65697067510416   -4.04951e-05   9.56081e-06 DIIS
   @RHF iter   7:  -591.65697668955374   -6.01445e-06   3.76027e-06 DIIS
   @RHF iter   8:  -591.65697797541748   -1.28586e-06   1.52241e-06 DIIS
   @RHF iter   9:  -591.65697817716693   -2.01749e-07   5.62302e-07 DIIS
   @RHF iter  10:  -591.65697820542948   -2.82625e-08   2.18861e-07 DIIS
   @RHF iter  11:  -591.65697821003357   -4.60409e-09   7.39114e-08 DIIS
   @RHF iter  12:  -591.65697821069296   -6.59384e-10   3.62770e-08 DIIS
   @RHF iter  13:  -591.65697821086746   -1.74509e-10   1.56153e-08 DIIS
   @RHF iter  14:  -591.65697821091567   -4.82032e-11   6.36667e-09 DIIS
   @RHF iter  15:  -591.65697821091601   -3.41061e-13   2.29795e-09 DIIS
   @RHF iter  16:  -591.65697821092363   -7.61702e-12   6.78849e-10 DIIS
   @RHF iter  17:  -591.65697821091931    4.32010e-12   2.57803e-10 DIIS
   @RHF iter  18:  -591.65697821092124   -1.93268e-12   9.23539e-11 DIIS
  Energy and wave function converged.

  ==> Post-Iterations <==

    Orbital Energies [Eh]
    ---------------------

    Doubly Occupied:

       1A    -20.588325     2A    -20.504985     3A    -15.585786
       4A    -11.342526     5A    -11.306288     6A    -11.245067
       7A    -11.242383     8A    -11.237933     9A    -11.237793
      10A    -11.237372    11A    -11.233674    12A    -11.221045
      13A    -11.220302    14A     -1.403682    15A     -1.365620
      16A     -1.215386    17A     -1.150081    18A     -1.040339
      19A     -1.034762    20A     -1.019927    21A     -0.923014
      22A     -0.886869    23A     -0.846596    24A     -0.804133
      25A     -0.780963    26A     -0.735277    27A     -0.719421
      28A     -0.669651    29A     -0.662090    30A     -0.643980
      31A     -0.630143    32A     -0.607121    33A     -0.590340
      34A     -0.588886    35A     -0.584563    36A     -0.568658
      37A     -0.563703    38A     -0.549160    39A     -0.522478
      40A     -0.511866    41A     -0.501981    42A     -0.496472
      43A     -0.489291    44A     -0.485790    45A     -0.467177
      46A     -0.408101    47A     -0.403771    48A     -0.341528
      49A     -0.304458

    Virtual:

      50A      0.123100    51A      0.149252    52A      0.160717
      53A      0.175286    54A      0.187986    55A      0.196710
      56A      0.209836    57A      0.217416    58A      0.231042
      59A      0.242835    60A      0.254686    61A      0.259504
      62A      0.261836    63A      0.273622    64A      0.283227
      65A      0.306170    66A      0.310844    67A      0.321496
      68A      0.368886    69A      0.371507    70A      0.391014
      71A      0.420461    72A      0.423381    73A      0.453338
      74A      0.472551    75A      0.480768    76A      0.499973
      77A      0.511920    78A      0.547179    79A      0.592322
      80A      0.608260    81A      0.622144    82A      0.639110
      83A      0.642862    84A      0.655859    85A      0.666252
      86A      0.681892    87A      0.688824    88A      0.694291
      89A      0.711528    90A      0.717619    91A      0.725107
      92A      0.735094    93A      0.743887    94A      0.761306
      95A      0.767992    96A      0.781100    97A      0.782802
      98A      0.797421    99A      0.828286   100A      0.836702
     101A      0.848804   102A      0.855128   103A      0.859855
     104A      0.877839   105A      0.881005   106A      0.886324
     107A      0.888562   108A      0.896583   109A      0.903514
     110A      0.909503   111A      0.918138   112A      0.922446
     113A      0.932539   114A      0.938822   115A      0.951763
     116A      0.962574   117A      0.968257   118A      0.989435
     119A      0.994507   120A      1.014325   121A      1.035353
     122A      1.044240   123A      1.074197   124A      1.077422
     125A      1.102100   126A      1.126902   127A      1.134491
     128A      1.138403   129A      1.144625   130A      1.147667
     131A      1.179165   132A      1.200963   133A      1.239181
     134A      1.244450   135A      1.259574   136A      1.276501
     137A      1.284984   138A      1.303099   139A      1.305050
     140A      1.325920   141A      1.342197   142A      1.344871
     143A      1.354106   144A      1.358471   145A      1.383639
     146A      1.409275   147A      1.410172   148A      1.448138
     149A      1.474160   150A      1.476922   151A      1.498349
     152A      1.504999   153A      1.535089   154A      1.563152
     155A      1.614322   156A      1.619560   157A      1.634880
     158A      1.671517   159A      1.689211   160A      1.695855
     161A      1.709896   162A      1.713156   163A      1.737001
     164A      1.749965   165A      1.779152   166A      1.783667
     167A      1.802132   168A      1.812995   169A      1.819607
     170A      1.857934   171A      1.866701   172A      1.876440
     173A      1.891024   174A      1.895128   175A      1.898144
     176A      1.905929   177A      1.913095   178A      1.923650
     179A      1.928556   180A      1.940691   181A      1.944907
     182A      1.958787   183A      1.965620   184A      1.974079
     185A      1.983890   186A      1.992673   187A      2.006370
     188A      2.021910   189A      2.026332   190A      2.033222
     191A      2.054017   192A      2.058759   193A      2.066867
     194A      2.076855   195A      2.077456   196A      2.123756
     197A      2.138053   198A      2.145961   199A      2.153139
     200A      2.196588   201A      2.223550   202A      2.224806
     203A      2.233226   204A      2.256804   205A      2.272615
     206A      2.298107   207A      2.304428   208A      2.324097
     209A      2.342110   210A      2.359543   211A      2.372386
     212A      2.425391   213A      2.444571   214A      2.452099
     215A      2.464713   216A      2.476433   217A      2.485607
     218A      2.525133   219A      2.537310   220A      2.550255
     221A      2.553890   222A      2.595444   223A      2.599866
     224A      2.611373   225A      2.630094   226A      2.640371
     227A      2.745802   228A      2.755155   229A      2.766536
     230A      2.790821   231A      2.795230   232A      2.799015
     233A      2.840678   234A      2.857477   235A      2.892385
     236A      2.904447   237A      2.910586   238A      2.951909
     239A      2.962861   240A      2.998724   241A      3.025152
     242A      3.071697   243A      3.097477   244A      3.111053
     245A      3.149902   246A      3.242283   247A      3.265759
     248A      3.305902   249A      3.339007   250A      3.521019
     251A      3.537291   252A      3.562376   253A      3.654375
     254A      3.866353   255A      3.908869   256A      3.960271
     257A      4.178078

    Final Occupation by Irrep:
              A
    DOCC [    49 ]

  @RHF Final Energy:  -591.65697821092124

   => Energetics <=

    Nuclear Repulsion Energy =            782.9913718941335219
    One-Electron Energy =               -2359.8551844495245859
    Two-Electron Energy =                 985.2068343444699394
    Total Energy =                       -591.6569782109212383

Computation Completed

Properties will be evaluated at   0.000000,   0.000000,   0.000000 [a0]

Properties computed using the SCF density matrix

  Nuclear Dipole Moment: [e a0]
     X:     6.9509      Y:     3.8415      Z:     0.3204

  Electronic Dipole Moment: [e a0]
     X:    -8.0980      Y:    -3.8811      Z:    -1.2243

  Dipole Moment: [e a0]
     X:    -1.1471      Y:    -0.0396      Z:    -0.9039     Total:     1.4610

  Dipole Moment: [D]
     X:    -2.9155      Y:    -0.1007      Z:    -2.2976     Total:     3.7134

*** tstop() called on ds3 at Mon Apr 27 19:16:59 2020
Module time:
	user time   =     247.71 seconds =       4.13 minutes
	system time =      85.66 seconds =       1.43 minutes
	total time  =        542 seconds =       9.03 minutes
Total time:
	user time   =     247.71 seconds =       4.13 minutes
	system time =      85.66 seconds =       1.43 minutes
	total time  =        542 seconds =       9.03 minutes
                                     G D M A

                                 by Anthony Stone

                           version 2.2.06, 22 June 2011

               Distributed Multipoles from Gaussian wavefunctions

Starting at 19:16:59 on 27 Apr 2020

Using SCF density matrix from file ./SSI/SSI-024ASN-034TYR-1-dimer.test.3707.fchk

                         Distributed Multipole Analysis

Standard DMA

Positions and radii in angstrom
Multipole moments in atomic units, ea_0^k for rank k

C          x =  1.325876  y =  1.728157  z = -1.070019 angstrom
           Maximum rank =  0   Radius =  0.650 angstrom
                   Q00  =  -0.174950

C          x =  2.842876  y =  1.899157  z = -0.892019 angstrom
           Maximum rank =  0   Radius =  0.650 angstrom
                   Q00  =  -0.220136

C          x =  0.496876  y =  2.443157  z = -0.029019 angstrom
           Maximum rank =  0   Radius =  0.650 angstrom
                   Q00  =   0.881023

O          x =  0.984876  y =  2.825157  z =  1.034981 angstrom
           Maximum rank =  0   Radius =  0.650 angstrom
                   Q00  =  -0.821501

N          x = -0.786124  y =  2.612157  z = -0.330019 angstrom
           Maximum rank =  0   Radius =  0.650 angstrom
                   Q00  =  -0.548722

H          x =  1.027876  y =  2.077157  z = -2.057019 angstrom
           Maximum rank =  0   Radius =  0.325 angstrom
                   Q00  =   0.064270

H          x =  1.074876  y =  0.668157  z = -1.005019 angstrom
           Maximum rank =  0   Radius =  0.325 angstrom
                   Q00  =   0.120442

H          x =  3.127876  y =  1.655157  z =  0.133981 angstrom
           Maximum rank =  0   Radius =  0.325 angstrom
                   Q00  =   0.113433

H          x = -1.392124  y =  3.035157  z =  0.350981 angstrom
           Maximum rank =  0   Radius =  0.325 angstrom
                   Q00  =   0.211366

H          x = -1.164124  y =  2.245157  z = -1.189019 angstrom
           Maximum rank =  0   Radius =  0.325 angstrom
                   Q00  =   0.207515

H          x =  3.169581  y =  2.919167  z = -1.142694 angstrom
           Maximum rank =  0   Radius =  0.325 angstrom
                   Q00  =   0.090308

H          x =  3.340144  y =  1.183437  z = -1.563187 angstrom
           Maximum rank =  0   Radius =  0.325 angstrom
                   Q00  =   0.076939

C          x =  1.044876  y = -0.633843  z =  2.402981 angstrom
           Maximum rank =  0   Radius =  0.650 angstrom
                   Q00  =  -0.194281

C          x =  0.188876  y = -1.106843  z =  1.241981 angstrom
           Maximum rank =  0   Radius =  0.650 angstrom
                   Q00  =  -0.142847

C          x = -1.065124  y = -0.531843  z =  1.005981 angstrom
           Maximum rank =  0   Radius =  0.650 angstrom
                   Q00  =   0.038051

C          x =  0.626876  y = -2.138843  z =  0.395981 angstrom
           Maximum rank =  0   Radius =  0.650 angstrom
                   Q00  =  -0.060036

C          x = -1.870124  y = -0.968843  z = -0.043019 angstrom
           Maximum rank =  0   Radius =  0.650 angstrom
                   Q00  =  -0.189486

C          x = -0.185124  y = -2.595843  z = -0.657019 angstrom
           Maximum rank =  0   Radius =  0.650 angstrom
                   Q00  =  -0.127772

C          x = -1.437124  y = -2.004843  z = -0.868019 angstrom
           Maximum rank =  0   Radius =  0.650 angstrom
                   Q00  =   0.347771

O          x = -2.241124  y = -2.436843  z = -1.884019 angstrom
           Maximum rank =  0   Radius =  0.650 angstrom
                   Q00  =  -0.674165

H          x =  0.831876  y =  0.418157  z =  2.600981 angstrom
           Maximum rank =  0   Radius =  0.325 angstrom
                   Q00  =   0.115015

H          x =  2.094876  y = -0.704843  z =  2.117981 angstrom
           Maximum rank =  0   Radius =  0.325 angstrom
                   Q00  =   0.096335

H          x = -1.418124  y =  0.267157  z =  1.644981 angstrom
           Maximum rank =  0   Radius =  0.325 angstrom
                   Q00  =   0.073119

H          x =  1.595876  y = -2.594843  z =  0.560981 angstrom
           Maximum rank =  0   Radius =  0.325 angstrom
                   Q00  =   0.068838

H          x = -2.829124  y = -0.509843  z = -0.209019 angstrom
           Maximum rank =  0   Radius =  0.325 angstrom
                   Q00  =   0.064515

H          x =  0.146876  y = -3.396843  z = -1.303019 angstrom
           Maximum rank =  0   Radius =  0.325 angstrom
                   Q00  =   0.083417

H          x = -3.071124  y = -1.948843  z = -1.922019 angstrom
           Maximum rank =  0   Radius =  0.325 angstrom
                   Q00  =   0.405678

H          x =  0.883298  y = -1.209683  z =  3.326181 angstrom
           Maximum rank =  0   Radius =  0.325 angstrom
                   Q00  =   0.095860

Total multipoles referred to origin at
           x =   0.000000,  y =    0.000000,  z =    0.000000 angstrom
                   Q00  =  -0.000000

Finished at 19:16:59 on 27 Apr 2020

  DMA results are available in the Python driver through the
	  variable('DMA DISTRIBUTED MULTIPOLES')
  and
	  variable('DMA TOTAL MULTIPOLES')
  commands.

    Psi4 stopped on: Monday, 27 April 2020 07:16PM
    Psi4 wall time for execution: 0:09:02.65

*** Psi4 exiting successfully. Buy a developer a beer!
