                               Psi4 1.3.2 release

  ==> Input File <==

--------------------------------------------------------------------------
import numpy as np
set {scf_type pk
basis cc-pvdz
d_convergence 10
gdma_switch   0
gdma_limit    0
gdma_origin   [ 0.0,  0.0,  0.0 ]
}
molecule test {
    units Angstrom
    0 1
    --
    0 1
    C                3.006174393093355     1.896328058329136     0.061410201057834
    C                3.647174393093355     2.239328058329136    -1.275589798942166
    H                3.529174393093355     2.396328058329136     0.878410201057834
    H                1.977174393093355     2.242328058329136     0.024410201057834
    H                2.997174393093355     0.820328058329136     0.233410201057834
    H                3.142174393093355     1.664328058329136    -2.051589798942166
    H                4.718784393093356     1.991037058329136    -1.272709798942166
    H                3.501184393093355     3.304628058329136    -1.507589798942166
    C               -0.120825606906645     0.619328058329136     1.613410201057834
    C                0.055174393093355    -0.193671941670864     2.917410201057834
    C               -0.717825606906645    -0.155671941670864     0.458410201057834
    C               -2.095825606906645    -0.361671941670864     0.376410201057834
    C                0.095174393093355    -0.668671941670864    -0.546589798942166
    C               -2.650825606906645    -1.086671941670864    -0.678589798942166
    C               -0.462825606906645    -1.386671941670864    -1.609589798942166
    C               -1.833825606906645    -1.591671941670864    -1.673589798942166
    H               -0.771825606906645     1.470328058329136     1.819410201057834
    H                0.833174393093355     1.030328058329136     1.321410201057834
    H                0.285174393093355     0.525328058329136     3.706410201057834
    H               -2.747825606906645     0.043328058329136     1.131410201057834
    H                1.165174393093355    -0.522671941670864    -0.507589798942166
    H               -3.713825606906645    -1.261671941670864    -0.721589798942166
    H                0.176174393093355    -1.783671941670864    -2.386589798942166
    H               -2.261825606906645    -2.150671941670864    -2.495589798942166
    H                0.901814393093355    -0.893688941670864     2.861020201057834
    H               -0.893265606906645    -0.663541941670864     3.216880201057834

}
e, wfn = energy('scf', return_wfn=True)
gdma(wfn)
dmavals = variable('DMA DISTRIBUTED MULTIPOLES')
charges = np.array(dmavals)
print(charges)
np.save('SSI-013VAL-016PHE-1-dimer.npy', np.array(charges))--------------------------------------------------------------------------

*** tstart() called on ds3
*** at Mon Apr 27 12:17:03 2020

   => Loading Basis Set <=

    Name: CC-PVDZ
    Role: ORBITAL
    Keyword: BASIS
    atoms 1-2, 9-16  entry C          line   138 file /theoryfs2/ds/metcalf/miniconda2/envs/tf2gpu/share/psi4/basis/cc-pvdz.gbs
    atoms 3-8, 17-26 entry H          line    22 file /theoryfs2/ds/metcalf/miniconda2/envs/tf2gpu/share/psi4/basis/cc-pvdz.gbs

         ---------------------------------------------------------
                                   SCF
               by Justin Turney, Rob Parrish, Andy Simmonett
                          and Daniel G. A. Smith
                              RHF Reference
                        1 Threads,    500 MiB Core
         ---------------------------------------------------------

  ==> Geometry <==

    Molecular point group: c1
    Full point group: C1

    Geometry (in Angstrom), charge = 0, multiplicity = 1:

       Center              X                  Y                   Z               Mass
    ------------   -----------------  -----------------  -----------------  -----------------
         C            3.006174393093     1.896328058329     0.061410201058    12.000000000000
         C            3.647174393093     2.239328058329    -1.275589798942    12.000000000000
         H            3.529174393093     2.396328058329     0.878410201058     1.007825032230
         H            1.977174393093     2.242328058329     0.024410201058     1.007825032230
         H            2.997174393093     0.820328058329     0.233410201058     1.007825032230
         H            3.142174393093     1.664328058329    -2.051589798942     1.007825032230
         H            4.718784393093     1.991037058329    -1.272709798942     1.007825032230
         H            3.501184393093     3.304628058329    -1.507589798942     1.007825032230
         C           -0.120825606907     0.619328058329     1.613410201058    12.000000000000
         C            0.055174393093    -0.193671941671     2.917410201058    12.000000000000
         C           -0.717825606907    -0.155671941671     0.458410201058    12.000000000000
         C           -2.095825606907    -0.361671941671     0.376410201058    12.000000000000
         C            0.095174393093    -0.668671941671    -0.546589798942    12.000000000000
         C           -2.650825606907    -1.086671941671    -0.678589798942    12.000000000000
         C           -0.462825606907    -1.386671941671    -1.609589798942    12.000000000000
         C           -1.833825606907    -1.591671941671    -1.673589798942    12.000000000000
         H           -0.771825606907     1.470328058329     1.819410201058     1.007825032230
         H            0.833174393093     1.030328058329     1.321410201058     1.007825032230
         H            0.285174393093     0.525328058329     3.706410201058     1.007825032230
         H           -2.747825606907     0.043328058329     1.131410201058     1.007825032230
         H            1.165174393093    -0.522671941671    -0.507589798942     1.007825032230
         H           -3.713825606907    -1.261671941671    -0.721589798942     1.007825032230
         H            0.176174393093    -1.783671941671    -2.386589798942     1.007825032230
         H           -2.261825606907    -2.150671941671    -2.495589798942     1.007825032230
         H            0.901814393093    -0.893688941671     2.861020201058     1.007825032230
         H           -0.893265606907    -0.663541941671     3.216880201058     1.007825032230

  Running in c1 symmetry.

  Rotational constants: A =      0.04981  B =      0.02173  C =      0.01628 [cm^-1]
  Rotational constants: A =   1493.20691  B =    651.47821  C =    488.20991 [MHz]
  Nuclear repulsion =  488.381090658429400

  Charge       = 0
  Multiplicity = 1
  Electrons    = 76
  Nalpha       = 38
  Nbeta        = 38

  ==> Algorithm <==

  SCF Algorithm Type is PK.
  DIIS enabled.
  MOM disabled.
  Fractional occupation disabled.
  Guess Type is SAD.
  Energy threshold   = 1.00e-06
  Density threshold  = 1.00e-10
  Integral threshold = 0.00e+00

  ==> Primary Basis <==

  Basis Set: CC-PVDZ
    Blend: CC-PVDZ
    Number of shells: 108
    Number of basis function: 220
    Number of Cartesian functions: 230
    Spherical Harmonics?: true
    Max angular momentum: 2

  ==> Pre-Iterations <==

   -------------------------------------------------------
    Irrep   Nso     Nmo     Nalpha   Nbeta   Ndocc  Nsocc
   -------------------------------------------------------
     A        220     220       0       0       0       0
   -------------------------------------------------------
    Total     220     220      38      38      38       0
   -------------------------------------------------------

  ==> Integral Setup <==

  Using integral reordering PK algorithm.
  Sizing the integral batches needed.
  Building batch lookup table.
   Calculation information:
      Number of atoms:                  26
      Number of AO shells:             108
      Number of primitives:            300
      Number of atomic orbitals:       230
      Number of basis functions:       220

      Integral cutoff                 1.00e-12
      Number of threads:                 1

	Batch   1 pq = [       0,    9405] index = [             0,44231715] size =     44231715
	Batch   2 pq = [    9405,   13301] index = [      44231715,88464951] size =     44233236
	Batch   3 pq = [   13301,   16290] index = [      88464951,132690195] size =     44225244
	Batch   4 pq = [   16290,   18810] index = [     132690195,176917455] size =     44227260
	Batch   5 pq = [   18810,   21030] index = [     176917455,221140965] size =     44223510
	Batch   6 pq = [   21030,   23037] index = [     221140965,265363203] size =     44222238
	Batch   7 pq = [   23037,   24310] index = [     265363203,295500205] size =     30137002
  Task number: 27
  Buffer size: 11059200
  Buffer per thread: 2
  We computed 15260688 shell quartets total.
  Whereas there are 17325441 unique shell quartets.

  ==> DiskJK: Disk-Based J/K Matrices <==

    J tasked:                  Yes
    K tasked:                  Yes
    wK tasked:                  No
    Memory [MiB]:              375
    Schwarz Cutoff:          1E-12

    OpenMP threads:              1

  Minimum eigenvalue in the overlap matrix is 2.9670923850E-04.
  Using Symmetric Orthogonalization.

  SCF Guess: Superposition of Atomic Densities via on-the-fly atomic UHF.

  ==> Iterations <==

                        Total Energy        Delta E     RMS |[F,P]|

   @RHF iter SAD:  -386.88336534960121   -3.86883e+02   0.00000e+00
   @RHF iter   1:  -387.77572643774158   -8.92361e-01   2.71588e-03 DIIS
   @RHF iter   2:  -387.98969463677969   -2.13968e-01   1.12413e-03 DIIS
   @RHF iter   3:  -388.02322086853070   -3.35262e-02   2.45968e-04 DIIS
   @RHF iter   4:  -388.02606616240973   -2.84529e-03   4.94875e-05 DIIS
   @RHF iter   5:  -388.02614507787382   -7.89155e-05   1.99642e-05 DIIS
   @RHF iter   6:  -388.02615748707365   -1.24092e-05   4.11069e-06 DIIS
   @RHF iter   7:  -388.02615819562095   -7.08547e-07   1.22645e-06 DIIS
   @RHF iter   8:  -388.02615826324507   -6.76241e-08   3.64748e-07 DIIS
   @RHF iter   9:  -388.02615827657388   -1.33288e-08   1.71424e-07 DIIS
   @RHF iter  10:  -388.02615828065638   -4.08249e-09   8.52846e-08 DIIS
   @RHF iter  11:  -388.02615828173646   -1.08008e-09   2.53248e-08 DIIS
   @RHF iter  12:  -388.02615828181024   -7.37828e-11   1.00451e-08 DIIS
   @RHF iter  13:  -388.02615828181564   -5.40012e-12   4.18153e-09 DIIS
   @RHF iter  14:  -388.02615828181592   -2.84217e-13   1.19713e-09 DIIS
   @RHF iter  15:  -388.02615828181808   -2.16005e-12   4.80330e-10 DIIS
   @RHF iter  16:  -388.02615828181632    1.76215e-12   2.18490e-10 DIIS
   @RHF iter  17:  -388.02615828181598    3.41061e-13   9.04637e-11 DIIS
  Energy and wave function converged.

  ==> Post-Iterations <==

    Orbital Energies [Eh]
    ---------------------

    Doubly Occupied:

       1A    -11.236666     2A    -11.233982     3A    -11.233285
       4A    -11.229429     5A    -11.229183     6A    -11.228690
       7A    -11.227002     8A    -11.224119     9A    -11.220812
      10A    -11.219554    11A     -1.152266    12A     -1.059286
      13A     -1.023667    14A     -1.008995    15A     -0.980719
      16A     -0.861763    17A     -0.839921    18A     -0.824514
      19A     -0.784105    20A     -0.690128    21A     -0.639173
      22A     -0.632093    23A     -0.604011    24A     -0.601636
      25A     -0.587067    26A     -0.585560    27A     -0.576382
      28A     -0.538892    29A     -0.514937    30A     -0.509241
      31A     -0.500589    32A     -0.490709    33A     -0.486370
      34A     -0.479449    35A     -0.472326    36A     -0.463473
      37A     -0.329685    38A     -0.321716

    Virtual:

      39A      0.135686    40A      0.142131    41A      0.172515
      42A      0.191825    43A      0.199831    44A      0.214225
      45A      0.230882    46A      0.234660    47A      0.240441
      48A      0.254049    49A      0.261192    50A      0.262590
      51A      0.278383    52A      0.284985    53A      0.294415
      54A      0.303994    55A      0.318788    56A      0.344045
      57A      0.357588    58A      0.390203    59A      0.404830
      60A      0.429311    61A      0.454101    62A      0.472577
      63A      0.490404    64A      0.500843    65A      0.568151
      66A      0.591359    67A      0.595508    68A      0.599277
      69A      0.617763    70A      0.628617    71A      0.647192
      72A      0.664140    73A      0.683270    74A      0.692393
      75A      0.699102    76A      0.717747    77A      0.736196
      78A      0.740834    79A      0.746299    80A      0.748777
      81A      0.756003    82A      0.764726    83A      0.791153
      84A      0.801397    85A      0.821728    86A      0.838892
      87A      0.857482    88A      0.872967    89A      0.873682
      90A      0.880187    91A      0.886384    92A      0.890454
      93A      0.895464    94A      0.900475    95A      0.902300
      96A      0.910363    97A      0.916722    98A      0.921697
      99A      0.934963   100A      0.950625   101A      0.954224
     102A      0.962429   103A      0.980604   104A      0.994480
     105A      1.017305   106A      1.026464   107A      1.057379
     108A      1.078362   109A      1.123256   110A      1.126614
     111A      1.140739   112A      1.145085   113A      1.160071
     114A      1.181684   115A      1.210884   116A      1.230826
     117A      1.238871   118A      1.247287   119A      1.252346
     120A      1.289618   121A      1.294708   122A      1.305922
     123A      1.317936   124A      1.327952   125A      1.402495
     126A      1.420934   127A      1.458464   128A      1.474449
     129A      1.494755   130A      1.510658   131A      1.534816
     132A      1.582732   133A      1.602179   134A      1.619022
     135A      1.675048   136A      1.681248   137A      1.694509
     138A      1.704269   139A      1.721141   140A      1.743891
     141A      1.761333   142A      1.771071   143A      1.838750
     144A      1.847273   145A      1.855484   146A      1.865100
     147A      1.870769   148A      1.887610   149A      1.890388
     150A      1.898564   151A      1.907571   152A      1.912240
     153A      1.927928   154A      1.933496   155A      1.937609
     156A      1.941567   157A      1.947019   158A      1.949678
     159A      1.961685   160A      1.973640   161A      1.979332
     162A      1.982134   163A      1.983313   164A      1.992424
     165A      2.001813   166A      2.012578   167A      2.059627
     168A      2.075654   169A      2.085442   170A      2.089578
     171A      2.102756   172A      2.122311   173A      2.126629
     174A      2.163322   175A      2.168962   176A      2.172912
     177A      2.177610   178A      2.192070   179A      2.238623
     180A      2.267828   181A      2.280210   182A      2.300651
     183A      2.314587   184A      2.319782   185A      2.320429
     186A      2.332596   187A      2.387618   188A      2.455383
     189A      2.458455   190A      2.467576   191A      2.481109
     192A      2.490601   193A      2.514325   194A      2.542640
     195A      2.557302   196A      2.571025   197A      2.601758
     198A      2.642925   199A      2.744053   200A      2.758417
     201A      2.772753   202A      2.775388   203A      2.788259
     204A      2.799728   205A      2.817080   206A      2.842253
     207A      2.848700   208A      2.857931   209A      2.872288
     210A      2.919100   211A      2.956512   212A      2.963222
     213A      2.995595   214A      2.999899   215A      3.034392
     216A      3.063535   217A      3.191928   218A      3.208835
     219A      3.312234   220A      3.974143

    Final Occupation by Irrep:
              A
    DOCC [    38 ]

  @RHF Final Energy:  -388.02615828181598

   => Energetics <=

    Nuclear Repulsion Energy =            488.3810906584294003
    One-Electron Energy =               -1491.1317076190330226
    Two-Electron Energy =                 614.7244586787876415
    Total Energy =                       -388.0261582818159241

Computation Completed

Properties will be evaluated at   0.000000,   0.000000,   0.000000 [a0]

Properties computed using the SCF density matrix

  Nuclear Dipole Moment: [e a0]
     X:    12.0358      Y:     7.6988      Z:     3.9838

  Electronic Dipole Moment: [e a0]
     X:   -11.9701      Y:    -7.5927      Z:    -3.8893

  Dipole Moment: [e a0]
     X:     0.0657      Y:     0.1062      Z:     0.0945     Total:     0.1566

  Dipole Moment: [D]
     X:     0.1670      Y:     0.2698      Z:     0.2401     Total:     0.3979

*** tstop() called on ds3 at Mon Apr 27 12:31:45 2020
Module time:
	user time   =     104.71 seconds =       1.75 minutes
	system time =      41.94 seconds =       0.70 minutes
	total time  =        882 seconds =      14.70 minutes
Total time:
	user time   =     104.71 seconds =       1.75 minutes
	system time =      41.94 seconds =       0.70 minutes
	total time  =        882 seconds =      14.70 minutes
                                     G D M A

                                 by Anthony Stone

                           version 2.2.06, 22 June 2011

               Distributed Multipoles from Gaussian wavefunctions

Starting at 12:31:45 on 27 Apr 2020

Using SCF density matrix from file ./SSI/SSI-013VAL-016PHE-1-dimer.test.3352.fchk

                         Distributed Multipole Analysis

Standard DMA

Positions and radii in angstrom
Multipole moments in atomic units, ea_0^k for rank k

C          x =  3.006174  y =  1.896328  z =  0.061410 angstrom
           Maximum rank =  0   Radius =  0.650 angstrom
                   Q00  =  -0.247528

C          x =  3.647174  y =  2.239328  z = -1.275590 angstrom
           Maximum rank =  0   Radius =  0.650 angstrom
                   Q00  =  -0.222199

H          x =  3.529174  y =  2.396328  z =  0.878410 angstrom
           Maximum rank =  0   Radius =  0.325 angstrom
                   Q00  =   0.082273

H          x =  1.977174  y =  2.242328  z =  0.024410 angstrom
           Maximum rank =  0   Radius =  0.325 angstrom
                   Q00  =   0.077170

H          x =  2.997174  y =  0.820328  z =  0.233410 angstrom
           Maximum rank =  0   Radius =  0.325 angstrom
                   Q00  =   0.073464

H          x =  3.142174  y =  1.664328  z = -2.051590 angstrom
           Maximum rank =  0   Radius =  0.325 angstrom
                   Q00  =   0.078308

H          x =  4.718784  y =  1.991037  z = -1.272710 angstrom
           Maximum rank =  0   Radius =  0.325 angstrom
                   Q00  =   0.079468

H          x =  3.501184  y =  3.304628  z = -1.507590 angstrom
           Maximum rank =  0   Radius =  0.325 angstrom
                   Q00  =   0.081749

C          x = -0.120826  y =  0.619328  z =  1.613410 angstrom
           Maximum rank =  0   Radius =  0.650 angstrom
                   Q00  =  -0.024622

C          x =  0.055174  y = -0.193672  z =  2.917410 angstrom
           Maximum rank =  0   Radius =  0.650 angstrom
                   Q00  =  -0.257888

C          x = -0.717826  y = -0.155672  z =  0.458410 angstrom
           Maximum rank =  0   Radius =  0.650 angstrom
                   Q00  =  -0.114498

C          x = -2.095826  y = -0.361672  z =  0.376410 angstrom
           Maximum rank =  0   Radius =  0.650 angstrom
                   Q00  =   0.000301

C          x =  0.095174  y = -0.668672  z = -0.546590 angstrom
           Maximum rank =  0   Radius =  0.650 angstrom
                   Q00  =  -0.084600

C          x = -2.650826  y = -1.086672  z = -0.678590 angstrom
           Maximum rank =  0   Radius =  0.650 angstrom
                   Q00  =  -0.076237

C          x = -0.462826  y = -1.386672  z = -1.609590 angstrom
           Maximum rank =  0   Radius =  0.650 angstrom
                   Q00  =  -0.062041

C          x = -1.833826  y = -1.591672  z = -1.673590 angstrom
           Maximum rank =  0   Radius =  0.650 angstrom
                   Q00  =  -0.077474

H          x = -0.771826  y =  1.470328  z =  1.819410 angstrom
           Maximum rank =  0   Radius =  0.325 angstrom
                   Q00  =   0.066147

H          x =  0.833174  y =  1.030328  z =  1.321410 angstrom
           Maximum rank =  0   Radius =  0.325 angstrom
                   Q00  =   0.080069

H          x =  0.285174  y =  0.525328  z =  3.706410 angstrom
           Maximum rank =  0   Radius =  0.325 angstrom
                   Q00  =   0.078211

H          x = -2.747826  y =  0.043328  z =  1.131410 angstrom
           Maximum rank =  0   Radius =  0.325 angstrom
                   Q00  =   0.053784

H          x =  1.165174  y = -0.522672  z = -0.507590 angstrom
           Maximum rank =  0   Radius =  0.325 angstrom
                   Q00  =   0.056023

H          x = -3.713826  y = -1.261672  z = -0.721590 angstrom
           Maximum rank =  0   Radius =  0.325 angstrom
                   Q00  =   0.063515

H          x =  0.176174  y = -1.783672  z = -2.386590 angstrom
           Maximum rank =  0   Radius =  0.325 angstrom
                   Q00  =   0.062166

H          x = -2.261826  y = -2.150672  z = -2.495590 angstrom
           Maximum rank =  0   Radius =  0.325 angstrom
                   Q00  =   0.059741

H          x =  0.901814  y = -0.893689  z =  2.861020 angstrom
           Maximum rank =  0   Radius =  0.325 angstrom
                   Q00  =   0.087241

H          x = -0.893266  y = -0.663542  z =  3.216880 angstrom
           Maximum rank =  0   Radius =  0.325 angstrom
                   Q00  =   0.087457

Total multipoles referred to origin at
           x =   0.000000,  y =    0.000000,  z =    0.000000 angstrom
                   Q00  =  -0.000000

Finished at 12:31:45 on 27 Apr 2020

  DMA results are available in the Python driver through the
	  variable('DMA DISTRIBUTED MULTIPOLES')
  and
	  variable('DMA TOTAL MULTIPOLES')
  commands.

    Psi4 stopped on: Monday, 27 April 2020 12:31PM
    Psi4 wall time for execution: 0:14:42.52

*** Psi4 exiting successfully. Buy a developer a beer!
