                               Psi4 1.3.2 release

  ==> Input File <==

--------------------------------------------------------------------------
import numpy as np
set {scf_type pk
basis cc-pvdz
d_convergence 10
gdma_switch   0
gdma_limit    0
gdma_origin   [ 0.0,  0.0,  0.0 ]
}
molecule test {
    units Angstrom
    0 1
    --
    0 1
    C                0.572461308755323    -0.143563492880674     0.189557413141913
    C                2.112461308755323    -2.072563492880674    -1.060442586858086
    S                1.113461308755323    -0.615563492880674    -1.450442586858087
    H                1.401461308755323    -0.223563492880674     0.894557413141914
    H                0.252461308755323     0.893436507119325     0.147557413141913
    H               -0.250538691244677    -0.780563492880674     0.513557413141913
    H                2.824461308755323    -1.802563492880674    -0.279442586858086
    H                2.692461308755323    -2.343563492880675    -1.938442586858087
    H                1.525901308755323    -2.936963492880674    -0.715830586858087
    C               -2.038538691244677     1.295436507119326     1.636557413141913
    C               -3.042538691244677     2.267436507119326     2.238557413141914
    H               -1.303538691244677     1.875436507119326     1.083557413141913
    H               -1.544538691244677     0.734436507119326     2.430557413141913
    H               -2.534538691244677     0.601436507119326     0.960557413141914
    H               -3.763538691244677     1.697436507119326     2.821557413141913
    H               -3.562328691244677     2.795166507119326     1.425341413141913
    H               -2.530378691244677     2.982426507119326     2.899220413141913

}
e, wfn = energy('scf', return_wfn=True)
gdma(wfn)
dmavals = variable('DMA DISTRIBUTED MULTIPOLES')
charges = np.array(dmavals)
print(charges)
np.save('SSI-068MET-131LEU-1-dimer.npy', np.array(charges))--------------------------------------------------------------------------

*** tstart() called on ds3
*** at Sun Apr 26 22:04:07 2020

   => Loading Basis Set <=

    Name: CC-PVDZ
    Role: ORBITAL
    Keyword: BASIS
    atoms 1-2, 10-11 entry C          line   138 file /theoryfs2/ds/metcalf/miniconda2/envs/tf2gpu/share/psi4/basis/cc-pvdz.gbs
    atoms 3          entry S          line   598 file /theoryfs2/ds/metcalf/miniconda2/envs/tf2gpu/share/psi4/basis/cc-pvdz.gbs
    atoms 4-9, 12-17 entry H          line    22 file /theoryfs2/ds/metcalf/miniconda2/envs/tf2gpu/share/psi4/basis/cc-pvdz.gbs

         ---------------------------------------------------------
                                   SCF
               by Justin Turney, Rob Parrish, Andy Simmonett
                          and Daniel G. A. Smith
                              RHF Reference
                        1 Threads,    500 MiB Core
         ---------------------------------------------------------

  ==> Geometry <==

    Molecular point group: c1
    Full point group: C1

    Geometry (in Angstrom), charge = 0, multiplicity = 1:

       Center              X                  Y                   Z               Mass
    ------------   -----------------  -----------------  -----------------  -----------------
         C            0.572461308755    -0.143563492881     0.189557413142    12.000000000000
         C            2.112461308755    -2.072563492881    -1.060442586858    12.000000000000
         S            1.113461308755    -0.615563492881    -1.450442586858    31.972071174400
         H            1.401461308755    -0.223563492881     0.894557413142     1.007825032230
         H            0.252461308755     0.893436507119     0.147557413142     1.007825032230
         H           -0.250538691245    -0.780563492881     0.513557413142     1.007825032230
         H            2.824461308755    -1.802563492881    -0.279442586858     1.007825032230
         H            2.692461308755    -2.343563492881    -1.938442586858     1.007825032230
         H            1.525901308755    -2.936963492881    -0.715830586858     1.007825032230
         C           -2.038538691245     1.295436507119     1.636557413142    12.000000000000
         C           -3.042538691245     2.267436507119     2.238557413142    12.000000000000
         H           -1.303538691245     1.875436507119     1.083557413142     1.007825032230
         H           -1.544538691245     0.734436507119     2.430557413142     1.007825032230
         H           -2.534538691245     0.601436507119     0.960557413142     1.007825032230
         H           -3.763538691245     1.697436507119     2.821557413142     1.007825032230
         H           -3.562328691245     2.795166507119     1.425341413142     1.007825032230
         H           -2.530378691245     2.982426507119     2.899220413142     1.007825032230

  Running in c1 symmetry.

  Rotational constants: A =      0.44102  B =      0.02452  C =      0.02384 [cm^-1]
  Rotational constants: A =  13221.44819  B =    735.18251  C =    714.58838 [MHz]
  Nuclear repulsion =  216.570426593383900

  Charge       = 0
  Multiplicity = 1
  Electrons    = 52
  Nalpha       = 26
  Nbeta        = 26

  ==> Algorithm <==

  SCF Algorithm Type is PK.
  DIIS enabled.
  MOM disabled.
  Fractional occupation disabled.
  Guess Type is SAD.
  Energy threshold   = 1.00e-06
  Density threshold  = 1.00e-10
  Integral threshold = 0.00e+00

  ==> Primary Basis <==

  Basis Set: CC-PVDZ
    Blend: CC-PVDZ
    Number of shells: 68
    Number of basis function: 134
    Number of Cartesian functions: 139
    Spherical Harmonics?: true
    Max angular momentum: 2

  ==> Pre-Iterations <==

   -------------------------------------------------------
    Irrep   Nso     Nmo     Nalpha   Nbeta   Ndocc  Nsocc
   -------------------------------------------------------
     A        134     134       0       0       0       0
   -------------------------------------------------------
    Total     134     134      26      26      26       0
   -------------------------------------------------------

  ==> Integral Setup <==

  Using integral reordering PK algorithm.
  Sizing the integral batches needed.
  Building batch lookup table.
   Calculation information:
      Number of atoms:                  17
      Number of AO shells:              68
      Number of primitives:            198
      Number of atomic orbitals:       139
      Number of basis functions:       134

      Integral cutoff                 1.00e-12
      Number of threads:                 1

	Batch   1 pq = [       0,    9045] index = [             0,40910535] size =     40910535
  Task number: 4
  Buffer size: 11059200
  Buffer per thread: 2
  We computed 1978311 shell quartets total.
  Whereas there are 2753031 unique shell quartets.

  ==> DiskJK: Disk-Based J/K Matrices <==

    J tasked:                  Yes
    K tasked:                  Yes
    wK tasked:                  No
    Memory [MiB]:              375
    Schwarz Cutoff:          1E-12

    OpenMP threads:              1

  Minimum eigenvalue in the overlap matrix is 6.1044627363E-03.
  Using Symmetric Orthogonalization.

  SCF Guess: Superposition of Atomic Densities via on-the-fly atomic UHF.

  ==> Iterations <==

                        Total Energy        Delta E     RMS |[F,P]|

   @RHF iter SAD:  -554.95448390170441   -5.54954e+02   0.00000e+00
   @RHF iter   1:  -555.84160588308782   -8.87122e-01   3.39030e-03 DIIS
   @RHF iter   2:  -555.96643641488731   -1.24831e-01   1.33429e-03 DIIS
   @RHF iter   3:  -555.98439018407942   -1.79538e-02   3.16285e-04 DIIS
   @RHF iter   4:  -555.98625823986822   -1.86806e-03   4.75240e-05 DIIS
   @RHF iter   5:  -555.98629604411462   -3.78042e-05   1.06991e-05 DIIS
   @RHF iter   6:  -555.98629803403890   -1.98992e-06   2.69619e-06 DIIS
   @RHF iter   7:  -555.98629815211041   -1.18072e-07   7.38440e-07 DIIS
   @RHF iter   8:  -555.98629816279447   -1.06841e-08   2.00844e-07 DIIS
   @RHF iter   9:  -555.98629816394703   -1.15256e-09   6.57133e-08 DIIS
   @RHF iter  10:  -555.98629816408254   -1.35515e-10   2.24570e-08 DIIS
   @RHF iter  11:  -555.98629816409982   -1.72804e-11   6.92288e-09 DIIS
   @RHF iter  12:  -555.98629816409971    1.13687e-13   2.64237e-09 DIIS
   @RHF iter  13:  -555.98629816410039   -6.82121e-13   7.91210e-10 DIIS
   @RHF iter  14:  -555.98629816409948    9.09495e-13   1.88713e-10 DIIS
   @RHF iter  15:  -555.98629816409982   -3.41061e-13   5.03779e-11 DIIS
  Energy and wave function converged.

  ==> Post-Iterations <==

    Orbital Energies [Eh]
    ---------------------

    Doubly Occupied:

       1A    -91.933130     2A    -11.254904     3A    -11.250728
       4A    -11.220482     5A    -11.219296     6A     -8.937015
       7A     -6.619113     8A     -6.617499     9A     -6.615266
      10A     -1.060928    11A     -1.024460    12A     -0.950186
      13A     -0.839136    14A     -0.802630    15A     -0.609955
      16A     -0.603419    17A     -0.600956    18A     -0.595868
      19A     -0.573819    20A     -0.558424    21A     -0.507949
      22A     -0.494965    23A     -0.489747    24A     -0.479807
      25A     -0.425877    26A     -0.329505

    Virtual:

      27A      0.172652    28A      0.183902    29A      0.195798
      30A      0.227101    31A      0.230451    32A      0.242011
      33A      0.253685    34A      0.255600    35A      0.266563
      36A      0.274566    37A      0.283634    38A      0.295052
      39A      0.314593    40A      0.351200    41A      0.396964
      42A      0.520457    43A      0.559380    44A      0.562039
      45A      0.598904    46A      0.602334    47A      0.608566
      48A      0.629648    49A      0.675462    50A      0.679582
      51A      0.699600    52A      0.715519    53A      0.736788
      54A      0.798341    55A      0.803674    56A      0.813122
      57A      0.833050    58A      0.865207    59A      0.874634
      60A      0.886843    61A      0.890942    62A      0.891829
      63A      0.893463    64A      0.900759    65A      0.904400
      66A      0.909678    67A      0.916478    68A      0.931754
      69A      0.949635    70A      0.957319    71A      0.994995
      72A      1.039166    73A      1.127759    74A      1.135728
      75A      1.168153    76A      1.268292    77A      1.277576
      78A      1.302372    79A      1.326488    80A      1.362493
      81A      1.397272    82A      1.464545    83A      1.472467
      84A      1.482682    85A      1.508405    86A      1.584697
      87A      1.667792    88A      1.673210    89A      1.677116
      90A      1.687119    91A      1.838436    92A      1.861622
      93A      1.881302    94A      1.887389    95A      1.906252
      96A      1.917618    97A      1.922577    98A      1.933815
      99A      1.940837   100A      1.949356   101A      1.958304
     102A      1.966323   103A      1.981501   104A      1.999073
     105A      2.016216   106A      2.037396   107A      2.054935
     108A      2.094007   109A      2.123544   110A      2.124602
     111A      2.225054   112A      2.237877   113A      2.291228
     114A      2.344036   115A      2.409211   116A      2.443407
     117A      2.447694   118A      2.456479   119A      2.466881
     120A      2.484973   121A      2.558716   122A      2.585243
     123A      2.732158   124A      2.758258   125A      2.762216
     126A      2.774602   127A      2.790398   128A      2.806196
     129A      2.811881   130A      2.840158   131A      2.848010
     132A      2.852414   133A      2.941483   134A      2.961597

    Final Occupation by Irrep:
              A
    DOCC [    26 ]

  @RHF Final Energy:  -555.98629816409982

   => Energetics <=

    Nuclear Repulsion Energy =            216.5704265933838997
    One-Electron Energy =               -1191.8833231580176744
    Two-Electron Energy =                 419.3265984005338964
    Total Energy =                       -555.9862981640999351

Computation Completed

Properties will be evaluated at   0.000000,   0.000000,   0.000000 [a0]

Properties computed using the SCF density matrix

  Nuclear Dipole Moment: [e a0]
     X:    -6.3385      Y:     3.2579      Z:     9.5640

  Electronic Dipole Moment: [e a0]
     X:     6.4478      Y:    -3.5021      Z:    -8.9552

  Dipole Moment: [e a0]
     X:     0.1093      Y:    -0.2441      Z:     0.6088     Total:     0.6650

  Dipole Moment: [D]
     X:     0.2778      Y:    -0.6205      Z:     1.5475     Total:     1.6902

*** tstop() called on ds3 at Sun Apr 26 22:04:29 2020
Module time:
	user time   =      16.00 seconds =       0.27 minutes
	system time =       6.21 seconds =       0.10 minutes
	total time  =         22 seconds =       0.37 minutes
Total time:
	user time   =      16.00 seconds =       0.27 minutes
	system time =       6.21 seconds =       0.10 minutes
	total time  =         22 seconds =       0.37 minutes
                                     G D M A

                                 by Anthony Stone

                           version 2.2.06, 22 June 2011

               Distributed Multipoles from Gaussian wavefunctions

Starting at 22:4:29 on 26 Apr 2020

Using SCF density matrix from file ./SSI/SSI-068MET-131LEU-1-dimer.test.6763.fchk

                         Distributed Multipole Analysis

Standard DMA

Positions and radii in angstrom
Multipole moments in atomic units, ea_0^k for rank k

C          x =  0.572461  y = -0.143563  z =  0.189557 angstrom
           Maximum rank =  0   Radius =  0.650 angstrom
                   Q00  =  -0.344350

C          x =  2.112461  y = -2.072563  z = -1.060443 angstrom
           Maximum rank =  0   Radius =  0.650 angstrom
                   Q00  =  -0.365551

S          x =  1.113461  y = -0.615563  z = -1.450443 angstrom
           Maximum rank =  0   Radius =  0.650 angstrom
                   Q00  =   0.124181

H          x =  1.401461  y = -0.223563  z =  0.894557 angstrom
           Maximum rank =  0   Radius =  0.325 angstrom
                   Q00  =   0.086310

H          x =  0.252461  y =  0.893437  z =  0.147557 angstrom
           Maximum rank =  0   Radius =  0.325 angstrom
                   Q00  =   0.118456

H          x = -0.250539  y = -0.780563  z =  0.513557 angstrom
           Maximum rank =  0   Radius =  0.325 angstrom
                   Q00  =   0.087691

H          x =  2.824461  y = -1.802563  z = -0.279443 angstrom
           Maximum rank =  0   Radius =  0.325 angstrom
                   Q00  =   0.084030

H          x =  2.692461  y = -2.343563  z = -1.938443 angstrom
           Maximum rank =  0   Radius =  0.325 angstrom
                   Q00  =   0.119888

H          x =  1.525901  y = -2.936963  z = -0.715831 angstrom
           Maximum rank =  0   Radius =  0.325 angstrom
                   Q00  =   0.089675

C          x = -2.038539  y =  1.295437  z =  1.636557 angstrom
           Maximum rank =  0   Radius =  0.650 angstrom
                   Q00  =  -0.243558

C          x = -3.042539  y =  2.267437  z =  2.238557 angstrom
           Maximum rank =  0   Radius =  0.650 angstrom
                   Q00  =  -0.223348

H          x = -1.303539  y =  1.875437  z =  1.083557 angstrom
           Maximum rank =  0   Radius =  0.325 angstrom
                   Q00  =   0.070146

H          x = -1.544539  y =  0.734437  z =  2.430557 angstrom
           Maximum rank =  0   Radius =  0.325 angstrom
                   Q00  =   0.076406

H          x = -2.534539  y =  0.601437  z =  0.960557 angstrom
           Maximum rank =  0   Radius =  0.325 angstrom
                   Q00  =   0.081980

H          x = -3.763539  y =  1.697437  z =  2.821557 angstrom
           Maximum rank =  0   Radius =  0.325 angstrom
                   Q00  =   0.078580

H          x = -3.562329  y =  2.795167  z =  1.425341 angstrom
           Maximum rank =  0   Radius =  0.325 angstrom
                   Q00  =   0.079950

H          x = -2.530379  y =  2.982427  z =  2.899220 angstrom
           Maximum rank =  0   Radius =  0.325 angstrom
                   Q00  =   0.079512

Total multipoles referred to origin at
           x =   0.000000,  y =    0.000000,  z =    0.000000 angstrom
                   Q00  =  -0.000000

Finished at 22:4:29 on 26 Apr 2020

  DMA results are available in the Python driver through the
	  variable('DMA DISTRIBUTED MULTIPOLES')
  and
	  variable('DMA TOTAL MULTIPOLES')
  commands.

    Psi4 stopped on: Sunday, 26 April 2020 10:04PM
    Psi4 wall time for execution: 0:00:22.02

*** Psi4 exiting successfully. Buy a developer a beer!
