                               Psi4 1.3.2 release

  ==> Input File <==

--------------------------------------------------------------------------
import numpy as np
set {scf_type pk
basis cc-pvdz
d_convergence 10
gdma_switch   0
gdma_limit    0
gdma_origin   [ 0.0,  0.0,  0.0 ]
}
molecule test {
    units Angstrom
    0 1
    --
    0 1
    C                1.114189456300982     2.200616987580880     2.845689295839298
    C                1.244189456300981     3.597616987580880     2.257689295839298
    H                0.080189456300981     2.007616987580880     3.132689295839298
    H                1.435189456300981     1.460616987580880     2.115689295839298
    H                1.752189456300981     2.122616987580880     3.721689295839298
    H                2.296189456300981     3.756616987580879     2.028689295839298
    H                0.899969456300982     4.332046987580880     3.000742295839298
    H                0.657519456300981     3.686486987580880     1.331447295839298
    C               -0.894810543699019    -0.637383012419120     1.239689295839298
    C               -2.395810543699019    -0.942383012419120     1.303689295839298
    C               -0.322810543699019    -0.723383012419120    -0.147310704160702
    C               -0.530810543699019     0.309616987580880    -1.060310704160702
    C                0.378189456300981    -1.861383012419120    -0.551310704160702
    C               -0.048810543699019     0.205616987580880    -2.367310704160702
    C                0.858189456300981    -1.969383012419120    -1.855310704160702
    C                0.644189456300982    -0.935383012419120    -2.767310704160702
    H               -0.701810543699018     0.367616987580880     1.604689295839298
    H               -0.358810543699019    -1.328383012419120     1.893689295839298
    H               -2.936810543699019    -0.225383012419120     0.681689295839298
    H               -1.076810543699019     1.194616987580880    -0.759310704160702
    H                0.546189456300982    -2.673383012419120     0.142689295839298
    H               -0.215810543699019     0.994616987580880    -3.073310704160702
    H                1.386189456300981    -2.854383012419120    -2.166310704160702
    H                1.003189456300981    -1.027383012419120    -3.783310704160701
    H               -2.739330543699019    -0.862178012419120     2.345592295839298
    H               -2.573890543699019    -1.952220012419120     0.905546295839298

}
e, wfn = energy('scf', return_wfn=True)
gdma(wfn)
dmavals = variable('DMA DISTRIBUTED MULTIPOLES')
charges = np.array(dmavals)
print(charges)
np.save('SSI-126LEU-162PHE-1-dimer.npy', np.array(charges))--------------------------------------------------------------------------

*** tstart() called on ds3
*** at Tue Apr 28 13:25:00 2020

   => Loading Basis Set <=

    Name: CC-PVDZ
    Role: ORBITAL
    Keyword: BASIS
    atoms 1-2, 9-16  entry C          line   138 file /theoryfs2/ds/metcalf/miniconda2/envs/tf2gpu/share/psi4/basis/cc-pvdz.gbs
    atoms 3-8, 17-26 entry H          line    22 file /theoryfs2/ds/metcalf/miniconda2/envs/tf2gpu/share/psi4/basis/cc-pvdz.gbs

         ---------------------------------------------------------
                                   SCF
               by Justin Turney, Rob Parrish, Andy Simmonett
                          and Daniel G. A. Smith
                              RHF Reference
                        1 Threads,    500 MiB Core
         ---------------------------------------------------------

  ==> Geometry <==

    Molecular point group: c1
    Full point group: C1

    Geometry (in Angstrom), charge = 0, multiplicity = 1:

       Center              X                  Y                   Z               Mass
    ------------   -----------------  -----------------  -----------------  -----------------
         C            1.114189456301     2.200616987581     2.845689295839    12.000000000000
         C            1.244189456301     3.597616987581     2.257689295839    12.000000000000
         H            0.080189456301     2.007616987581     3.132689295839     1.007825032230
         H            1.435189456301     1.460616987581     2.115689295839     1.007825032230
         H            1.752189456301     2.122616987581     3.721689295839     1.007825032230
         H            2.296189456301     3.756616987581     2.028689295839     1.007825032230
         H            0.899969456301     4.332046987581     3.000742295839     1.007825032230
         H            0.657519456301     3.686486987581     1.331447295839     1.007825032230
         C           -0.894810543699    -0.637383012419     1.239689295839    12.000000000000
         C           -2.395810543699    -0.942383012419     1.303689295839    12.000000000000
         C           -0.322810543699    -0.723383012419    -0.147310704161    12.000000000000
         C           -0.530810543699     0.309616987581    -1.060310704161    12.000000000000
         C            0.378189456301    -1.861383012419    -0.551310704161    12.000000000000
         C           -0.048810543699     0.205616987581    -2.367310704161    12.000000000000
         C            0.858189456301    -1.969383012419    -1.855310704161    12.000000000000
         C            0.644189456301    -0.935383012419    -2.767310704161    12.000000000000
         H           -0.701810543699     0.367616987581     1.604689295839     1.007825032230
         H           -0.358810543699    -1.328383012419     1.893689295839     1.007825032230
         H           -2.936810543699    -0.225383012419     0.681689295839     1.007825032230
         H           -1.076810543699     1.194616987581    -0.759310704161     1.007825032230
         H            0.546189456301    -2.673383012419     0.142689295839     1.007825032230
         H           -0.215810543699     0.994616987581    -3.073310704161     1.007825032230
         H            1.386189456301    -2.854383012419    -2.166310704161     1.007825032230
         H            1.003189456301    -1.027383012419    -3.783310704161     1.007825032230
         H           -2.739330543699    -0.862178012419     2.345592295839     1.007825032230
         H           -2.573890543699    -1.952220012419     0.905546295839     1.007825032230

  Running in c1 symmetry.

  Rotational constants: A =      0.04784  B =      0.02036  C =      0.01682 [cm^-1]
  Rotational constants: A =   1434.07786  B =    610.32035  C =    504.38676 [MHz]
  Nuclear repulsion =  485.882341519945555

  Charge       = 0
  Multiplicity = 1
  Electrons    = 76
  Nalpha       = 38
  Nbeta        = 38

  ==> Algorithm <==

  SCF Algorithm Type is PK.
  DIIS enabled.
  MOM disabled.
  Fractional occupation disabled.
  Guess Type is SAD.
  Energy threshold   = 1.00e-06
  Density threshold  = 1.00e-10
  Integral threshold = 0.00e+00

  ==> Primary Basis <==

  Basis Set: CC-PVDZ
    Blend: CC-PVDZ
    Number of shells: 108
    Number of basis function: 220
    Number of Cartesian functions: 230
    Spherical Harmonics?: true
    Max angular momentum: 2

  ==> Pre-Iterations <==

   -------------------------------------------------------
    Irrep   Nso     Nmo     Nalpha   Nbeta   Ndocc  Nsocc
   -------------------------------------------------------
     A        220     220       0       0       0       0
   -------------------------------------------------------
    Total     220     220      38      38      38       0
   -------------------------------------------------------

  ==> Integral Setup <==

  Using integral reordering PK algorithm.
  Sizing the integral batches needed.
  Building batch lookup table.
   Calculation information:
      Number of atoms:                  26
      Number of AO shells:             108
      Number of primitives:            300
      Number of atomic orbitals:       230
      Number of basis functions:       220

      Integral cutoff                 1.00e-12
      Number of threads:                 1

	Batch   1 pq = [       0,    9405] index = [             0,44231715] size =     44231715
	Batch   2 pq = [    9405,   13301] index = [      44231715,88464951] size =     44233236
	Batch   3 pq = [   13301,   16290] index = [      88464951,132690195] size =     44225244
	Batch   4 pq = [   16290,   18810] index = [     132690195,176917455] size =     44227260
	Batch   5 pq = [   18810,   21030] index = [     176917455,221140965] size =     44223510
	Batch   6 pq = [   21030,   23037] index = [     221140965,265363203] size =     44222238
	Batch   7 pq = [   23037,   24310] index = [     265363203,295500205] size =     30137002
  Task number: 27
  Buffer size: 11059200
  Buffer per thread: 2
  We computed 14871166 shell quartets total.
  Whereas there are 17325441 unique shell quartets.

  ==> DiskJK: Disk-Based J/K Matrices <==

    J tasked:                  Yes
    K tasked:                  Yes
    wK tasked:                  No
    Memory [MiB]:              375
    Schwarz Cutoff:          1E-12

    OpenMP threads:              1

  Minimum eigenvalue in the overlap matrix is 3.1472627267E-04.
  Using Symmetric Orthogonalization.

  SCF Guess: Superposition of Atomic Densities via on-the-fly atomic UHF.

  ==> Iterations <==

                        Total Energy        Delta E     RMS |[F,P]|

   @RHF iter SAD:  -386.87156281259729   -3.86872e+02   0.00000e+00
   @RHF iter   1:  -387.77808450832811   -9.06522e-01   2.72251e-03 DIIS
   @RHF iter   2:  -387.99244802451875   -2.14364e-01   1.13221e-03 DIIS
   @RHF iter   3:  -388.02637985996557   -3.39318e-02   2.47869e-04 DIIS
   @RHF iter   4:  -388.02921937315540   -2.83951e-03   5.78332e-05 DIIS
   @RHF iter   5:  -388.02932071983787   -1.01347e-04   2.12224e-05 DIIS
   @RHF iter   6:  -388.02933505773348   -1.43379e-05   4.01432e-06 DIIS
   @RHF iter   7:  -388.02933577908163   -7.21348e-07   1.27209e-06 DIIS
   @RHF iter   8:  -388.02933586122128   -8.21396e-08   4.61468e-07 DIIS
   @RHF iter   9:  -388.02933588478675   -2.35655e-08   2.27713e-07 DIIS
   @RHF iter  10:  -388.02933589242105   -7.63430e-09   1.03976e-07 DIIS
   @RHF iter  11:  -388.02933589390079   -1.47975e-09   2.70904e-08 DIIS
   @RHF iter  12:  -388.02933589396656   -6.57678e-11   1.07666e-08 DIIS
   @RHF iter  13:  -388.02933589397219   -5.62750e-12   4.28612e-09 DIIS
   @RHF iter  14:  -388.02933589397412   -1.93268e-12   1.13914e-09 DIIS
   @RHF iter  15:  -388.02933589397531   -1.19371e-12   3.28586e-10 DIIS
   @RHF iter  16:  -388.02933589396957    5.74119e-12   7.54505e-11 DIIS
  Energy and wave function converged.

  ==> Post-Iterations <==

    Orbital Energies [Eh]
    ---------------------

    Doubly Occupied:

       1A    -11.237200     2A    -11.235347     3A    -11.234852
       4A    -11.231346     5A    -11.231185     6A    -11.230351
       7A    -11.226193     8A    -11.223809     9A    -11.218212
      10A    -11.214838    11A     -1.152302    12A     -1.062126
      13A     -1.021008    14A     -1.010567    15A     -0.979862
      16A     -0.861314    17A     -0.834786    18A     -0.825177
      19A     -0.784391    20A     -0.689823    21A     -0.639256
      22A     -0.635050    23A     -0.601813    24A     -0.600229
      25A     -0.590827    26A     -0.585741    27A     -0.575876
      28A     -0.540440    29A     -0.518834    30A     -0.499936
      31A     -0.497893    32A     -0.487084    33A     -0.485998
      34A     -0.478816    35A     -0.474720    36A     -0.466496
      37A     -0.331200    38A     -0.320627

    Virtual:

      39A      0.134708    40A      0.139764    41A      0.169875
      42A      0.193221    43A      0.201922    44A      0.210533
      45A      0.230077    46A      0.233733    47A      0.243727
      48A      0.253322    49A      0.256354    50A      0.263192
      51A      0.277842    52A      0.279523    53A      0.286445
      54A      0.299459    55A      0.317370    56A      0.335315
      57A      0.347787    58A      0.384830    59A      0.399931
      60A      0.424628    61A      0.452333    62A      0.470623
      63A      0.491076    64A      0.496192    65A      0.570487
      66A      0.587238    67A      0.597688    68A      0.605789
      69A      0.611930    70A      0.618001    71A      0.628750
      72A      0.651522    73A      0.677598    74A      0.684423
      75A      0.695573    76A      0.718786    77A      0.730231
      78A      0.742340    79A      0.743815    80A      0.745729
      81A      0.750393    82A      0.756898    83A      0.789484
      84A      0.802627    85A      0.828032    86A      0.839325
      87A      0.848106    88A      0.859693    89A      0.866278
      90A      0.883968    91A      0.886234    92A      0.889155
      93A      0.897155    94A      0.898365    95A      0.901940
      96A      0.907354    97A      0.909956    98A      0.922775
      99A      0.936227   100A      0.940405   101A      0.949868
     102A      0.954304   103A      0.971984   104A      0.989903
     105A      0.998788   106A      1.009650   107A      1.048977
     108A      1.079755   109A      1.117416   110A      1.123258
     111A      1.137177   112A      1.140378   113A      1.156164
     114A      1.182999   115A      1.214841   116A      1.227991
     117A      1.236319   118A      1.246150   119A      1.252658
     120A      1.257257   121A      1.296033   122A      1.301220
     123A      1.309040   124A      1.324988   125A      1.391360
     126A      1.429346   127A      1.444105   128A      1.485085
     129A      1.488767   130A      1.512444   131A      1.533410
     132A      1.578200   133A      1.608248   134A      1.624724
     135A      1.676498   136A      1.679675   137A      1.684741
     138A      1.697565   139A      1.723623   140A      1.739529
     141A      1.762033   142A      1.769880   143A      1.843414
     144A      1.852014   145A      1.853795   146A      1.859831
     147A      1.874420   148A      1.879139   149A      1.892851
     150A      1.897172   151A      1.904553   152A      1.911558
     153A      1.922540   154A      1.933480   155A      1.939024
     156A      1.942284   157A      1.946484   158A      1.952185
     159A      1.962726   160A      1.966346   161A      1.969976
     162A      1.975602   163A      1.981627   164A      1.992178
     165A      2.008427   166A      2.020190   167A      2.046824
     168A      2.055001   169A      2.056063   170A      2.088190
     171A      2.105808   172A      2.120588   173A      2.132413
     174A      2.158060   175A      2.159820   176A      2.164002
     177A      2.168432   178A      2.191370   179A      2.238694
     180A      2.246191   181A      2.276160   182A      2.288585
     183A      2.305119   184A      2.312032   185A      2.321322
     186A      2.324315   187A      2.384664   188A      2.447565
     189A      2.462002   190A      2.477301   191A      2.485904
     192A      2.488645   193A      2.526733   194A      2.541420
     195A      2.575287   196A      2.582441   197A      2.589844
     198A      2.637977   199A      2.749247   200A      2.762088
     201A      2.766552   202A      2.770668   203A      2.781310
     204A      2.798097   205A      2.806435   206A      2.838739
     207A      2.845842   208A      2.848642   209A      2.870981
     210A      2.915877   211A      2.959724   212A      2.964985
     213A      2.990756   214A      2.994655   215A      3.028172
     216A      3.064347   217A      3.186992   218A      3.200222
     219A      3.307389   220A      3.968638

    Final Occupation by Irrep:
              A
    DOCC [    38 ]

  @RHF Final Energy:  -388.02933589396957

   => Energetics <=

    Nuclear Repulsion Energy =            485.8823415199455553
    One-Electron Energy =               -1486.1522974123085987
    Two-Electron Energy =                 612.2406199983934130
    Total Energy =                       -388.0293358939695736

Computation Completed

Properties will be evaluated at   0.000000,   0.000000,   0.000000 [a0]

Properties computed using the SCF density matrix

  Nuclear Dipole Moment: [e a0]
     X:    -0.5123      Y:     8.4368      Z:    12.3020

  Electronic Dipole Moment: [e a0]
     X:     0.4736      Y:    -8.4410      Z:   -12.2028

  Dipole Moment: [e a0]
     X:    -0.0387      Y:    -0.0042      Z:     0.0992     Total:     0.1066

  Dipole Moment: [D]
     X:    -0.0984      Y:    -0.0107      Z:     0.2522     Total:     0.2709

*** tstop() called on ds3 at Tue Apr 28 13:28:39 2020
Module time:
	user time   =     100.74 seconds =       1.68 minutes
	system time =      39.99 seconds =       0.67 minutes
	total time  =        219 seconds =       3.65 minutes
Total time:
	user time   =     100.74 seconds =       1.68 minutes
	system time =      39.99 seconds =       0.67 minutes
	total time  =        219 seconds =       3.65 minutes
                                     G D M A

                                 by Anthony Stone

                           version 2.2.06, 22 June 2011

               Distributed Multipoles from Gaussian wavefunctions

Starting at 13:28:39 on 28 Apr 2020

Using SCF density matrix from file ./SSI/SSI-126LEU-162PHE-1-dimer.test.16059.fchk

                         Distributed Multipole Analysis

Standard DMA

Positions and radii in angstrom
Multipole moments in atomic units, ea_0^k for rank k

C          x =  1.114189  y =  2.200617  z =  2.845689 angstrom
           Maximum rank =  0   Radius =  0.650 angstrom
                   Q00  =  -0.238895

C          x =  1.244189  y =  3.597617  z =  2.257689 angstrom
           Maximum rank =  0   Radius =  0.650 angstrom
                   Q00  =  -0.226829

H          x =  0.080189  y =  2.007617  z =  3.132689 angstrom
           Maximum rank =  0   Radius =  0.325 angstrom
                   Q00  =   0.073468

H          x =  1.435189  y =  1.460617  z =  2.115689 angstrom
           Maximum rank =  0   Radius =  0.325 angstrom
                   Q00  =   0.082023

H          x =  1.752189  y =  2.122617  z =  3.721689 angstrom
           Maximum rank =  0   Radius =  0.325 angstrom
                   Q00  =   0.078280

H          x =  2.296189  y =  3.756617  z =  2.028689 angstrom
           Maximum rank =  0   Radius =  0.325 angstrom
                   Q00  =   0.079176

H          x =  0.899969  y =  4.332047  z =  3.000742 angstrom
           Maximum rank =  0   Radius =  0.325 angstrom
                   Q00  =   0.076014

H          x =  0.657519  y =  3.686487  z =  1.331447 angstrom
           Maximum rank =  0   Radius =  0.325 angstrom
                   Q00  =   0.077258

C          x = -0.894811  y = -0.637383  z =  1.239689 angstrom
           Maximum rank =  0   Radius =  0.650 angstrom
                   Q00  =  -0.021688

C          x = -2.395811  y = -0.942383  z =  1.303689 angstrom
           Maximum rank =  0   Radius =  0.650 angstrom
                   Q00  =  -0.242109

C          x = -0.322811  y = -0.723383  z = -0.147311 angstrom
           Maximum rank =  0   Radius =  0.650 angstrom
                   Q00  =  -0.108781

C          x = -0.530811  y =  0.309617  z = -1.060311 angstrom
           Maximum rank =  0   Radius =  0.650 angstrom
                   Q00  =  -0.032442

C          x =  0.378189  y = -1.861383  z = -0.551311 angstrom
           Maximum rank =  0   Radius =  0.650 angstrom
                   Q00  =  -0.050618

C          x = -0.048811  y =  0.205617  z = -2.367311 angstrom
           Maximum rank =  0   Radius =  0.650 angstrom
                   Q00  =  -0.075140

C          x =  0.858189  y = -1.969383  z = -1.855311 angstrom
           Maximum rank =  0   Radius =  0.650 angstrom
                   Q00  =  -0.077472

C          x =  0.644189  y = -0.935383  z = -2.767311 angstrom
           Maximum rank =  0   Radius =  0.650 angstrom
                   Q00  =  -0.082943

H          x = -0.701811  y =  0.367617  z =  1.604689 angstrom
           Maximum rank =  0   Radius =  0.325 angstrom
                   Q00  =   0.071210

H          x = -0.358811  y = -1.328383  z =  1.893689 angstrom
           Maximum rank =  0   Radius =  0.325 angstrom
                   Q00  =   0.063781

H          x = -2.936811  y = -0.225383  z =  0.681689 angstrom
           Maximum rank =  0   Radius =  0.325 angstrom
                   Q00  =   0.082780

H          x = -1.076811  y =  1.194617  z = -0.759311 angstrom
           Maximum rank =  0   Radius =  0.325 angstrom
                   Q00  =   0.056526

H          x =  0.546189  y = -2.673383  z =  0.142689 angstrom
           Maximum rank =  0   Radius =  0.325 angstrom
                   Q00  =   0.056629

H          x = -0.215811  y =  0.994617  z = -3.073311 angstrom
           Maximum rank =  0   Radius =  0.325 angstrom
                   Q00  =   0.064924

H          x =  1.386189  y = -2.854383  z = -2.166311 angstrom
           Maximum rank =  0   Radius =  0.325 angstrom
                   Q00  =   0.064848

H          x =  1.003189  y = -1.027383  z = -3.783311 angstrom
           Maximum rank =  0   Radius =  0.325 angstrom
                   Q00  =   0.062143

H          x = -2.739331  y = -0.862178  z =  2.345592 angstrom
           Maximum rank =  0   Radius =  0.325 angstrom
                   Q00  =   0.083432

H          x = -2.573891  y = -1.952220  z =  0.905546 angstrom
           Maximum rank =  0   Radius =  0.325 angstrom
                   Q00  =   0.084423

Total multipoles referred to origin at
           x =   0.000000,  y =    0.000000,  z =    0.000000 angstrom
                   Q00  =  -0.000000

Finished at 13:28:39 on 28 Apr 2020

  DMA results are available in the Python driver through the
	  variable('DMA DISTRIBUTED MULTIPOLES')
  and
	  variable('DMA TOTAL MULTIPOLES')
  commands.

    Psi4 stopped on: Tuesday, 28 April 2020 01:28PM
    Psi4 wall time for execution: 0:03:38.92

*** Psi4 exiting successfully. Buy a developer a beer!
