                               Psi4 1.3.2 release

  ==> Input File <==

--------------------------------------------------------------------------
import numpy as np
set {scf_type pk
basis cc-pvdz
d_convergence 10
gdma_switch   0
gdma_limit    0
gdma_origin   [ 0.0,  0.0,  0.0 ]
}
molecule test {
    units Angstrom
    0 1
    --
    0 1
    C                0.409702806141289     2.261035775023126     2.551340929116270
    C                1.377702806141289     3.274035775023126     1.957340929116271
    H                0.779702806141289     1.247035775023126     2.427340929116271
    H                0.292702806141289     2.458035775023126     3.614340929116271
    H               -0.562297193858711     2.354035775023126     2.068340929116271
    H                2.344702806141289     3.150035775023126     2.446340929116271
    H                1.025702806141289     4.264035775023126     2.225340929116271
    H                1.513182806141289     3.177985775023126     0.869950929116271
    C                0.659702806141289    -3.492964224976874    -0.042659070883729
    C               -1.064297193858711    -0.118964224976874     0.293340929116271
    C               -0.684297193858711     0.503035775023126    -0.893659070883729
    C               -0.622297193858711    -1.408964224976874     0.568340929116271
    C                0.202702806141289    -2.084964224976874    -0.329659070883729
    C                0.131702806141289    -0.165964224976874    -1.799659070883729
    C                0.564702806141289    -1.455964224976874    -1.517659070883729
    O               -1.107297193858711     1.765035775023126    -1.173659070883729
    H               -1.695297193858711     0.401035775023126     0.994340929116271
    H               -0.895297193858711    -1.885964224976874     1.496340929116271
    H                0.420702806141289     0.315035775023126    -2.720659070883729
    H               -0.800297193858711     2.036035775023126    -2.058659070883729
    H                0.602702806141289    -3.676964224976874     1.028340929116271
    H                1.699702806141289    -3.602964224976874    -0.353659070883729
    H                1.191702806141289    -1.975964224976874    -2.230659070883729
    H                0.042962806141289    -4.248278224976874    -0.551709070883729

}
e, wfn = energy('scf', return_wfn=True)
gdma(wfn)
dmavals = variable('DMA DISTRIBUTED MULTIPOLES')
charges = np.array(dmavals)
print(charges)
np.save('SSI-102ILE-149TYR-1-dimer.npy', np.array(charges))--------------------------------------------------------------------------

*** tstart() called on ds3
*** at Mon Apr 27 21:12:07 2020

   => Loading Basis Set <=

    Name: CC-PVDZ
    Role: ORBITAL
    Keyword: BASIS
    atoms 1-2, 9-15  entry C          line   138 file /theoryfs2/ds/metcalf/miniconda2/envs/tf2gpu/share/psi4/basis/cc-pvdz.gbs
    atoms 3-8, 17-24 entry H          line    22 file /theoryfs2/ds/metcalf/miniconda2/envs/tf2gpu/share/psi4/basis/cc-pvdz.gbs
    atoms 16         entry O          line   198 file /theoryfs2/ds/metcalf/miniconda2/envs/tf2gpu/share/psi4/basis/cc-pvdz.gbs

         ---------------------------------------------------------
                                   SCF
               by Justin Turney, Rob Parrish, Andy Simmonett
                          and Daniel G. A. Smith
                              RHF Reference
                        1 Threads,    500 MiB Core
         ---------------------------------------------------------

  ==> Geometry <==

    Molecular point group: c1
    Full point group: C1

    Geometry (in Angstrom), charge = 0, multiplicity = 1:

       Center              X                  Y                   Z               Mass
    ------------   -----------------  -----------------  -----------------  -----------------
         C            0.409702806141     2.261035775023     2.551340929116    12.000000000000
         C            1.377702806141     3.274035775023     1.957340929116    12.000000000000
         H            0.779702806141     1.247035775023     2.427340929116     1.007825032230
         H            0.292702806141     2.458035775023     3.614340929116     1.007825032230
         H           -0.562297193859     2.354035775023     2.068340929116     1.007825032230
         H            2.344702806141     3.150035775023     2.446340929116     1.007825032230
         H            1.025702806141     4.264035775023     2.225340929116     1.007825032230
         H            1.513182806141     3.177985775023     0.869950929116     1.007825032230
         C            0.659702806141    -3.492964224977    -0.042659070884    12.000000000000
         C           -1.064297193859    -0.118964224977     0.293340929116    12.000000000000
         C           -0.684297193859     0.503035775023    -0.893659070884    12.000000000000
         C           -0.622297193859    -1.408964224977     0.568340929116    12.000000000000
         C            0.202702806141    -2.084964224977    -0.329659070884    12.000000000000
         C            0.131702806141    -0.165964224977    -1.799659070884    12.000000000000
         C            0.564702806141    -1.455964224977    -1.517659070884    12.000000000000
         O           -1.107297193859     1.765035775023    -1.173659070884    15.994914619570
         H           -1.695297193859     0.401035775023     0.994340929116     1.007825032230
         H           -0.895297193859    -1.885964224977     1.496340929116     1.007825032230
         H            0.420702806141     0.315035775023    -2.720659070884     1.007825032230
         H           -0.800297193859     2.036035775023    -2.058659070884     1.007825032230
         H            0.602702806141    -3.676964224977     1.028340929116     1.007825032230
         H            1.699702806141    -3.602964224977    -0.353659070884     1.007825032230
         H            1.191702806141    -1.975964224977    -2.230659070884     1.007825032230
         H            0.042962806141    -4.248278224977    -0.551709070884     1.007825032230

  Running in c1 symmetry.

  Rotational constants: A =      0.05515  B =      0.02237  C =      0.01863 [cm^-1]
  Rotational constants: A =   1653.47882  B =    670.70599  C =    558.39907 [MHz]
  Nuclear repulsion =  497.497660275374074

  Charge       = 0
  Multiplicity = 1
  Electrons    = 76
  Nalpha       = 38
  Nbeta        = 38

  ==> Algorithm <==

  SCF Algorithm Type is PK.
  DIIS enabled.
  MOM disabled.
  Fractional occupation disabled.
  Guess Type is SAD.
  Energy threshold   = 1.00e-06
  Density threshold  = 1.00e-10
  Integral threshold = 0.00e+00

  ==> Primary Basis <==

  Basis Set: CC-PVDZ
    Blend: CC-PVDZ
    Number of shells: 102
    Number of basis function: 210
    Number of Cartesian functions: 220
    Spherical Harmonics?: true
    Max angular momentum: 2

  ==> Pre-Iterations <==

   -------------------------------------------------------
    Irrep   Nso     Nmo     Nalpha   Nbeta   Ndocc  Nsocc
   -------------------------------------------------------
     A        210     210       0       0       0       0
   -------------------------------------------------------
    Total     210     210      38      38      38       0
   -------------------------------------------------------

  ==> Integral Setup <==

  Using integral reordering PK algorithm.
  Sizing the integral batches needed.
  Building batch lookup table.
   Calculation information:
      Number of atoms:                  24
      Number of AO shells:             102
      Number of primitives:            290
      Number of atomic orbitals:       220
      Number of basis functions:       210

      Integral cutoff                 1.00e-12
      Number of threads:                 1

	Batch   1 pq = [       0,    9405] index = [             0,44231715] size =     44231715
	Batch   2 pq = [    9405,   13301] index = [      44231715,88464951] size =     44233236
	Batch   3 pq = [   13301,   16290] index = [      88464951,132690195] size =     44225244
	Batch   4 pq = [   16290,   18810] index = [     132690195,176917455] size =     44227260
	Batch   5 pq = [   18810,   21030] index = [     176917455,221140965] size =     44223510
	Batch   6 pq = [   21030,   22155] index = [     221140965,245433090] size =     24292125
  Task number: 23
  Buffer size: 11059200
  Buffer per thread: 2
  We computed 11743018 shell quartets total.
  Whereas there are 13799631 unique shell quartets.

  ==> DiskJK: Disk-Based J/K Matrices <==

    J tasked:                  Yes
    K tasked:                  Yes
    wK tasked:                  No
    Memory [MiB]:              375
    Schwarz Cutoff:          1E-12

    OpenMP threads:              1

  Minimum eigenvalue in the overlap matrix is 3.2028501717E-04.
  Using Symmetric Orthogonalization.

  SCF Guess: Superposition of Atomic Densities via on-the-fly atomic UHF.

  ==> Iterations <==

                        Total Energy        Delta E     RMS |[F,P]|

   @RHF iter SAD:  -422.72068948185768   -4.22721e+02   0.00000e+00
   @RHF iter   1:  -423.59827835247148   -8.77589e-01   2.99826e-03 DIIS
   @RHF iter   2:  -423.81720017236239   -2.18922e-01   1.27179e-03 DIIS
   @RHF iter   3:  -423.85290483379777   -3.57047e-02   2.82917e-04 DIIS
   @RHF iter   4:  -423.85578818496458   -2.88335e-03   1.14704e-04 DIIS
   @RHF iter   5:  -423.85612570180001   -3.37517e-04   2.11609e-05 DIIS
   @RHF iter   6:  -423.85614358155169   -1.78798e-05   6.54131e-06 DIIS
   @RHF iter   7:  -423.85614524080023   -1.65925e-06   2.03873e-06 DIIS
   @RHF iter   8:  -423.85614544553647   -2.04736e-07   7.48689e-07 DIIS
   @RHF iter   9:  -423.85614547240334   -2.68669e-08   2.52802e-07 DIIS
   @RHF iter  10:  -423.85614547589671   -3.49337e-09   8.66953e-08 DIIS
   @RHF iter  11:  -423.85614547661385   -7.17137e-10   4.07195e-08 DIIS
   @RHF iter  12:  -423.85614547679637   -1.82524e-10   2.25461e-08 DIIS
   @RHF iter  13:  -423.85614547685594   -5.95719e-11   8.21330e-09 DIIS
   @RHF iter  14:  -423.85614547686066   -4.71800e-12   2.18230e-09 DIIS
   @RHF iter  15:  -423.85614547686248   -1.81899e-12   7.27791e-10 DIIS
   @RHF iter  16:  -423.85614547686396   -1.47793e-12   2.33117e-10 DIIS
   @RHF iter  17:  -423.85614547686180    2.16005e-12   9.88144e-11 DIIS
  Energy and wave function converged.

  ==> Post-Iterations <==

    Orbital Energies [Eh]
    ---------------------

    Doubly Occupied:

       1A    -20.585529     2A    -11.298530     3A    -11.237974
       4A    -11.237155     5A    -11.232836     6A    -11.232189
       7A    -11.229432     8A    -11.227597     9A    -11.209176
      10A    -11.206105    11A     -1.400192    12A     -1.151131
      13A     -1.036699    14A     -1.018939    15A     -1.012033
      16A     -0.925247    17A     -0.845275    18A     -0.829448
      19A     -0.801351    20A     -0.730164    21A     -0.669954
      22A     -0.641409    23A     -0.606793    24A     -0.594948
      25A     -0.590492    26A     -0.587312    27A     -0.584178
      28A     -0.570494    29A     -0.567543    30A     -0.527389
      31A     -0.498234    32A     -0.494866    33A     -0.485617
      34A     -0.479755    35A     -0.473404    36A     -0.466300
      37A     -0.339025    38A     -0.300903

    Virtual:

      39A      0.130409    40A      0.155874    41A      0.172602
      42A      0.186462    43A      0.198012    44A      0.214808
      45A      0.222828    46A      0.244956    47A      0.255928
      48A      0.263613    49A      0.264906    50A      0.281379
      51A      0.284750    52A      0.286277    53A      0.297395
      54A      0.331334    55A      0.370619    56A      0.377871
      57A      0.403893    58A      0.433914    59A      0.456749
      60A      0.485962    61A      0.496126    62A      0.508283
      63A      0.584918    64A      0.606410    65A      0.612773
      66A      0.614757    67A      0.637466    68A      0.655775
      69A      0.664163    70A      0.665727    71A      0.679609
      72A      0.689550    73A      0.701216    74A      0.717434
      75A      0.728639    76A      0.737131    77A      0.764110
      78A      0.767198    79A      0.783293    80A      0.788428
      81A      0.814966    82A      0.839980    83A      0.843439
      84A      0.858491    85A      0.875287    86A      0.877745
      87A      0.884585    88A      0.894538    89A      0.901665
      90A      0.902918    91A      0.913100    92A      0.921451
      93A      0.927449    94A      0.930507    95A      0.935549
      96A      0.946924    97A      0.964732    98A      0.975851
      99A      0.992824   100A      1.018319   101A      1.027036
     102A      1.060736   103A      1.126223   104A      1.130229
     105A      1.143390   106A      1.149529   107A      1.157479
     108A      1.167431   109A      1.206805   110A      1.239764
     111A      1.248241   112A      1.249479   113A      1.279380
     114A      1.289765   115A      1.297604   116A      1.310272
     117A      1.314536   118A      1.361141   119A      1.365993
     120A      1.383280   121A      1.475218   122A      1.491486
     123A      1.496615   124A      1.506258   125A      1.528283
     126A      1.556757   127A      1.584149   128A      1.614721
     129A      1.620386   130A      1.681372   131A      1.691172
     132A      1.699661   133A      1.706984   134A      1.735521
     135A      1.753981   136A      1.783962   137A      1.808687
     138A      1.811751   139A      1.872147   140A      1.877123
     141A      1.881673   142A      1.889863   143A      1.892204
     144A      1.900562   145A      1.914219   146A      1.919599
     147A      1.930561   148A      1.948542   149A      1.956406
     150A      1.960191   151A      1.967539   152A      1.971853
     153A      1.975048   154A      1.982382   155A      1.994512
     156A      2.004417   157A      2.040214   158A      2.051260
     159A      2.059889   160A      2.068724   161A      2.070170
     162A      2.099876   163A      2.137021   164A      2.139618
     165A      2.148285   166A      2.170392   167A      2.204939
     168A      2.227577   169A      2.264487   170A      2.279127
     171A      2.297623   172A      2.315727   173A      2.326536
     174A      2.330956   175A      2.378755   176A      2.417658
     177A      2.439655   178A      2.453947   179A      2.479064
     180A      2.491871   181A      2.497619   182A      2.538816
     183A      2.549819   184A      2.577724   185A      2.594391
     186A      2.605823   187A      2.643127   188A      2.755169
     189A      2.771126   190A      2.782770   191A      2.793297
     192A      2.807189   193A      2.815242   194A      2.841942
     195A      2.862632   196A      2.886266   197A      2.906716
     198A      2.958640   199A      2.975349   200A      2.985361
     201A      3.006378   202A      3.092448   203A      3.117157
     204A      3.254120   205A      3.289377   206A      3.337216
     207A      3.585023   208A      3.681563   209A      3.966498
     210A      4.177438

    Final Occupation by Irrep:
              A
    DOCC [    38 ]

  @RHF Final Energy:  -423.85614547686180

   => Energetics <=

    Nuclear Repulsion Energy =            497.4976602753740735
    One-Electron Energy =               -1560.8563776632468034
    Two-Electron Energy =                 639.5025719110109321
    Total Energy =                       -423.8561454768617978

Computation Completed

Properties will be evaluated at   0.000000,   0.000000,   0.000000 [a0]

Properties computed using the SCF density matrix

  Nuclear Dipole Moment: [e a0]
     X:     5.5825      Y:     3.7707      Z:     8.6710

  Electronic Dipole Moment: [e a0]
     X:    -5.3083      Y:    -4.0088      Z:    -9.1408

  Dipole Moment: [e a0]
     X:     0.2743      Y:    -0.2381      Z:    -0.4698     Total:     0.5939

  Dipole Moment: [D]
     X:     0.6971      Y:    -0.6052      Z:    -1.1942     Total:     1.5094

*** tstop() called on ds3 at Mon Apr 27 21:14:56 2020
Module time:
	user time   =      86.27 seconds =       1.44 minutes
	system time =      34.40 seconds =       0.57 minutes
	total time  =        169 seconds =       2.82 minutes
Total time:
	user time   =      86.27 seconds =       1.44 minutes
	system time =      34.40 seconds =       0.57 minutes
	total time  =        169 seconds =       2.82 minutes
                                     G D M A

                                 by Anthony Stone

                           version 2.2.06, 22 June 2011

               Distributed Multipoles from Gaussian wavefunctions

Starting at 21:14:56 on 27 Apr 2020

Using SCF density matrix from file ./SSI/SSI-102ILE-149TYR-1-dimer.test.24895.fchk

                         Distributed Multipole Analysis

Standard DMA

Positions and radii in angstrom
Multipole moments in atomic units, ea_0^k for rank k

C          x =  0.409703  y =  2.261036  z =  2.551341 angstrom
           Maximum rank =  0   Radius =  0.650 angstrom
                   Q00  =  -0.230320

C          x =  1.377703  y =  3.274036  z =  1.957341 angstrom
           Maximum rank =  0   Radius =  0.650 angstrom
                   Q00  =  -0.233949

H          x =  0.779703  y =  1.247036  z =  2.427341 angstrom
           Maximum rank =  0   Radius =  0.325 angstrom
                   Q00  =   0.083205

H          x =  0.292703  y =  2.458036  z =  3.614341 angstrom
           Maximum rank =  0   Radius =  0.325 angstrom
                   Q00  =   0.071944

H          x = -0.562297  y =  2.354036  z =  2.068341 angstrom
           Maximum rank =  0   Radius =  0.325 angstrom
                   Q00  =   0.079136

H          x =  2.344703  y =  3.150036  z =  2.446341 angstrom
           Maximum rank =  0   Radius =  0.325 angstrom
                   Q00  =   0.070584

H          x =  1.025703  y =  4.264036  z =  2.225341 angstrom
           Maximum rank =  0   Radius =  0.325 angstrom
                   Q00  =   0.074308

H          x =  1.513183  y =  3.177986  z =  0.869951 angstrom
           Maximum rank =  0   Radius =  0.325 angstrom
                   Q00  =   0.083171

C          x =  0.659703  y = -3.492964  z = -0.042659 angstrom
           Maximum rank =  0   Radius =  0.650 angstrom
                   Q00  =  -0.191822

C          x = -1.064297  y = -0.118964  z =  0.293341 angstrom
           Maximum rank =  0   Radius =  0.650 angstrom
                   Q00  =  -0.122128

C          x = -0.684297  y =  0.503036  z = -0.893659 angstrom
           Maximum rank =  0   Radius =  0.650 angstrom
                   Q00  =   0.314745

C          x = -0.622297  y = -1.408964  z =  0.568341 angstrom
           Maximum rank =  0   Radius =  0.650 angstrom
                   Q00  =  -0.013771

C          x =  0.202703  y = -2.084964  z = -0.329659 angstrom
           Maximum rank =  0   Radius =  0.650 angstrom
                   Q00  =  -0.137631

C          x =  0.131703  y = -0.165964  z = -1.799659 angstrom
           Maximum rank =  0   Radius =  0.650 angstrom
                   Q00  =  -0.180030

C          x =  0.564703  y = -1.455964  z = -1.517659 angstrom
           Maximum rank =  0   Radius =  0.650 angstrom
                   Q00  =   0.022493

O          x = -1.107297  y =  1.765036  z = -1.173659 angstrom
           Maximum rank =  0   Radius =  0.650 angstrom
                   Q00  =  -0.675518

H          x = -1.695297  y =  0.401036  z =  0.994341 angstrom
           Maximum rank =  0   Radius =  0.325 angstrom
                   Q00  =   0.083957

H          x = -0.895297  y = -1.885964  z =  1.496341 angstrom
           Maximum rank =  0   Radius =  0.325 angstrom
                   Q00  =   0.064009

H          x =  0.420703  y =  0.315036  z = -2.720659 angstrom
           Maximum rank =  0   Radius =  0.325 angstrom
                   Q00  =   0.070005

H          x = -0.800297  y =  2.036036  z = -2.058659 angstrom
           Maximum rank =  0   Radius =  0.325 angstrom
                   Q00  =   0.409776

H          x =  0.602703  y = -3.676964  z =  1.028341 angstrom
           Maximum rank =  0   Radius =  0.325 angstrom
                   Q00  =   0.096050

H          x =  1.699703  y = -3.602964  z = -0.353659 angstrom
           Maximum rank =  0   Radius =  0.325 angstrom
                   Q00  =   0.095898

H          x =  1.191703  y = -1.975964  z = -2.230659 angstrom
           Maximum rank =  0   Radius =  0.325 angstrom
                   Q00  =   0.066813

H          x =  0.042963  y = -4.248278  z = -0.551709 angstrom
           Maximum rank =  0   Radius =  0.325 angstrom
                   Q00  =   0.099073

Total multipoles referred to origin at
           x =   0.000000,  y =    0.000000,  z =    0.000000 angstrom
                   Q00  =  -0.000000

Finished at 21:14:56 on 27 Apr 2020

  DMA results are available in the Python driver through the
	  variable('DMA DISTRIBUTED MULTIPOLES')
  and
	  variable('DMA TOTAL MULTIPOLES')
  commands.

    Psi4 stopped on: Monday, 27 April 2020 09:14PM
    Psi4 wall time for execution: 0:02:49.90

*** Psi4 exiting successfully. Buy a developer a beer!
