                               Psi4 1.3.2 release

  ==> Input File <==

--------------------------------------------------------------------------
import numpy as np
set {scf_type pk
basis cc-pvdz
d_convergence 10
gdma_switch   0
gdma_limit    0
gdma_origin   [ 0.0,  0.0,  0.0 ]
}
molecule test {
    units Angstrom
    0 1
    --
    0 1
    C               -2.986310651591580     1.825745410008160     1.795900030389875
    C               -4.285310651591581     1.305745410008160     2.427900030389875
    H               -2.151310651591580     1.679745410008160     2.481900030389875
    H               -2.793310651591580     1.288745410008160     0.867900030389875
    H               -3.085310651591580     2.887745410008160     1.566900030389875
    H               -5.090310651591579     1.451745410008160     1.707900030389875
    H               -4.535310651591581     1.876743410008160     3.334250030389875
    H               -4.214014651591580     0.229820410008160     2.645390030389875
    C                1.847689348408420    -2.604254589991840    -1.781099969610125
    C               -0.051310651591580    -0.091254589991840     0.347900030389875
    C                0.339689348408420    -1.283254589991840    -0.257099969610125
    C                0.675689348408420     1.078745410008160     0.129900030389875
    C                1.448689348408420    -1.316254589991840    -1.104099969610125
    C                1.793689348408419     1.050745410008160    -0.698099969610125
    C                2.170689348408420    -0.146254589991840    -1.320099969610125
    H               -0.914310651591580    -0.082254589991840     0.996900030389875
    H               -0.228310651591580    -2.184254589991840    -0.079099969610125
    H                0.368689348408420     2.002745410008160     0.598900030389875
    H                2.361689348408420     1.953745410008160    -0.871099969610125
    H                1.635689348408419    -3.440254589991840    -1.112099969610125
    H                2.925689348408420    -2.589254589991840    -1.951099969610125
    H                3.028689348408420    -0.156254589991840    -1.979099969610125
    H                1.342104128408420    -2.772065589991840    -2.743499969610125

}
e, wfn = energy('scf', return_wfn=True)
gdma(wfn)
dmavals = variable('DMA DISTRIBUTED MULTIPOLES')
charges = np.array(dmavals)
print(charges)
np.save('SSI-065ALA-070PHE-1-dimer.npy', np.array(charges))--------------------------------------------------------------------------

*** tstart() called on ds3
*** at Tue Apr 28 13:51:19 2020

   => Loading Basis Set <=

    Name: CC-PVDZ
    Role: ORBITAL
    Keyword: BASIS
    atoms 1-2, 9-15  entry C          line   138 file /theoryfs2/ds/metcalf/miniconda2/envs/tf2gpu/share/psi4/basis/cc-pvdz.gbs
    atoms 3-8, 16-23 entry H          line    22 file /theoryfs2/ds/metcalf/miniconda2/envs/tf2gpu/share/psi4/basis/cc-pvdz.gbs

         ---------------------------------------------------------
                                   SCF
               by Justin Turney, Rob Parrish, Andy Simmonett
                          and Daniel G. A. Smith
                              RHF Reference
                        1 Threads,    500 MiB Core
         ---------------------------------------------------------

  ==> Geometry <==

    Molecular point group: c1
    Full point group: C1

    Geometry (in Angstrom), charge = 0, multiplicity = 1:

       Center              X                  Y                   Z               Mass
    ------------   -----------------  -----------------  -----------------  -----------------
         C           -2.986310651592     1.825745410008     1.795900030390    12.000000000000
         C           -4.285310651592     1.305745410008     2.427900030390    12.000000000000
         H           -2.151310651592     1.679745410008     2.481900030390     1.007825032230
         H           -2.793310651592     1.288745410008     0.867900030390     1.007825032230
         H           -3.085310651592     2.887745410008     1.566900030390     1.007825032230
         H           -5.090310651592     1.451745410008     1.707900030390     1.007825032230
         H           -4.535310651592     1.876743410008     3.334250030390     1.007825032230
         H           -4.214014651592     0.229820410008     2.645390030390     1.007825032230
         C            1.847689348408    -2.604254589992    -1.781099969610    12.000000000000
         C           -0.051310651592    -0.091254589992     0.347900030390    12.000000000000
         C            0.339689348408    -1.283254589992    -0.257099969610    12.000000000000
         C            0.675689348408     1.078745410008     0.129900030390    12.000000000000
         C            1.448689348408    -1.316254589992    -1.104099969610    12.000000000000
         C            1.793689348408     1.050745410008    -0.698099969610    12.000000000000
         C            2.170689348408    -0.146254589992    -1.320099969610    12.000000000000
         H           -0.914310651592    -0.082254589992     0.996900030390     1.007825032230
         H           -0.228310651592    -2.184254589992    -0.079099969610     1.007825032230
         H            0.368689348408     2.002745410008     0.598900030390     1.007825032230
         H            2.361689348408     1.953745410008    -0.871099969610     1.007825032230
         H            1.635689348408    -3.440254589992    -1.112099969610     1.007825032230
         H            2.925689348408    -2.589254589992    -1.951099969610     1.007825032230
         H            3.028689348408    -0.156254589992    -1.979099969610     1.007825032230
         H            1.342104128408    -2.772065589992    -2.743499969610     1.007825032230

  Running in c1 symmetry.

  Rotational constants: A =      0.10774  B =      0.01734  C =      0.01517 [cm^-1]
  Rotational constants: A =   3230.04204  B =    519.93823  C =    454.67744 [MHz]
  Nuclear repulsion =  394.227933924193906

  Charge       = 0
  Multiplicity = 1
  Electrons    = 68
  Nalpha       = 34
  Nbeta        = 34

  ==> Algorithm <==

  SCF Algorithm Type is PK.
  DIIS enabled.
  MOM disabled.
  Fractional occupation disabled.
  Guess Type is SAD.
  Energy threshold   = 1.00e-06
  Density threshold  = 1.00e-10
  Integral threshold = 0.00e+00

  ==> Primary Basis <==

  Basis Set: CC-PVDZ
    Blend: CC-PVDZ
    Number of shells: 96
    Number of basis function: 196
    Number of Cartesian functions: 205
    Spherical Harmonics?: true
    Max angular momentum: 2

  ==> Pre-Iterations <==

   -------------------------------------------------------
    Irrep   Nso     Nmo     Nalpha   Nbeta   Ndocc  Nsocc
   -------------------------------------------------------
     A        196     196       0       0       0       0
   -------------------------------------------------------
    Total     196     196      34      34      34       0
   -------------------------------------------------------

  ==> Integral Setup <==

  Using integral reordering PK algorithm.
  Sizing the integral batches needed.
  Building batch lookup table.
   Calculation information:
      Number of atoms:                  23
      Number of AO shells:              96
      Number of primitives:            268
      Number of atomic orbitals:       205
      Number of basis functions:       196

      Integral cutoff                 1.00e-12
      Number of threads:                 1

	Batch   1 pq = [       0,    9405] index = [             0,44231715] size =     44231715
	Batch   2 pq = [    9405,   13301] index = [      44231715,88464951] size =     44233236
	Batch   3 pq = [   13301,   16290] index = [      88464951,132690195] size =     44225244
	Batch   4 pq = [   16290,   18810] index = [     132690195,176917455] size =     44227260
	Batch   5 pq = [   18810,   19306] index = [     176917455,186370471] size =      9453016
  Task number: 17
  Buffer size: 11059200
  Buffer per thread: 2
  We computed 7926043 shell quartets total.
  Whereas there are 10841496 unique shell quartets.

  ==> DiskJK: Disk-Based J/K Matrices <==

    J tasked:                  Yes
    K tasked:                  Yes
    wK tasked:                  No
    Memory [MiB]:              375
    Schwarz Cutoff:          1E-12

    OpenMP threads:              1

  Minimum eigenvalue in the overlap matrix is 3.1047925465E-04.
  Using Symmetric Orthogonalization.

  SCF Guess: Superposition of Atomic Densities via on-the-fly atomic UHF.

  ==> Iterations <==

                        Total Energy        Delta E     RMS |[F,P]|

   @RHF iter SAD:  -347.83055069185571   -3.47831e+02   0.00000e+00
   @RHF iter   1:  -348.77003166321231   -9.39481e-01   2.87744e-03 DIIS
   @RHF iter   2:  -348.96129413838855   -1.91262e-01   1.18811e-03 DIIS
   @RHF iter   3:  -348.99092573994506   -2.96316e-02   2.58476e-04 DIIS
   @RHF iter   4:  -348.99339474999908   -2.46901e-03   5.50429e-05 DIIS
   @RHF iter   5:  -348.99347240129691   -7.76513e-05   1.89697e-05 DIIS
   @RHF iter   6:  -348.99348113781383   -8.73652e-06   4.89471e-06 DIIS
   @RHF iter   7:  -348.99348182598686   -6.88173e-07   1.21183e-06 DIIS
   @RHF iter   8:  -348.99348187540306   -4.94162e-08   2.95734e-07 DIIS
   @RHF iter   9:  -348.99348188107393   -5.67087e-09   1.18376e-07 DIIS
   @RHF iter  10:  -348.99348188224673   -1.17279e-09   5.58909e-08 DIIS
   @RHF iter  11:  -348.99348188265907   -4.12342e-10   2.04351e-08 DIIS
   @RHF iter  12:  -348.99348188271955   -6.04814e-11   8.18125e-09 DIIS
   @RHF iter  13:  -348.99348188272467   -5.11591e-12   3.40681e-09 DIIS
   @RHF iter  14:  -348.99348188272654   -1.87583e-12   7.58121e-10 DIIS
   @RHF iter  15:  -348.99348188272592    6.25278e-13   3.13567e-10 DIIS
   @RHF iter  16:  -348.99348188272683   -9.09495e-13   6.99076e-11 DIIS
  Energy and wave function converged.

  ==> Post-Iterations <==

    Orbital Energies [Eh]
    ---------------------

    Doubly Occupied:

       1A    -11.239804     2A    -11.235602     3A    -11.233829
       4A    -11.230610     5A    -11.230415     6A    -11.229414
       7A    -11.229180     8A    -11.221267     9A    -11.219411
      10A     -1.150302    11A     -1.042582    12A     -1.018657
      13A     -1.009144    14A     -0.929836    15A     -0.839469
      16A     -0.823515    17A     -0.793956    18A     -0.689448
      19A     -0.630089    20A     -0.629097    21A     -0.599959
      22A     -0.598658    23A     -0.580341    24A     -0.575682
      25A     -0.561403    26A     -0.533914    27A     -0.500427
      28A     -0.491723    29A     -0.487333    30A     -0.484937
      31A     -0.482610    32A     -0.478453    33A     -0.330130
      34A     -0.321391

    Virtual:

      35A      0.134946    36A      0.141895    37A      0.175286
      38A      0.190522    39A      0.204384    40A      0.221026
      41A      0.226961    42A      0.248043    43A      0.251679
      44A      0.257930    45A      0.266534    46A      0.278967
      47A      0.282722    48A      0.285943    49A      0.294907
      50A      0.326137    51A      0.368057    52A      0.376217
      53A      0.391015    54A      0.455112    55A      0.463896
      56A      0.479907    57A      0.487832    58A      0.558511
      59A      0.592758    60A      0.596227    61A      0.607497
      62A      0.630183    63A      0.639392    64A      0.675188
      65A      0.680564    66A      0.690971    67A      0.697491
      68A      0.713073    69A      0.731146    70A      0.742529
      71A      0.744227    72A      0.747194    73A      0.758697
      74A      0.776341    75A      0.778652    76A      0.799101
      77A      0.835064    78A      0.849243    79A      0.861331
      80A      0.869601    81A      0.876877    82A      0.879590
      83A      0.890940    84A      0.893118    85A      0.897818
      86A      0.901159    87A      0.913765    88A      0.920808
      89A      0.924307    90A      0.932620    91A      0.943526
      92A      0.947064    93A      0.972376    94A      0.995178
      95A      1.031380    96A      1.051546    97A      1.113382
      98A      1.122077    99A      1.133636   100A      1.143756
     101A      1.155628   102A      1.180370   103A      1.216822
     104A      1.230488   105A      1.244346   106A      1.250057
     107A      1.253447   108A      1.280517   109A      1.300984
     110A      1.307316   111A      1.323138   112A      1.324372
     113A      1.411864   114A      1.468142   115A      1.479854
     116A      1.511959   117A      1.516331   118A      1.556429
     119A      1.593890   120A      1.606472   121A      1.676178
     122A      1.679395   123A      1.690908   124A      1.700904
     125A      1.733850   126A      1.747586   127A      1.757720
     128A      1.789618   129A      1.808737   130A      1.859756
     131A      1.862523   132A      1.877337   133A      1.883383
     134A      1.891364   135A      1.908552   136A      1.911949
     137A      1.914175   138A      1.925003   139A      1.933386
     140A      1.940937   141A      1.945570   142A      1.946798
     143A      1.961932   144A      1.968466   145A      1.971061
     146A      1.979064   147A      1.988186   148A      2.004791
     149A      2.036605   150A      2.065434   151A      2.070975
     152A      2.094295   153A      2.104712   154A      2.118092
     155A      2.144849   156A      2.155327   157A      2.168734
     158A      2.185074   159A      2.190115   160A      2.258300
     161A      2.279683   162A      2.292072   163A      2.298277
     164A      2.299800   165A      2.301993   166A      2.314875
     167A      2.349774   168A      2.447275   169A      2.468785
     170A      2.471955   171A      2.480013   172A      2.495005
     173A      2.541187   174A      2.558520   175A      2.570097
     176A      2.620179   177A      2.740397   178A      2.755458
     179A      2.761558   180A      2.766013   181A      2.784985
     182A      2.792171   183A      2.815020   184A      2.844291
     185A      2.847780   186A      2.853437   187A      2.873312
     188A      2.950624   189A      2.955878   190A      2.982433
     191A      3.009492   192A      3.022838   193A      3.152960
     194A      3.198824   195A      3.298007   196A      3.962195

    Final Occupation by Irrep:
              A
    DOCC [    34 ]

  @RHF Final Energy:  -348.99348188272683

   => Energetics <=

    Nuclear Repulsion Energy =            394.2279339241939056
    One-Electron Energy =               -1251.1376586169935763
    Two-Electron Energy =                 507.9162428100729016
    Total Energy =                       -348.9934818827268259

Computation Completed

Properties will be evaluated at   0.000000,   0.000000,   0.000000 [a0]

Properties computed using the SCF density matrix

  Nuclear Dipole Moment: [e a0]
     X:   -10.6399      Y:     2.0125      Z:     5.1224

  Electronic Dipole Moment: [e a0]
     X:    10.6426      Y:    -2.0950      Z:    -5.1936

  Dipole Moment: [e a0]
     X:     0.0027      Y:    -0.0826      Z:    -0.0713     Total:     0.1091

  Dipole Moment: [D]
     X:     0.0068      Y:    -0.2099      Z:    -0.1811     Total:     0.2773

*** tstop() called on ds3 at Tue Apr 28 13:53:35 2020
Module time:
	user time   =      57.77 seconds =       0.96 minutes
	system time =      26.80 seconds =       0.45 minutes
	total time  =        136 seconds =       2.27 minutes
Total time:
	user time   =      57.77 seconds =       0.96 minutes
	system time =      26.80 seconds =       0.45 minutes
	total time  =        136 seconds =       2.27 minutes
                                     G D M A

                                 by Anthony Stone

                           version 2.2.06, 22 June 2011

               Distributed Multipoles from Gaussian wavefunctions

Starting at 13:53:35 on 28 Apr 2020

Using SCF density matrix from file ./SSI/SSI-065ALA-070PHE-1-dimer.test.23450.fchk

                         Distributed Multipole Analysis

Standard DMA

Positions and radii in angstrom
Multipole moments in atomic units, ea_0^k for rank k

C          x = -2.986311  y =  1.825745  z =  1.795900 angstrom
           Maximum rank =  0   Radius =  0.650 angstrom
                   Q00  =  -0.241566

C          x = -4.285311  y =  1.305745  z =  2.427900 angstrom
           Maximum rank =  0   Radius =  0.650 angstrom
                   Q00  =  -0.238612

H          x = -2.151311  y =  1.679745  z =  2.481900 angstrom
           Maximum rank =  0   Radius =  0.325 angstrom
                   Q00  =   0.076730

H          x = -2.793311  y =  1.288745  z =  0.867900 angstrom
           Maximum rank =  0   Radius =  0.325 angstrom
                   Q00  =   0.081443

H          x = -3.085311  y =  2.887745  z =  1.566900 angstrom
           Maximum rank =  0   Radius =  0.325 angstrom
                   Q00  =   0.082108

H          x = -5.090311  y =  1.451745  z =  1.707900 angstrom
           Maximum rank =  0   Radius =  0.325 angstrom
                   Q00  =   0.078591

H          x = -4.535311  y =  1.876743  z =  3.334250 angstrom
           Maximum rank =  0   Radius =  0.325 angstrom
                   Q00  =   0.080921

H          x = -4.214015  y =  0.229820  z =  2.645390 angstrom
           Maximum rank =  0   Radius =  0.325 angstrom
                   Q00  =   0.079794

C          x =  1.847689  y = -2.604255  z = -1.781100 angstrom
           Maximum rank =  0   Radius =  0.650 angstrom
                   Q00  =  -0.199341

C          x = -0.051311  y = -0.091255  z =  0.347900 angstrom
           Maximum rank =  0   Radius =  0.650 angstrom
                   Q00  =  -0.077873

C          x =  0.339689  y = -1.283255  z = -0.257100 angstrom
           Maximum rank =  0   Radius =  0.650 angstrom
                   Q00  =  -0.044118

C          x =  0.675689  y =  1.078745  z =  0.129900 angstrom
           Maximum rank =  0   Radius =  0.650 angstrom
                   Q00  =  -0.087175

C          x =  1.448689  y = -1.316255  z = -1.104100 angstrom
           Maximum rank =  0   Radius =  0.650 angstrom
                   Q00  =  -0.104637

C          x =  1.793689  y =  1.050745  z = -0.698100 angstrom
           Maximum rank =  0   Radius =  0.650 angstrom
                   Q00  =  -0.078134

C          x =  2.170689  y = -0.146255  z = -1.320100 angstrom
           Maximum rank =  0   Radius =  0.650 angstrom
                   Q00  =  -0.014654

H          x = -0.914311  y = -0.082255  z =  0.996900 angstrom
           Maximum rank =  0   Radius =  0.325 angstrom
                   Q00  =   0.065520

H          x = -0.228311  y = -2.184255  z = -0.079100 angstrom
           Maximum rank =  0   Radius =  0.325 angstrom
                   Q00  =   0.055490

H          x =  0.368689  y =  2.002745  z =  0.598900 angstrom
           Maximum rank =  0   Radius =  0.325 angstrom
                   Q00  =   0.062136

H          x =  2.361689  y =  1.953745  z = -0.871100 angstrom
           Maximum rank =  0   Radius =  0.325 angstrom
                   Q00  =   0.065589

H          x =  1.635689  y = -3.440255  z = -1.112100 angstrom
           Maximum rank =  0   Radius =  0.325 angstrom
                   Q00  =   0.098087

H          x =  2.925689  y = -2.589255  z = -1.951100 angstrom
           Maximum rank =  0   Radius =  0.325 angstrom
                   Q00  =   0.096972

H          x =  3.028689  y = -0.156255  z = -1.979100 angstrom
           Maximum rank =  0   Radius =  0.325 angstrom
                   Q00  =   0.057344

H          x =  1.342104  y = -2.772066  z = -2.743500 angstrom
           Maximum rank =  0   Radius =  0.325 angstrom
                   Q00  =   0.105386

Total multipoles referred to origin at
           x =   0.000000,  y =    0.000000,  z =    0.000000 angstrom
                   Q00  =  -0.000000

Finished at 13:53:35 on 28 Apr 2020

  DMA results are available in the Python driver through the
	  variable('DMA DISTRIBUTED MULTIPOLES')
  and
	  variable('DMA TOTAL MULTIPOLES')
  commands.

    Psi4 stopped on: Tuesday, 28 April 2020 01:53PM
    Psi4 wall time for execution: 0:02:16.79

*** Psi4 exiting successfully. Buy a developer a beer!
