                               Psi4 1.3.2 release

  ==> Input File <==

--------------------------------------------------------------------------
import numpy as np
set {scf_type pk
basis cc-pvdz
d_convergence 10
gdma_switch   0
gdma_limit    0
gdma_origin   [ 0.0,  0.0,  0.0 ]
}
molecule test {
    units Angstrom
    0 1
    --
    0 1
    C                0.401194682140239     2.455109939208151     1.190668232948646
    C                0.374194682140239     1.277109939208150     0.219668232948646
    O               -0.672805317859761     0.598109939208151     0.110668232948646
    O                1.413194682140239     1.015109939208151    -0.428331767051354
    H                0.825194682140239     3.335109939208150     0.702668232948646
    H                1.054194682140239     2.185109939208151     2.022668232948647
    H               -0.592945317859761     2.699347939208151     1.593195232948646
    C               -0.967805317859761    -2.930890060791850     0.068668232948646
    N               -0.461805317859761    -2.046890060791850    -1.014331767051354
    H                0.519194682140239    -2.205890060791849    -1.206331767051354
    H               -0.976805317859761    -2.183890060791849    -1.875331767051354
    H               -0.565805317859761    -1.063890060791849    -0.740331767051354
    H               -0.807805317859761    -3.982890060791850    -0.194331767051354
    H               -2.042805317859761    -2.775890060791850     0.205668232948646
    H               -0.455385317859761    -2.711177060791850     1.016903232948646

}
e, wfn = energy('scf', return_wfn=True)
gdma(wfn)
dmavals = variable('DMA DISTRIBUTED MULTIPOLES')
charges = np.array(dmavals)
print(charges)
np.save('SSI-048ASP-131LYS-1-dimer.npy', np.array(charges))--------------------------------------------------------------------------

*** tstart() called on ds3
*** at Tue Apr 28 11:09:20 2020

   => Loading Basis Set <=

    Name: CC-PVDZ
    Role: ORBITAL
    Keyword: BASIS
    atoms 1-2, 8     entry C          line   138 file /theoryfs2/ds/metcalf/miniconda2/envs/tf2gpu/share/psi4/basis/cc-pvdz.gbs
    atoms 3-4        entry O          line   198 file /theoryfs2/ds/metcalf/miniconda2/envs/tf2gpu/share/psi4/basis/cc-pvdz.gbs
    atoms 5-7, 10-15 entry H          line    22 file /theoryfs2/ds/metcalf/miniconda2/envs/tf2gpu/share/psi4/basis/cc-pvdz.gbs
    atoms 9          entry N          line   168 file /theoryfs2/ds/metcalf/miniconda2/envs/tf2gpu/share/psi4/basis/cc-pvdz.gbs

         ---------------------------------------------------------
                                   SCF
               by Justin Turney, Rob Parrish, Andy Simmonett
                          and Daniel G. A. Smith
                              RHF Reference
                        1 Threads,    500 MiB Core
         ---------------------------------------------------------

  ==> Geometry <==

    Molecular point group: c1
    Full point group: C1

    Geometry (in Angstrom), charge = 0, multiplicity = 1:

       Center              X                  Y                   Z               Mass
    ------------   -----------------  -----------------  -----------------  -----------------
         C            0.401194682140     2.455109939208     1.190668232949    12.000000000000
         C            0.374194682140     1.277109939208     0.219668232949    12.000000000000
         O           -0.672805317860     0.598109939208     0.110668232949    15.994914619570
         O            1.413194682140     1.015109939208    -0.428331767051    15.994914619570
         H            0.825194682140     3.335109939208     0.702668232949     1.007825032230
         H            1.054194682140     2.185109939208     2.022668232949     1.007825032230
         H           -0.592945317860     2.699347939208     1.593195232949     1.007825032230
         C           -0.967805317860    -2.930890060792     0.068668232949    12.000000000000
         N           -0.461805317860    -2.046890060792    -1.014331767051    14.003074004430
         H            0.519194682140    -2.205890060792    -1.206331767051     1.007825032230
         H           -0.976805317860    -2.183890060792    -1.875331767051     1.007825032230
         H           -0.565805317860    -1.063890060792    -0.740331767051     1.007825032230
         H           -0.807805317860    -3.982890060792    -0.194331767051     1.007825032230
         H           -2.042805317860    -2.775890060792     0.205668232949     1.007825032230
         H           -0.455385317860    -2.711177060792     1.016903232949     1.007825032230

  Running in c1 symmetry.

  Rotational constants: A =      0.24616  B =      0.04176  C =      0.03831 [cm^-1]
  Rotational constants: A =   7379.81488  B =   1252.04969  C =   1148.39755 [MHz]
  Nuclear repulsion =  237.627367616509019

  Charge       = 0
  Multiplicity = 1
  Electrons    = 50
  Nalpha       = 25
  Nbeta        = 25

  ==> Algorithm <==

  SCF Algorithm Type is PK.
  DIIS enabled.
  MOM disabled.
  Fractional occupation disabled.
  Guess Type is SAD.
  Energy threshold   = 1.00e-06
  Density threshold  = 1.00e-10
  Integral threshold = 0.00e+00

  ==> Primary Basis <==

  Basis Set: CC-PVDZ
    Blend: CC-PVDZ
    Number of shells: 63
    Number of basis function: 129
    Number of Cartesian functions: 135
    Spherical Harmonics?: true
    Max angular momentum: 2

  ==> Pre-Iterations <==

   -------------------------------------------------------
    Irrep   Nso     Nmo     Nalpha   Nbeta   Ndocc  Nsocc
   -------------------------------------------------------
     A        129     129       0       0       0       0
   -------------------------------------------------------
    Total     129     129      25      25      25       0
   -------------------------------------------------------

  ==> Integral Setup <==

  Using integral reordering PK algorithm.
  Sizing the integral batches needed.
  Building batch lookup table.
   Calculation information:
      Number of atoms:                  15
      Number of AO shells:              63
      Number of primitives:            177
      Number of atomic orbitals:       135
      Number of basis functions:       129

      Integral cutoff                 1.00e-12
      Number of threads:                 1

	Batch   1 pq = [       0,    8385] index = [             0,35158305] size =     35158305
  Task number: 4
  Buffer size: 11059200
  Buffer per thread: 2
  We computed 1662604 shell quartets total.
  Whereas there are 2033136 unique shell quartets.

  ==> DiskJK: Disk-Based J/K Matrices <==

    J tasked:                  Yes
    K tasked:                  Yes
    wK tasked:                  No
    Memory [MiB]:              375
    Schwarz Cutoff:          1E-12

    OpenMP threads:              1

  Minimum eigenvalue in the overlap matrix is 5.3403914985E-03.
  Using Symmetric Orthogonalization.

  SCF Guess: Superposition of Atomic Densities via on-the-fly atomic UHF.

  ==> Iterations <==

                        Total Energy        Delta E     RMS |[F,P]|

   @RHF iter SAD:  -321.69820951087604   -3.21698e+02   0.00000e+00
   @RHF iter   1:  -322.79298797349787   -1.09478e+00   5.21143e-03 DIIS
   @RHF iter   2:  -322.96154033154437   -1.68552e-01   2.88977e-03 DIIS
   @RHF iter   3:  -323.01057956613494   -4.90392e-02   4.72346e-04 DIIS
   @RHF iter   4:  -323.01306349876506   -2.48393e-03   1.57055e-04 DIIS
   @RHF iter   5:  -323.01334223769300   -2.78739e-04   3.16548e-05 DIIS
   @RHF iter   6:  -323.01335570266150   -1.34650e-05   1.63388e-05 DIIS
   @RHF iter   7:  -323.01335805067248   -2.34801e-06   3.61818e-06 DIIS
   @RHF iter   8:  -323.01335844065193   -3.89979e-07   1.65620e-06 DIIS
   @RHF iter   9:  -323.01335852052017   -7.98682e-08   4.78673e-07 DIIS
   @RHF iter  10:  -323.01335852702130   -6.50112e-09   1.50776e-07 DIIS
   @RHF iter  11:  -323.01335852739652   -3.75223e-10   3.89299e-08 DIIS
   @RHF iter  12:  -323.01335852742426   -2.77396e-11   9.89366e-09 DIIS
   @RHF iter  13:  -323.01335852742619   -1.93268e-12   3.27897e-09 DIIS
   @RHF iter  14:  -323.01335852742704   -8.52651e-13   1.16133e-09 DIIS
   @RHF iter  15:  -323.01335852742659    4.54747e-13   3.82969e-10 DIIS
   @RHF iter  16:  -323.01335852742585    7.38964e-13   1.84919e-10 DIIS
   @RHF iter  17:  -323.01335852742631   -4.54747e-13   6.44484e-11 DIIS
  Energy and wave function converged.

  ==> Post-Iterations <==

    Orbital Energies [Eh]
    ---------------------

    Doubly Occupied:

       1A    -20.429348     2A    -20.405518     3A    -15.729120
       4A    -11.347672     5A    -11.265520     6A    -11.170174
       7A     -1.353476     8A     -1.306237     9A     -1.189548
      10A     -1.015861    11A     -0.918473    12A     -0.814716
      13A     -0.804033    14A     -0.706444    15A     -0.644495
      16A     -0.621561    17A     -0.618439    18A     -0.552996
      19A     -0.541252    20A     -0.536257    21A     -0.477871
      22A     -0.449421    23A     -0.342925    24A     -0.321603
      25A     -0.319301

    Virtual:

      26A      0.102995    27A      0.158419    28A      0.169575
      29A      0.200276    30A      0.218826    31A      0.249828
      32A      0.277509    33A      0.282135    34A      0.311350
      35A      0.348496    36A      0.358962    37A      0.454216
      38A      0.510278    39A      0.526907    40A      0.549517
      41A      0.576251    42A      0.598869    43A      0.666927
      44A      0.689054    45A      0.703476    46A      0.764485
      47A      0.788134    48A      0.791121    49A      0.803027
      50A      0.809227    51A      0.837570    52A      0.856389
      53A      0.897588    54A      0.915096    55A      0.922866
      56A      0.931369    57A      0.944934    58A      0.968571
      59A      0.993015    60A      1.000837    61A      1.070046
      62A      1.085475    63A      1.113442    64A      1.191937
      65A      1.216101    66A      1.225014    67A      1.314104
      68A      1.367037    69A      1.415413    70A      1.429197
      71A      1.442279    72A      1.463934    73A      1.499489
      74A      1.509585    75A      1.581788    76A      1.593216
      77A      1.598555    78A      1.667486    79A      1.721020
      80A      1.731206    81A      1.780702    82A      1.819119
      83A      1.833610    84A      1.855059    85A      1.871938
      86A      1.888460    87A      1.921022    88A      1.959605
      89A      1.976814    90A      1.999928    91A      2.070403
      92A      2.082118    93A      2.093253    94A      2.105876
      95A      2.106959    96A      2.128419    97A      2.161651
      98A      2.202726    99A      2.282931   100A      2.307651
     101A      2.316506   102A      2.403579   103A      2.420993
     104A      2.447240   105A      2.532639   106A      2.559130
     107A      2.599261   108A      2.628265   109A      2.636560
     110A      2.658095   111A      2.674798   112A      2.800675
     113A      2.845130   114A      2.866042   115A      2.878768
     116A      2.884508   117A      2.928431   118A      3.083892
     119A      3.127376   120A      3.136965   121A      3.197979
     122A      3.253033   123A      3.332288   124A      3.481393
     125A      3.629061   126A      3.668773   127A      3.911453
     128A      3.927752   129A      4.060384

    Final Occupation by Irrep:
              A
    DOCC [    25 ]

  @RHF Final Energy:  -323.01335852742631

   => Energetics <=

    Nuclear Repulsion Energy =            237.6273676165090194
    One-Electron Energy =                -913.5169306501196615
    Two-Electron Energy =                 352.8762045061843651
    Total Energy =                       -323.0133585274263055

Computation Completed

Properties will be evaluated at   0.000000,   0.000000,   0.000000 [a0]

Properties computed using the SCF density matrix

  Nuclear Dipole Moment: [e a0]
     X:    -2.8478      Y:    -6.2712      Z:     1.4309

  Electronic Dipole Moment: [e a0]
     X:     1.4739      Y:     2.0088      Z:    -2.2145

  Dipole Moment: [e a0]
     X:    -1.3739      Y:    -4.2624      Z:    -0.7836     Total:     4.5464

  Dipole Moment: [D]
     X:    -3.4920      Y:   -10.8339      Z:    -1.9917     Total:    11.5557

*** tstop() called on ds3 at Tue Apr 28 11:09:38 2020
Module time:
	user time   =      12.63 seconds =       0.21 minutes
	system time =       5.38 seconds =       0.09 minutes
	total time  =         18 seconds =       0.30 minutes
Total time:
	user time   =      12.63 seconds =       0.21 minutes
	system time =       5.38 seconds =       0.09 minutes
	total time  =         18 seconds =       0.30 minutes
                                     G D M A

                                 by Anthony Stone

                           version 2.2.06, 22 June 2011

               Distributed Multipoles from Gaussian wavefunctions

Starting at 11:9:38 on 28 Apr 2020

Using SCF density matrix from file ./SSI/SSI-048ASP-131LYS-1-dimer.test.30538.fchk

                         Distributed Multipole Analysis

Standard DMA

Positions and radii in angstrom
Multipole moments in atomic units, ea_0^k for rank k

C          x =  0.401195  y =  2.455110  z =  1.190668 angstrom
           Maximum rank =  0   Radius =  0.650 angstrom
                   Q00  =  -0.262513

C          x =  0.374195  y =  1.277110  z =  0.219668 angstrom
           Maximum rank =  0   Radius =  0.650 angstrom
                   Q00  =   0.886108

O          x = -0.672805  y =  0.598110  z =  0.110668 angstrom
           Maximum rank =  0   Radius =  0.650 angstrom
                   Q00  =  -0.965530

O          x =  1.413195  y =  1.015110  z = -0.428332 angstrom
           Maximum rank =  0   Radius =  0.650 angstrom
                   Q00  =  -0.896461

H          x =  0.825195  y =  3.335110  z =  0.702668 angstrom
           Maximum rank =  0   Radius =  0.325 angstrom
                   Q00  =   0.096397

H          x =  1.054195  y =  2.185110  z =  2.022668 angstrom
           Maximum rank =  0   Radius =  0.325 angstrom
                   Q00  =   0.096836

H          x = -0.592945  y =  2.699348  z =  1.593195 angstrom
           Maximum rank =  0   Radius =  0.325 angstrom
                   Q00  =   0.074181

C          x = -0.967805  y = -2.930890  z =  0.068668 angstrom
           Maximum rank =  0   Radius =  0.650 angstrom
                   Q00  =  -0.130490

N          x = -0.461805  y = -2.046890  z = -1.014332 angstrom
           Maximum rank =  0   Radius =  0.650 angstrom
                   Q00  =  -0.106593

H          x =  0.519195  y = -2.205890  z = -1.206332 angstrom
           Maximum rank =  0   Radius =  0.325 angstrom
                   Q00  =   0.242480

H          x = -0.976805  y = -2.183890  z = -1.875332 angstrom
           Maximum rank =  0   Radius =  0.325 angstrom
                   Q00  =   0.219653

H          x = -0.565805  y = -1.063890  z = -0.740332 angstrom
           Maximum rank =  0   Radius =  0.325 angstrom
                   Q00  =   0.317129

H          x = -0.807805  y = -3.982890  z = -0.194332 angstrom
           Maximum rank =  0   Radius =  0.325 angstrom
                   Q00  =   0.119140

H          x = -2.042805  y = -2.775890  z =  0.205668 angstrom
           Maximum rank =  0   Radius =  0.325 angstrom
                   Q00  =   0.148385

H          x = -0.455385  y = -2.711177  z =  1.016903 angstrom
           Maximum rank =  0   Radius =  0.325 angstrom
                   Q00  =   0.161277

Total multipoles referred to origin at
           x =   0.000000,  y =    0.000000,  z =    0.000000 angstrom
                   Q00  =  -0.000000

Finished at 11:9:38 on 28 Apr 2020

  DMA results are available in the Python driver through the
	  variable('DMA DISTRIBUTED MULTIPOLES')
  and
	  variable('DMA TOTAL MULTIPOLES')
  commands.

    Psi4 stopped on: Tuesday, 28 April 2020 11:09AM
    Psi4 wall time for execution: 0:00:18.20

*** Psi4 exiting successfully. Buy a developer a beer!
