                               Psi4 1.3.2 release

  ==> Input File <==

--------------------------------------------------------------------------
import numpy as np
set {scf_type pk
basis cc-pvdz
d_convergence 10
gdma_switch   0
gdma_limit    0
gdma_origin   [ 0.0,  0.0,  0.0 ]
}
molecule test {
    units Angstrom
    1 1
    --
    1 1
    C                1.576238568742452    -0.801297334312287    -2.379256487417940
    C                0.260238568742453    -0.088297334312287    -2.666256487417940
    O               -0.165761431257547     0.076702665687713    -3.795256487417940
    N               -0.472761431257547     0.350702665687713    -1.673256487417940
    H               -1.338761431257548     0.818702665687713    -1.914256487417940
    H               -0.170761431257547     0.194702665687713    -0.734256487417940
    H                2.264238568742452    -0.083297334312287    -1.931256487417940
    H                2.001238568742453    -1.162297334312287    -3.314256487417940
    H                1.418868568742452    -1.646087334312287    -1.692546487417940
    C                0.813238568742452     1.642702665687713     1.321743512582060
    C               -0.457761431257547    -0.291297334312287     2.262743512582060
    N               -1.045761431257547    -0.604297334312287     1.109743512582060
    N                0.403238568742453     0.733702665687713     2.401743512582061
    N               -0.768761431257547    -1.032297334312287     3.309743512582060
    H               -1.477761431257547     0.185702665687713     0.648743512582060
    H               -1.599761431257548    -1.448297334312287     1.075743512582060
    H                0.750238568742453     0.925702665687713     3.336743512582061
    H               -0.401761431257547    -0.777297334312287     4.216743512582060
    H               -1.473761431257548    -1.750297334312287     3.254743512582060
    H                0.448238568742452     2.643702665687712     1.564743512582060
    H                0.381238568742452     1.367702665687713     0.370743512582060
    H                1.907628568742453     1.687642665687713     1.220273512582060

}
e, wfn = energy('scf', return_wfn=True)
gdma(wfn)
dmavals = variable('DMA DISTRIBUTED MULTIPOLES')
charges = np.array(dmavals)
print(charges)
np.save('SSI-009ASN-024ARG-1-dimer.npy', np.array(charges))--------------------------------------------------------------------------

*** tstart() called on ds3
*** at Tue Apr 28 09:18:07 2020

   => Loading Basis Set <=

    Name: CC-PVDZ
    Role: ORBITAL
    Keyword: BASIS
    atoms 1-2, 10-11 entry C          line   138 file /theoryfs2/ds/metcalf/miniconda2/envs/tf2gpu/share/psi4/basis/cc-pvdz.gbs
    atoms 3          entry O          line   198 file /theoryfs2/ds/metcalf/miniconda2/envs/tf2gpu/share/psi4/basis/cc-pvdz.gbs
    atoms 4, 12-14   entry N          line   168 file /theoryfs2/ds/metcalf/miniconda2/envs/tf2gpu/share/psi4/basis/cc-pvdz.gbs
    atoms 5-9, 15-22 entry H          line    22 file /theoryfs2/ds/metcalf/miniconda2/envs/tf2gpu/share/psi4/basis/cc-pvdz.gbs

         ---------------------------------------------------------
                                   SCF
               by Justin Turney, Rob Parrish, Andy Simmonett
                          and Daniel G. A. Smith
                              RHF Reference
                        1 Threads,    500 MiB Core
         ---------------------------------------------------------

  ==> Geometry <==

    Molecular point group: c1
    Full point group: C1

    Geometry (in Angstrom), charge = 1, multiplicity = 1:

       Center              X                  Y                   Z               Mass
    ------------   -----------------  -----------------  -----------------  -----------------
         C            1.576238568742    -0.801297334312    -2.379256487418    12.000000000000
         C            0.260238568742    -0.088297334312    -2.666256487418    12.000000000000
         O           -0.165761431258     0.076702665688    -3.795256487418    15.994914619570
         N           -0.472761431258     0.350702665688    -1.673256487418    14.003074004430
         H           -1.338761431258     0.818702665688    -1.914256487418     1.007825032230
         H           -0.170761431258     0.194702665688    -0.734256487418     1.007825032230
         H            2.264238568742    -0.083297334312    -1.931256487418     1.007825032230
         H            2.001238568742    -1.162297334312    -3.314256487418     1.007825032230
         H            1.418868568742    -1.646087334312    -1.692546487418     1.007825032230
         C            0.813238568742     1.642702665688     1.321743512582    12.000000000000
         C           -0.457761431258    -0.291297334312     2.262743512582    12.000000000000
         N           -1.045761431258    -0.604297334312     1.109743512582    14.003074004430
         N            0.403238568742     0.733702665688     2.401743512582    14.003074004430
         N           -0.768761431258    -1.032297334312     3.309743512582    14.003074004430
         H           -1.477761431258     0.185702665688     0.648743512582     1.007825032230
         H           -1.599761431258    -1.448297334312     1.075743512582     1.007825032230
         H            0.750238568742     0.925702665688     3.336743512582     1.007825032230
         H           -0.401761431258    -0.777297334312     4.216743512582     1.007825032230
         H           -1.473761431258    -1.750297334312     3.254743512582     1.007825032230
         H            0.448238568742     2.643702665688     1.564743512582     1.007825032230
         H            0.381238568742     1.367702665688     0.370743512582     1.007825032230
         H            1.907628568742     1.687642665688     1.220273512582     1.007825032230

  Running in c1 symmetry.

  Rotational constants: A =      0.09388  B =      0.01884  C =      0.01770 [cm^-1]
  Rotational constants: A =   2814.40819  B =    564.85304  C =    530.64993 [MHz]
  Nuclear repulsion =  463.162390768639796

  Charge       = 1
  Multiplicity = 1
  Electrons    = 72
  Nalpha       = 36
  Nbeta        = 36

  ==> Algorithm <==

  SCF Algorithm Type is PK.
  DIIS enabled.
  MOM disabled.
  Fractional occupation disabled.
  Guess Type is SAD.
  Energy threshold   = 1.00e-06
  Density threshold  = 1.00e-10
  Integral threshold = 0.00e+00

  ==> Primary Basis <==

  Basis Set: CC-PVDZ
    Blend: CC-PVDZ
    Number of shells: 93
    Number of basis function: 191
    Number of Cartesian functions: 200
    Spherical Harmonics?: true
    Max angular momentum: 2

  ==> Pre-Iterations <==

   -------------------------------------------------------
    Irrep   Nso     Nmo     Nalpha   Nbeta   Ndocc  Nsocc
   -------------------------------------------------------
     A        191     191       0       0       0       0
   -------------------------------------------------------
    Total     191     191      36      36      36       0
   -------------------------------------------------------

  ==> Integral Setup <==

  Using integral reordering PK algorithm.
  Sizing the integral batches needed.
  Building batch lookup table.
   Calculation information:
      Number of atoms:                  22
      Number of AO shells:              93
      Number of primitives:            263
      Number of atomic orbitals:       200
      Number of basis functions:       191

      Integral cutoff                 1.00e-12
      Number of threads:                 1

	Batch   1 pq = [       0,    9405] index = [             0,44231715] size =     44231715
	Batch   2 pq = [    9405,   13301] index = [      44231715,88464951] size =     44233236
	Batch   3 pq = [   13301,   16290] index = [      88464951,132690195] size =     44225244
	Batch   4 pq = [   16290,   18336] index = [     132690195,168113616] size =     35423421
  Task number: 16
  Buffer size: 11059200
  Buffer per thread: 2
  We computed 8228789 shell quartets total.
  Whereas there are 9555006 unique shell quartets.

  ==> DiskJK: Disk-Based J/K Matrices <==

    J tasked:                  Yes
    K tasked:                  Yes
    wK tasked:                  No
    Memory [MiB]:              375
    Schwarz Cutoff:          1E-12

    OpenMP threads:              1

  Minimum eigenvalue in the overlap matrix is 3.9423123427E-03.
  Using Symmetric Orthogonalization.

  SCF Guess: Superposition of Atomic Densities via on-the-fly atomic UHF.

  ==> Iterations <==

                        Total Energy        Delta E     RMS |[F,P]|

   @RHF iter SAD:  -450.80579962085943   -4.50806e+02   0.00000e+00
   @RHF iter   1:  -451.26136437036274   -4.55565e-01   3.77264e-03 DIIS
   @RHF iter   2:  -451.48328061447245   -2.21916e-01   2.00066e-03 DIIS
   @RHF iter   3:  -451.53760071148724   -5.43201e-02   4.76817e-04 DIIS
   @RHF iter   4:  -451.54240069899964   -4.79999e-03   1.82994e-04 DIIS
   @RHF iter   5:  -451.54312184572922   -7.21147e-04   3.36965e-05 DIIS
   @RHF iter   6:  -451.54317738597945   -5.55403e-05   1.55197e-05 DIIS
   @RHF iter   7:  -451.54318630474370   -8.91876e-06   5.64261e-06 DIIS
   @RHF iter   8:  -451.54318790077917   -1.59604e-06   1.77674e-06 DIIS
   @RHF iter   9:  -451.54318807333732   -1.72558e-07   5.20866e-07 DIIS
   @RHF iter  10:  -451.54318808524857   -1.19113e-08   1.87965e-07 DIIS
   @RHF iter  11:  -451.54318808649555   -1.24697e-09   3.74999e-08 DIIS
   @RHF iter  12:  -451.54318808654432   -4.87717e-11   1.19189e-08 DIIS
   @RHF iter  13:  -451.54318808655324   -8.92442e-12   3.30678e-09 DIIS
   @RHF iter  14:  -451.54318808655631   -3.06954e-12   9.37357e-10 DIIS
   @RHF iter  15:  -451.54318808655796   -1.64846e-12   3.32236e-10 DIIS
   @RHF iter  16:  -451.54318808655523    2.72848e-12   1.28689e-10 DIIS
   @RHF iter  17:  -451.54318808655813   -2.89901e-12   5.07726e-11 DIIS
  Energy and wave function converged.

  ==> Post-Iterations <==

    Orbital Energies [Eh]
    ---------------------

    Doubly Occupied:

       1A    -20.596876     2A    -15.811077     3A    -15.809200
       4A    -15.802074     5A    -15.694285     6A    -11.612910
       7A    -11.451228     8A    -11.440771     9A    -11.339707
      10A     -1.560970    11A     -1.476138    12A     -1.421219
      13A     -1.408029    14A     -1.325857    15A     -1.154120
      16A     -1.097006    17A     -1.054477    18A     -0.989938
      19A     -0.957966    20A     -0.910732    21A     -0.886785
      22A     -0.873499    23A     -0.851199    24A     -0.814840
      25A     -0.809394    26A     -0.753744    27A     -0.749107
      28A     -0.740209    29A     -0.712757    30A     -0.667738
      31A     -0.653832    32A     -0.641564    33A     -0.627239
      34A     -0.600334    35A     -0.504782    36A     -0.502877

    Virtual:

      37A     -0.030482    38A     -0.015671    39A      0.014294
      40A      0.020926    41A      0.054874    42A      0.064118
      43A      0.083961    44A      0.100899    45A      0.105886
      46A      0.109253    47A      0.133969    48A      0.152579
      49A      0.161748    50A      0.175555    51A      0.185082
      52A      0.223021    53A      0.254375    54A      0.293398
      55A      0.311312    56A      0.335265    57A      0.366986
      58A      0.428617    59A      0.432739    60A      0.458228
      61A      0.490788    62A      0.501301    63A      0.518343
      64A      0.525490    65A      0.540061    66A      0.556886
      67A      0.565114    68A      0.592917    69A      0.613757
      70A      0.620823    71A      0.641281    72A      0.651807
      73A      0.670079    74A      0.678116    75A      0.692914
      76A      0.708448    77A      0.727643    78A      0.738059
      79A      0.756194    80A      0.772665    81A      0.782485
      82A      0.786249    83A      0.801649    84A      0.810918
      85A      0.824763    86A      0.841757    87A      0.864327
      88A      0.882930    89A      0.897500    90A      0.904070
      91A      0.936212    92A      0.974782    93A      0.990246
      94A      1.019320    95A      1.032477    96A      1.054090
      97A      1.072729    98A      1.095300    99A      1.106356
     100A      1.147541   101A      1.177665   102A      1.180089
     103A      1.234586   104A      1.252420   105A      1.264858
     106A      1.287467   107A      1.305987   108A      1.331627
     109A      1.344142   110A      1.362233   111A      1.386078
     112A      1.423064   113A      1.478865   114A      1.505297
     115A      1.510258   116A      1.534252   117A      1.542962
     118A      1.567005   119A      1.572776   120A      1.603292
     121A      1.615823   122A      1.628775   123A      1.662162
     124A      1.669082   125A      1.705130   126A      1.720842
     127A      1.729750   128A      1.744617   129A      1.761695
     130A      1.770814   131A      1.785383   132A      1.799802
     133A      1.816300   134A      1.827326   135A      1.834806
     136A      1.842003   137A      1.875134   138A      1.891266
     139A      1.932341   140A      1.956254   141A      1.970720
     142A      1.990404   143A      2.017692   144A      2.031831
     145A      2.055196   146A      2.070021   147A      2.106687
     148A      2.134464   149A      2.159199   150A      2.168978
     151A      2.195852   152A      2.242598   153A      2.271158
     154A      2.296218   155A      2.310384   156A      2.324899
     157A      2.354422   158A      2.370313   159A      2.418556
     160A      2.426285   161A      2.442133   162A      2.458475
     163A      2.493305   164A      2.518138   165A      2.555008
     166A      2.606801   167A      2.626376   168A      2.633861
     169A      2.661669   170A      2.669184   171A      2.684889
     172A      2.707978   173A      2.736291   174A      2.764756
     175A      2.776345   176A      2.788794   177A      2.831982
     178A      2.908703   179A      2.918046   180A      2.998795
     181A      3.005870   182A      3.057539   183A      3.058980
     184A      3.102606   185A      3.298068   186A      3.402024
     187A      3.425908   188A      3.491299   189A      3.540326
     190A      3.798191   191A      3.838641

    Final Occupation by Irrep:
              A
    DOCC [    36 ]

  @RHF Final Energy:  -451.54318808655813

   => Energetics <=

    Nuclear Repulsion Energy =            463.1623907686397956
    One-Electron Energy =               -1520.8021939548157206
    Two-Electron Energy =                 606.0966150996176793
    Total Energy =                       -451.5431880865581888

Computation Completed

Properties will be evaluated at   0.000000,   0.000000,   0.000000 [a0]

Properties computed using the SCF density matrix

  Nuclear Dipole Moment: [e a0]
     X:     2.5444      Y:     0.8985      Z:     5.6872

  Electronic Dipole Moment: [e a0]
     X:    -3.2978      Y:    -1.1314      Z:     0.2098

  Dipole Moment: [e a0]
     X:    -0.7534      Y:    -0.2330      Z:     5.8970     Total:     5.9495

  Dipole Moment: [D]
     X:    -1.9150      Y:    -0.5921      Z:    14.9886     Total:    15.1220

*** tstop() called on ds3 at Tue Apr 28 09:19:36 2020
Module time:
	user time   =      61.09 seconds =       1.02 minutes
	system time =      31.19 seconds =       0.52 minutes
	total time  =         89 seconds =       1.48 minutes
Total time:
	user time   =      61.09 seconds =       1.02 minutes
	system time =      31.19 seconds =       0.52 minutes
	total time  =         89 seconds =       1.48 minutes
                                     G D M A

                                 by Anthony Stone

                           version 2.2.06, 22 June 2011

               Distributed Multipoles from Gaussian wavefunctions

Starting at 9:19:36 on 28 Apr 2020

Using SCF density matrix from file ./SSI/SSI-009ASN-024ARG-1-dimer.test.10073.fchk

                         Distributed Multipole Analysis

Standard DMA

Positions and radii in angstrom
Multipole moments in atomic units, ea_0^k for rank k

C          x =  1.576239  y = -0.801297  z = -2.379256 angstrom
           Maximum rank =  0   Radius =  0.650 angstrom
                   Q00  =  -0.269203

C          x =  0.260239  y = -0.088297  z = -2.666256 angstrom
           Maximum rank =  0   Radius =  0.650 angstrom
                   Q00  =   0.796643

O          x = -0.165761  y =  0.076703  z = -3.795256 angstrom
           Maximum rank =  0   Radius =  0.650 angstrom
                   Q00  =  -0.781872

N          x = -0.472761  y =  0.350703  z = -1.673256 angstrom
           Maximum rank =  0   Radius =  0.650 angstrom
                   Q00  =  -0.494294

H          x = -1.338761  y =  0.818703  z = -1.914256 angstrom
           Maximum rank =  0   Radius =  0.325 angstrom
                   Q00  =   0.232252

H          x = -0.170761  y =  0.194703  z = -0.734256 angstrom
           Maximum rank =  0   Radius =  0.325 angstrom
                   Q00  =   0.166969

H          x =  2.264239  y = -0.083297  z = -1.931256 angstrom
           Maximum rank =  0   Radius =  0.325 angstrom
                   Q00  =   0.110379

H          x =  2.001239  y = -1.162297  z = -3.314256 angstrom
           Maximum rank =  0   Radius =  0.325 angstrom
                   Q00  =   0.154580

H          x =  1.418869  y = -1.646087  z = -1.692546 angstrom
           Maximum rank =  0   Radius =  0.325 angstrom
                   Q00  =   0.102577

C          x =  0.813239  y =  1.642703  z =  1.321744 angstrom
           Maximum rank =  0   Radius =  0.650 angstrom
                   Q00  =  -0.093398

C          x = -0.457761  y = -0.291297  z =  2.262744 angstrom
           Maximum rank =  0   Radius =  0.650 angstrom
                   Q00  =   1.075826

N          x = -1.045761  y = -0.604297  z =  1.109744 angstrom
           Maximum rank =  0   Radius =  0.650 angstrom
                   Q00  =  -0.580455

N          x =  0.403239  y =  0.733703  z =  2.401744 angstrom
           Maximum rank =  0   Radius =  0.650 angstrom
                   Q00  =  -0.494503

N          x = -0.768761  y = -1.032297  z =  3.309744 angstrom
           Maximum rank =  0   Radius =  0.650 angstrom
                   Q00  =  -0.583306

H          x = -1.477761  y =  0.185703  z =  0.648744 angstrom
           Maximum rank =  0   Radius =  0.325 angstrom
                   Q00  =   0.256398

H          x = -1.599761  y = -1.448297  z =  1.075744 angstrom
           Maximum rank =  0   Radius =  0.325 angstrom
                   Q00  =   0.263822

H          x =  0.750239  y =  0.925703  z =  3.336744 angstrom
           Maximum rank =  0   Radius =  0.325 angstrom
                   Q00  =   0.243644

H          x = -0.401761  y = -0.777297  z =  4.216744 angstrom
           Maximum rank =  0   Radius =  0.325 angstrom
                   Q00  =   0.262933

H          x = -1.473761  y = -1.750297  z =  3.254744 angstrom
           Maximum rank =  0   Radius =  0.325 angstrom
                   Q00  =   0.273570

H          x =  0.448239  y =  2.643703  z =  1.564744 angstrom
           Maximum rank =  0   Radius =  0.325 angstrom
                   Q00  =   0.138912

H          x =  0.381239  y =  1.367703  z =  0.370744 angstrom
           Maximum rank =  0   Radius =  0.325 angstrom
                   Q00  =   0.066081

H          x =  1.907629  y =  1.687643  z =  1.220274 angstrom
           Maximum rank =  0   Radius =  0.325 angstrom
                   Q00  =   0.152444

Total multipoles referred to origin at
           x =   0.000000,  y =    0.000000,  z =    0.000000 angstrom
                   Q00  =   1.000000

Finished at 9:19:36 on 28 Apr 2020

  DMA results are available in the Python driver through the
	  variable('DMA DISTRIBUTED MULTIPOLES')
  and
	  variable('DMA TOTAL MULTIPOLES')
  commands.

    Psi4 stopped on: Tuesday, 28 April 2020 09:19AM
    Psi4 wall time for execution: 0:01:28.91

*** Psi4 exiting successfully. Buy a developer a beer!
