                               Psi4 1.3.2 release

  ==> Input File <==

--------------------------------------------------------------------------
import numpy as np
set {scf_type pk
basis cc-pvdz
d_convergence 10
gdma_switch   0
gdma_limit    0
gdma_origin   [ 0.0,  0.0,  0.0 ]
}
molecule test {
    units Angstrom
    1 1
    --
    1 1
    C                0.471129459369948     2.749489590751184     0.643855062711375
    C                0.982129459369948     0.830489590751184    -0.865144937288625
    N                0.933129459369948     1.388489590751184     0.341855062711375
    N                0.580129459369948     1.478489590751184    -1.947144937288625
    N                1.434129459369948    -0.402510409248816    -0.984144937288625
    H                1.284129459369948     0.841489590751184     1.114855062711375
    H                0.262129459369948     2.428489590751184    -1.866144937288626
    H                0.627129459369948     1.041489590751184    -2.853144937288626
    H                1.802129459369948    -0.901510409248816    -0.190144937288625
    H                1.485129459369948    -0.833510409248816    -1.894144937288625
    H               -0.213870540630052     3.116489590751184    -0.122144937288625
    H                1.344129459369948     3.404489590751184     0.674855062711375
    H               -0.051440540630052     2.778960590751184     1.611355462711375
    C               -1.041870540630052    -1.539510409248816     0.953855062711375
    C               -1.620870540630053    -2.256510409248816     2.155855062711375
    C               -1.742870540630052    -2.255510409248816    -0.219144937288625
    H                0.038129459369948    -1.665510409248816     0.919855062711375
    H               -1.317870540630052    -0.484510409248816     0.971855062711375
    H               -1.084870540630053    -3.189510409248816     2.338855062711374
    H               -1.572870540630052    -1.599510409248816     3.025855062711374
    H               -1.239870540630053    -3.206510409248816    -0.410144937288625
    H               -1.742870540630052    -1.641510409248816    -1.121144937288625
    H               -2.653880540630052    -2.472530409248816     1.845653062711375
    H               -2.764250540630052    -2.430640409248816     0.149786062711375

}
e, wfn = energy('scf', return_wfn=True)
gdma(wfn)
dmavals = variable('DMA DISTRIBUTED MULTIPOLES')
charges = np.array(dmavals)
print(charges)
np.save('SSI-002ARG-020PRO-1-dimer.npy', np.array(charges))--------------------------------------------------------------------------

*** tstart() called on ds3
*** at Sun Apr 26 23:25:06 2020

   => Loading Basis Set <=

    Name: CC-PVDZ
    Role: ORBITAL
    Keyword: BASIS
    atoms 1-2, 14-16  entry C          line   138 file /theoryfs2/ds/metcalf/miniconda2/envs/tf2gpu/share/psi4/basis/cc-pvdz.gbs
    atoms 3-5         entry N          line   168 file /theoryfs2/ds/metcalf/miniconda2/envs/tf2gpu/share/psi4/basis/cc-pvdz.gbs
    atoms 6-13, 17-24 entry H          line    22 file /theoryfs2/ds/metcalf/miniconda2/envs/tf2gpu/share/psi4/basis/cc-pvdz.gbs

         ---------------------------------------------------------
                                   SCF
               by Justin Turney, Rob Parrish, Andy Simmonett
                          and Daniel G. A. Smith
                              RHF Reference
                        1 Threads,    500 MiB Core
         ---------------------------------------------------------

  ==> Geometry <==

    Molecular point group: c1
    Full point group: C1

    Geometry (in Angstrom), charge = 1, multiplicity = 1:

       Center              X                  Y                   Z               Mass
    ------------   -----------------  -----------------  -----------------  -----------------
         C            0.471129459370     2.749489590751     0.643855062711    12.000000000000
         C            0.982129459370     0.830489590751    -0.865144937289    12.000000000000
         N            0.933129459370     1.388489590751     0.341855062711    14.003074004430
         N            0.580129459370     1.478489590751    -1.947144937289    14.003074004430
         N            1.434129459370    -0.402510409249    -0.984144937289    14.003074004430
         H            1.284129459370     0.841489590751     1.114855062711     1.007825032230
         H            0.262129459370     2.428489590751    -1.866144937289     1.007825032230
         H            0.627129459370     1.041489590751    -2.853144937289     1.007825032230
         H            1.802129459370    -0.901510409249    -0.190144937289     1.007825032230
         H            1.485129459370    -0.833510409249    -1.894144937289     1.007825032230
         H           -0.213870540630     3.116489590751    -0.122144937289     1.007825032230
         H            1.344129459370     3.404489590751     0.674855062711     1.007825032230
         H           -0.051440540630     2.778960590751     1.611355462711     1.007825032230
         C           -1.041870540630    -1.539510409249     0.953855062711    12.000000000000
         C           -1.620870540630    -2.256510409249     2.155855062711    12.000000000000
         C           -1.742870540630    -2.255510409249    -0.219144937289    12.000000000000
         H            0.038129459370    -1.665510409249     0.919855062711     1.007825032230
         H           -1.317870540630    -0.484510409249     0.971855062711     1.007825032230
         H           -1.084870540630    -3.189510409249     2.338855062711     1.007825032230
         H           -1.572870540630    -1.599510409249     3.025855062711     1.007825032230
         H           -1.239870540630    -3.206510409249    -0.410144937289     1.007825032230
         H           -1.742870540630    -1.641510409249    -1.121144937289     1.007825032230
         H           -2.653880540630    -2.472530409249     1.845653062711     1.007825032230
         H           -2.764250540630    -2.430640409249     0.149786062711     1.007825032230

  Running in c1 symmetry.

  Rotational constants: A =      0.08277  B =      0.02797  C =      0.02396 [cm^-1]
  Rotational constants: A =   2481.26983  B =    838.39242  C =    718.39017 [MHz]
  Nuclear repulsion =  402.224139163546283

  Charge       = 1
  Multiplicity = 1
  Electrons    = 66
  Nalpha       = 33
  Nbeta        = 33

  ==> Algorithm <==

  SCF Algorithm Type is PK.
  DIIS enabled.
  MOM disabled.
  Fractional occupation disabled.
  Guess Type is SAD.
  Energy threshold   = 1.00e-06
  Density threshold  = 1.00e-10
  Integral threshold = 0.00e+00

  ==> Primary Basis <==

  Basis Set: CC-PVDZ
    Blend: CC-PVDZ
    Number of shells: 96
    Number of basis function: 192
    Number of Cartesian functions: 200
    Spherical Harmonics?: true
    Max angular momentum: 2

  ==> Pre-Iterations <==

   -------------------------------------------------------
    Irrep   Nso     Nmo     Nalpha   Nbeta   Ndocc  Nsocc
   -------------------------------------------------------
     A        192     192       0       0       0       0
   -------------------------------------------------------
    Total     192     192      33      33      33       0
   -------------------------------------------------------

  ==> Integral Setup <==

  Using integral reordering PK algorithm.
  Sizing the integral batches needed.
  Building batch lookup table.
   Calculation information:
      Number of atoms:                  24
      Number of AO shells:              96
      Number of primitives:            256
      Number of atomic orbitals:       200
      Number of basis functions:       192

      Integral cutoff                 1.00e-12
      Number of threads:                 1

	Batch   1 pq = [       0,    9405] index = [             0,44231715] size =     44231715
	Batch   2 pq = [    9405,   13301] index = [      44231715,88464951] size =     44233236
	Batch   3 pq = [   13301,   16290] index = [      88464951,132690195] size =     44225244
	Batch   4 pq = [   16290,   18528] index = [     132690195,171652656] size =     38962461
  Task number: 16
  Buffer size: 11059200
  Buffer per thread: 2
  We computed 9714532 shell quartets total.
  Whereas there are 10841496 unique shell quartets.

  ==> DiskJK: Disk-Based J/K Matrices <==

    J tasked:                  Yes
    K tasked:                  Yes
    wK tasked:                  No
    Memory [MiB]:              375
    Schwarz Cutoff:          1E-12

    OpenMP threads:              1

  Minimum eigenvalue in the overlap matrix is 3.3108632286E-03.
  Using Symmetric Orthogonalization.

  SCF Guess: Superposition of Atomic Densities via on-the-fly atomic UHF.

  ==> Iterations <==

                        Total Energy        Delta E     RMS |[F,P]|

   @RHF iter SAD:  -361.23948659208992   -3.61239e+02   0.00000e+00
   @RHF iter   1:  -361.59933626308884   -3.59850e-01   3.21881e-03 DIIS
   @RHF iter   2:  -361.79936202260768   -2.00026e-01   1.30546e-03 DIIS
   @RHF iter   3:  -361.83080388864943   -3.14419e-02   3.04355e-04 DIIS
   @RHF iter   4:  -361.83365611214191   -2.85222e-03   4.79507e-05 DIIS
   @RHF iter   5:  -361.83372989105413   -7.37789e-05   1.78277e-05 DIIS
   @RHF iter   6:  -361.83373919704974   -9.30600e-06   3.81875e-06 DIIS
   @RHF iter   7:  -361.83373984523399   -6.48184e-07   1.36489e-06 DIIS
   @RHF iter   8:  -361.83373989907551   -5.38415e-08   3.80689e-07 DIIS
   @RHF iter   9:  -361.83373990396183   -4.88632e-09   9.08466e-08 DIIS
   @RHF iter  10:  -361.83373990426747   -3.05647e-10   2.79302e-08 DIIS
   @RHF iter  11:  -361.83373990429442   -2.69438e-11   7.95502e-09 DIIS
   @RHF iter  12:  -361.83373990429493   -5.11591e-13   2.69601e-09 DIIS
   @RHF iter  13:  -361.83373990429624   -1.30740e-12   9.13912e-10 DIIS
   @RHF iter  14:  -361.83373990429487    1.36424e-12   3.12131e-10 DIIS
   @RHF iter  15:  -361.83373990429430    5.68434e-13   7.09174e-11 DIIS
  Energy and wave function converged.

  ==> Post-Iterations <==

    Orbital Energies [Eh]
    ---------------------

    Doubly Occupied:

       1A    -15.789226     2A    -15.785654     3A    -15.785197
       4A    -11.590638     5A    -11.442986     6A    -11.333305
       7A    -11.323645     8A    -11.312575     9A     -1.543200
      10A     -1.400957    11A     -1.390966    12A     -1.174198
      13A     -1.141295    14A     -1.039008    15A     -1.016679
      16A     -0.978720    17A     -0.938844    18A     -0.912564
      19A     -0.860757    20A     -0.857765    21A     -0.822550
      22A     -0.792148    23A     -0.749338    24A     -0.743426
      25A     -0.725347    26A     -0.717056    27A     -0.646235
      28A     -0.619652    29A     -0.615580    30A     -0.591421
      31A     -0.590666    32A     -0.577721    33A     -0.560274

    Virtual:

      34A     -0.009911    35A      0.023045    36A      0.026810
      37A      0.029853    38A      0.058229    39A      0.076444
      40A      0.093050    41A      0.112031    42A      0.118401
      43A      0.123483    44A      0.138346    45A      0.143318
      46A      0.150642    47A      0.163464    48A      0.193554
      49A      0.201522    50A      0.220391    51A      0.236921
      52A      0.253192    53A      0.285226    54A      0.320454
      55A      0.332761    56A      0.338547    57A      0.430456
      58A      0.455456    59A      0.463180    60A      0.473864
      61A      0.485086    62A      0.517586    63A      0.529142
      64A      0.542161    65A      0.546892    66A      0.548693
      67A      0.552038    68A      0.578272    69A      0.642390
      70A      0.674990    71A      0.678882    72A      0.688882
      73A      0.701641    74A      0.704969    75A      0.717176
      76A      0.738919    77A      0.744340    78A      0.758836
      79A      0.768091    80A      0.774341    81A      0.781457
      82A      0.800574    83A      0.805931    84A      0.808435
      85A      0.818565    86A      0.824017    87A      0.836705
      88A      0.852821    89A      0.855770    90A      0.887432
      91A      0.901895    92A      0.917782    93A      0.930182
      94A      0.947326    95A      0.983858    96A      1.014998
      97A      1.036808    98A      1.069361    99A      1.094975
     100A      1.120638   101A      1.149651   102A      1.152652
     103A      1.196250   104A      1.203822   105A      1.245736
     106A      1.282653   107A      1.319893   108A      1.344360
     109A      1.369745   110A      1.392091   111A      1.459805
     112A      1.486504   113A      1.505828   114A      1.516523
     115A      1.525110   116A      1.539541   117A      1.551321
     118A      1.579430   119A      1.616417   120A      1.628895
     121A      1.646985   122A      1.677701   123A      1.689860
     124A      1.705124   125A      1.713549   126A      1.730105
     127A      1.745736   128A      1.754652   129A      1.764333
     130A      1.770118   131A      1.777822   132A      1.799834
     133A      1.810971   134A      1.813223   135A      1.821714
     136A      1.834211   137A      1.850180   138A      1.877571
     139A      1.886099   140A      1.898239   141A      1.904333
     142A      1.927663   143A      1.953884   144A      1.992422
     145A      2.011562   146A      2.019332   147A      2.035366
     148A      2.045936   149A      2.065725   150A      2.127894
     151A      2.132536   152A      2.141906   153A      2.164168
     154A      2.208290   155A      2.237071   156A      2.237395
     157A      2.265506   158A      2.311577   159A      2.325340
     160A      2.342675   161A      2.344670   162A      2.350388
     163A      2.373418   164A      2.397280   165A      2.420969
     166A      2.442482   167A      2.469825   168A      2.523425
     169A      2.539115   170A      2.576969   171A      2.586233
     172A      2.595327   173A      2.624927   174A      2.652636
     175A      2.673664   176A      2.697307   177A      2.718761
     178A      2.727419   179A      2.741294   180A      2.769649
     181A      2.782890   182A      2.811963   183A      2.820151
     184A      2.842944   185A      2.847996   186A      2.905693
     187A      2.947712   188A      3.052753   189A      3.091685
     190A      3.126493   191A      3.566927   192A      3.646010

    Final Occupation by Irrep:
              A
    DOCC [    33 ]

  @RHF Final Energy:  -361.83373990429430

   => Energetics <=

    Nuclear Repulsion Energy =            402.2241391635462833
    One-Electron Energy =               -1275.3765735264360046
    Two-Electron Energy =                 511.3186944585954166
    Total Energy =                       -361.8337399042943048

Computation Completed

Properties will be evaluated at   0.000000,   0.000000,   0.000000 [a0]

Properties computed using the SCF density matrix

  Nuclear Dipole Moment: [e a0]
     X:    -5.4448      Y:    -4.5200      Z:     3.9411

  Electronic Dipole Moment: [e a0]
     X:     7.1001      Y:     6.2009      Z:    -5.2680

  Dipole Moment: [e a0]
     X:     1.6552      Y:     1.6809      Z:    -1.3270     Total:     2.7067

  Dipole Moment: [D]
     X:     4.2071      Y:     4.2724      Z:    -3.3728     Total:     6.8796

*** tstop() called on ds3 at Sun Apr 26 23:26:20 2020
Module time:
	user time   =      55.82 seconds =       0.93 minutes
	system time =      21.47 seconds =       0.36 minutes
	total time  =         74 seconds =       1.23 minutes
Total time:
	user time   =      55.82 seconds =       0.93 minutes
	system time =      21.47 seconds =       0.36 minutes
	total time  =         74 seconds =       1.23 minutes
                                     G D M A

                                 by Anthony Stone

                           version 2.2.06, 22 June 2011

               Distributed Multipoles from Gaussian wavefunctions

Starting at 23:26:21 on 26 Apr 2020

Using SCF density matrix from file ./SSI/SSI-002ARG-020PRO-1-dimer.test.31330.fchk

                         Distributed Multipole Analysis

Standard DMA

Positions and radii in angstrom
Multipole moments in atomic units, ea_0^k for rank k

C          x =  0.471129  y =  2.749490  z =  0.643855 angstrom
           Maximum rank =  0   Radius =  0.650 angstrom
                   Q00  =  -0.123244

C          x =  0.982129  y =  0.830490  z = -0.865145 angstrom
           Maximum rank =  0   Radius =  0.650 angstrom
                   Q00  =   1.076793

N          x =  0.933129  y =  1.388490  z =  0.341855 angstrom
           Maximum rank =  0   Radius =  0.650 angstrom
                   Q00  =  -0.491323

N          x =  0.580129  y =  1.478490  z = -1.947145 angstrom
           Maximum rank =  0   Radius =  0.650 angstrom
                   Q00  =  -0.585740

N          x =  1.434129  y = -0.402510  z = -0.984145 angstrom
           Maximum rank =  0   Radius =  0.650 angstrom
                   Q00  =  -0.577928

H          x =  1.284129  y =  0.841490  z =  1.114855 angstrom
           Maximum rank =  0   Radius =  0.325 angstrom
                   Q00  =   0.236258

H          x =  0.262129  y =  2.428490  z = -1.866145 angstrom
           Maximum rank =  0   Radius =  0.325 angstrom
                   Q00  =   0.267572

H          x =  0.627129  y =  1.041490  z = -2.853145 angstrom
           Maximum rank =  0   Radius =  0.325 angstrom
                   Q00  =   0.269899

H          x =  1.802129  y = -0.901510  z = -0.190145 angstrom
           Maximum rank =  0   Radius =  0.325 angstrom
                   Q00  =   0.269954

H          x =  1.485129  y = -0.833510  z = -1.894145 angstrom
           Maximum rank =  0   Radius =  0.325 angstrom
                   Q00  =   0.262836

H          x = -0.213871  y =  3.116490  z = -0.122145 angstrom
           Maximum rank =  0   Radius =  0.325 angstrom
                   Q00  =   0.113714

H          x =  1.344129  y =  3.404490  z =  0.674855 angstrom
           Maximum rank =  0   Radius =  0.325 angstrom
                   Q00  =   0.129257

H          x = -0.051441  y =  2.778961  z =  1.611355 angstrom
           Maximum rank =  0   Radius =  0.325 angstrom
                   Q00  =   0.158381

C          x = -1.041871  y = -1.539510  z =  0.953855 angstrom
           Maximum rank =  0   Radius =  0.650 angstrom
                   Q00  =  -0.139847

C          x = -1.620871  y = -2.256510  z =  2.155855 angstrom
           Maximum rank =  0   Radius =  0.650 angstrom
                   Q00  =  -0.199909

C          x = -1.742871  y = -2.255510  z = -0.219145 angstrom
           Maximum rank =  0   Radius =  0.650 angstrom
                   Q00  =  -0.204219

H          x =  0.038129  y = -1.665510  z =  0.919855 angstrom
           Maximum rank =  0   Radius =  0.325 angstrom
                   Q00  =   0.008748

H          x = -1.317871  y = -0.484510  z =  0.971855 angstrom
           Maximum rank =  0   Radius =  0.325 angstrom
                   Q00  =   0.042956

H          x = -1.084871  y = -3.189510  z =  2.338855 angstrom
           Maximum rank =  0   Radius =  0.325 angstrom
                   Q00  =   0.091152

H          x = -1.572871  y = -1.599510  z =  3.025855 angstrom
           Maximum rank =  0   Radius =  0.325 angstrom
                   Q00  =   0.083170

H          x = -1.239871  y = -3.206510  z = -0.410145 angstrom
           Maximum rank =  0   Radius =  0.325 angstrom
                   Q00  =   0.089400

H          x = -1.742871  y = -1.641510  z = -1.121145 angstrom
           Maximum rank =  0   Radius =  0.325 angstrom
                   Q00  =   0.062506

H          x = -2.653881  y = -2.472530  z =  1.845653 angstrom
           Maximum rank =  0   Radius =  0.325 angstrom
                   Q00  =   0.077253

H          x = -2.764251  y = -2.430640  z =  0.149786 angstrom
           Maximum rank =  0   Radius =  0.325 angstrom
                   Q00  =   0.082361

Total multipoles referred to origin at
           x =   0.000000,  y =    0.000000,  z =    0.000000 angstrom
                   Q00  =   1.000000

Finished at 23:26:21 on 26 Apr 2020

  DMA results are available in the Python driver through the
	  variable('DMA DISTRIBUTED MULTIPOLES')
  and
	  variable('DMA TOTAL MULTIPOLES')
  commands.

    Psi4 stopped on: Sunday, 26 April 2020 11:26PM
    Psi4 wall time for execution: 0:01:14.72

*** Psi4 exiting successfully. Buy a developer a beer!
