                               Psi4 1.3.2 release

  ==> Input File <==

--------------------------------------------------------------------------
import numpy as np
set {scf_type pk
basis cc-pvdz
d_convergence 10
gdma_switch   0
gdma_limit    0
gdma_origin   [ 0.0,  0.0,  0.0 ]
}
molecule test {
    units Angstrom
    0 1
    --
    0 1
    C                0.566158047643610    -2.632459152228021    -1.406775518435566
    C               -1.021841952356390     0.628540847771979    -0.300775518435566
    C               -0.739841952356390    -0.723459152228021    -0.446775518435566
    C               -0.269841952356390     1.567540847771979    -0.991775518435566
    C                0.283158047643610    -1.161459152228021    -1.275775518435566
    C                0.784158047643610     1.143540847771979    -1.794775518435566
    C                1.053158047643610    -0.217459152228021    -1.948775518435566
    H               -1.818841952356390     0.952540847771979     0.349224481564434
    H               -1.333841952356390    -1.445459152228021     0.097224481564434
    H               -0.491841952356390     2.621540847771979    -0.894775518435566
    H                1.383158047643610     1.873540847771979    -2.322775518435566
    H                1.158158047643610    -2.807459152228021    -2.306775518435566
    H               -0.391841952356390    -3.137459152228021    -1.538775518435566
    H                1.866158047643610    -0.535459152228021    -2.588775518435566
    H                1.086448047643610    -3.065309152228021    -0.539629808435566
    C               -0.066841952356390     1.195540847771979     3.026224481564434
    C               -0.561841952356390     0.291540847771979     4.150224481564433
    H                0.862158047643610     1.668540847771979     3.335224481564434
    H                0.141158047643610     0.596540847771979     2.141224481564434
    H               -0.789841952356390     1.975540847771979     2.784224481564434
    H                0.230158047643610    -0.414459152228021     4.400224481564432
    H               -1.443121952356390    -0.276683152228021     3.817867481564434
    H               -0.772671952356390     0.900190847771979     5.041904481564433

}
e, wfn = energy('scf', return_wfn=True)
gdma(wfn)
dmavals = variable('DMA DISTRIBUTED MULTIPOLES')
charges = np.array(dmavals)
print(charges)
np.save('SSI-087PHE-126VAL-1-dimer.npy', np.array(charges))--------------------------------------------------------------------------

*** tstart() called on ds3
*** at Mon Apr 27 20:34:15 2020

   => Loading Basis Set <=

    Name: CC-PVDZ
    Role: ORBITAL
    Keyword: BASIS
    atoms 1-7, 16-17  entry C          line   138 file /theoryfs2/ds/metcalf/miniconda2/envs/tf2gpu/share/psi4/basis/cc-pvdz.gbs
    atoms 8-15, 18-23 entry H          line    22 file /theoryfs2/ds/metcalf/miniconda2/envs/tf2gpu/share/psi4/basis/cc-pvdz.gbs

         ---------------------------------------------------------
                                   SCF
               by Justin Turney, Rob Parrish, Andy Simmonett
                          and Daniel G. A. Smith
                              RHF Reference
                        1 Threads,    500 MiB Core
         ---------------------------------------------------------

  ==> Geometry <==

    Molecular point group: c1
    Full point group: C1

    Geometry (in Angstrom), charge = 0, multiplicity = 1:

       Center              X                  Y                   Z               Mass
    ------------   -----------------  -----------------  -----------------  -----------------
         C            0.566158047644    -2.632459152228    -1.406775518436    12.000000000000
         C           -1.021841952356     0.628540847772    -0.300775518436    12.000000000000
         C           -0.739841952356    -0.723459152228    -0.446775518436    12.000000000000
         C           -0.269841952356     1.567540847772    -0.991775518436    12.000000000000
         C            0.283158047644    -1.161459152228    -1.275775518436    12.000000000000
         C            0.784158047644     1.143540847772    -1.794775518436    12.000000000000
         C            1.053158047644    -0.217459152228    -1.948775518436    12.000000000000
         H           -1.818841952356     0.952540847772     0.349224481564     1.007825032230
         H           -1.333841952356    -1.445459152228     0.097224481564     1.007825032230
         H           -0.491841952356     2.621540847772    -0.894775518436     1.007825032230
         H            1.383158047644     1.873540847772    -2.322775518436     1.007825032230
         H            1.158158047644    -2.807459152228    -2.306775518436     1.007825032230
         H           -0.391841952356    -3.137459152228    -1.538775518436     1.007825032230
         H            1.866158047644    -0.535459152228    -2.588775518436     1.007825032230
         H            1.086448047644    -3.065309152228    -0.539629808436     1.007825032230
         C           -0.066841952356     1.195540847772     3.026224481564    12.000000000000
         C           -0.561841952356     0.291540847772     4.150224481564    12.000000000000
         H            0.862158047644     1.668540847772     3.335224481564     1.007825032230
         H            0.141158047644     0.596540847772     2.141224481564     1.007825032230
         H           -0.789841952356     1.975540847772     2.784224481564     1.007825032230
         H            0.230158047644    -0.414459152228     4.400224481564     1.007825032230
         H           -1.443121952356    -0.276683152228     3.817867481564     1.007825032230
         H           -0.772671952356     0.900190847772     5.041904481564     1.007825032230

  Running in c1 symmetry.

  Rotational constants: A =      0.06940  B =      0.02550  C =      0.02094 [cm^-1]
  Rotational constants: A =   2080.58735  B =    764.50836  C =    627.69267 [MHz]
  Nuclear repulsion =  407.583573230620061

  Charge       = 0
  Multiplicity = 1
  Electrons    = 68
  Nalpha       = 34
  Nbeta        = 34

  ==> Algorithm <==

  SCF Algorithm Type is PK.
  DIIS enabled.
  MOM disabled.
  Fractional occupation disabled.
  Guess Type is SAD.
  Energy threshold   = 1.00e-06
  Density threshold  = 1.00e-10
  Integral threshold = 0.00e+00

  ==> Primary Basis <==

  Basis Set: CC-PVDZ
    Blend: CC-PVDZ
    Number of shells: 96
    Number of basis function: 196
    Number of Cartesian functions: 205
    Spherical Harmonics?: true
    Max angular momentum: 2

  ==> Pre-Iterations <==

   -------------------------------------------------------
    Irrep   Nso     Nmo     Nalpha   Nbeta   Ndocc  Nsocc
   -------------------------------------------------------
     A        196     196       0       0       0       0
   -------------------------------------------------------
    Total     196     196      34      34      34       0
   -------------------------------------------------------

  ==> Integral Setup <==

  Using integral reordering PK algorithm.
  Sizing the integral batches needed.
  Building batch lookup table.
   Calculation information:
      Number of atoms:                  23
      Number of AO shells:              96
      Number of primitives:            268
      Number of atomic orbitals:       205
      Number of basis functions:       196

      Integral cutoff                 1.00e-12
      Number of threads:                 1

	Batch   1 pq = [       0,    9405] index = [             0,44231715] size =     44231715
	Batch   2 pq = [    9405,   13301] index = [      44231715,88464951] size =     44233236
	Batch   3 pq = [   13301,   16290] index = [      88464951,132690195] size =     44225244
	Batch   4 pq = [   16290,   18810] index = [     132690195,176917455] size =     44227260
	Batch   5 pq = [   18810,   19306] index = [     176917455,186370471] size =      9453016
  Task number: 17
  Buffer size: 11059200
  Buffer per thread: 2
  We computed 9458478 shell quartets total.
  Whereas there are 10841496 unique shell quartets.

  ==> DiskJK: Disk-Based J/K Matrices <==

    J tasked:                  Yes
    K tasked:                  Yes
    wK tasked:                  No
    Memory [MiB]:              375
    Schwarz Cutoff:          1E-12

    OpenMP threads:              1

  Minimum eigenvalue in the overlap matrix is 3.0620092439E-04.
  Using Symmetric Orthogonalization.

  SCF Guess: Superposition of Atomic Densities via on-the-fly atomic UHF.

  ==> Iterations <==

                        Total Energy        Delta E     RMS |[F,P]|

   @RHF iter SAD:  -347.90704941393960   -3.47907e+02   0.00000e+00
   @RHF iter   1:  -348.76545061259259   -8.58401e-01   2.90279e-03 DIIS
   @RHF iter   2:  -348.95886372557737   -1.93413e-01   1.20174e-03 DIIS
   @RHF iter   3:  -348.98907023810449   -3.02065e-02   2.58703e-04 DIIS
   @RHF iter   4:  -348.99153476945708   -2.46453e-03   5.55939e-05 DIIS
   @RHF iter   5:  -348.99161365995792   -7.88905e-05   1.90077e-05 DIIS
   @RHF iter   6:  -348.99162248769835   -8.82774e-06   4.94053e-06 DIIS
   @RHF iter   7:  -348.99162318961862   -7.01920e-07   1.22757e-06 DIIS
   @RHF iter   8:  -348.99162324121698   -5.15984e-08   3.26988e-07 DIIS
   @RHF iter   9:  -348.99162324823618   -7.01920e-09   1.42921e-07 DIIS
   @RHF iter  10:  -348.99162325003465   -1.79847e-09   7.61493e-08 DIIS
   @RHF iter  11:  -348.99162325065021   -6.15557e-10   3.01653e-08 DIIS
   @RHF iter  12:  -348.99162325073758   -8.73683e-11   1.33077e-08 DIIS
   @RHF iter  13:  -348.99162325074997   -1.23919e-11   4.30417e-09 DIIS
   @RHF iter  14:  -348.99162325074877    1.19371e-12   1.08968e-09 DIIS
   @RHF iter  15:  -348.99162325074997   -1.19371e-12   3.83263e-10 DIIS
   @RHF iter  16:  -348.99162325075088   -9.09495e-13   1.58658e-10 DIIS
   @RHF iter  17:  -348.99162325075076    1.13687e-13   6.55284e-11 DIIS
  Energy and wave function converged.

  ==> Post-Iterations <==

    Orbital Energies [Eh]
    ---------------------

    Doubly Occupied:

       1A    -11.239718     2A    -11.235610     3A    -11.234137
       4A    -11.230762     5A    -11.230128     6A    -11.229702
       7A    -11.228451     8A    -11.215821     9A    -11.208692
      10A     -1.154181    11A     -1.045666    12A     -1.015274
      13A     -1.011054    14A     -0.931734    15A     -0.831784
      16A     -0.825058    17A     -0.795427    18A     -0.691144
      19A     -0.632500    20A     -0.629289    21A     -0.596482
      22A     -0.593201    23A     -0.581197    24A     -0.578010
      25A     -0.562840    26A     -0.535443    27A     -0.497771
      28A     -0.490822    29A     -0.485327    30A     -0.481486
      31A     -0.479445    32A     -0.475971    33A     -0.331262
      34A     -0.322963

    Virtual:

      35A      0.135024    36A      0.141713    37A      0.171554
      38A      0.194367    39A      0.202657    40A      0.222064
      41A      0.230043    42A      0.245545    43A      0.257752
      44A      0.261618    45A      0.266183    46A      0.275395
      47A      0.285567    48A      0.286359    49A      0.298962
      50A      0.318544    51A      0.367970    52A      0.377177
      53A      0.398372    54A      0.453388    55A      0.463970
      56A      0.477230    57A      0.496784    58A      0.561953
      59A      0.587433    60A      0.597888    61A      0.602727
      62A      0.621698    63A      0.633279    64A      0.663442
      65A      0.681529    66A      0.686550    67A      0.690743
      68A      0.706868    69A      0.723155    70A      0.739525
      71A      0.743336    72A      0.751621    73A      0.760742
      74A      0.773892    75A      0.785554    76A      0.805629
      77A      0.836966    78A      0.860029    79A      0.864233
      80A      0.875364    81A      0.881434    82A      0.889382
      83A      0.893177    84A      0.899964    85A      0.901340
      86A      0.905147    87A      0.918508    88A      0.922670
      89A      0.928377    90A      0.935300    91A      0.944627
      92A      0.955845    93A      0.986489    94A      1.014791
      95A      1.033766    96A      1.052041    97A      1.116463
      98A      1.130945    99A      1.134644   100A      1.140247
     101A      1.157276   102A      1.175414   103A      1.194087
     104A      1.226026   105A      1.248492   106A      1.250091
     107A      1.266887   108A      1.278779   109A      1.299238
     110A      1.309301   111A      1.324526   112A      1.331527
     113A      1.416585   114A      1.480806   115A      1.487861
     116A      1.506203   117A      1.522106   118A      1.553671
     119A      1.586112   120A      1.607899   121A      1.674373
     122A      1.681473   123A      1.692181   124A      1.705754
     125A      1.737832   126A      1.746973   127A      1.774203
     128A      1.796453   129A      1.817967   130A      1.855204
     131A      1.864008   132A      1.879617   133A      1.886806
     134A      1.893941   135A      1.907154   136A      1.916373
     137A      1.918270   138A      1.926215   139A      1.945987
     140A      1.948934   141A      1.950513   142A      1.958186
     143A      1.963333   144A      1.969381   145A      1.976401
     146A      1.985527   147A      1.998681   148A      2.015071
     149A      2.047479   150A      2.049347   151A      2.077848
     152A      2.107033   153A      2.112599   154A      2.121724
     155A      2.138206   156A      2.154718   157A      2.172507
     158A      2.180523   159A      2.191688   160A      2.249957
     161A      2.279119   162A      2.290509   163A      2.298792
     164A      2.303528   165A      2.315960   166A      2.330000
     167A      2.336209   168A      2.459079   169A      2.465916
     170A      2.475494   171A      2.477633   172A      2.511653
     173A      2.539583   174A      2.575008   175A      2.580840
     176A      2.627208   177A      2.734962   178A      2.753775
     179A      2.765203   180A      2.770598   181A      2.783886
     182A      2.810279   183A      2.817271   184A      2.845963
     185A      2.853447   186A      2.861611   187A      2.871445
     188A      2.959104   189A      2.974691   190A      2.992033
     191A      3.016099   192A      3.042241   193A      3.155932
     194A      3.206004   195A      3.302943   196A      3.975113

    Final Occupation by Irrep:
              A
    DOCC [    34 ]

  @RHF Final Energy:  -348.99162325075076

   => Energetics <=

    Nuclear Repulsion Energy =            407.5835732306200612
    One-Electron Energy =               -1277.8936842007158248
    Two-Electron Energy =                 521.3184877193450575
    Total Energy =                       -348.9916232507507630

Computation Completed

Properties will be evaluated at   0.000000,   0.000000,   0.000000 [a0]

Properties computed using the SCF density matrix

  Nuclear Dipole Moment: [e a0]
     X:    -0.2949      Y:    -1.0255      Z:    11.0393

  Electronic Dipole Moment: [e a0]
     X:     0.3523      Y:     0.9018      Z:   -11.1015

  Dipole Moment: [e a0]
     X:     0.0573      Y:    -0.1236      Z:    -0.0622     Total:     0.1498

  Dipole Moment: [D]
     X:     0.1458      Y:    -0.3142      Z:    -0.1582     Total:     0.3807

*** tstop() called on ds3 at Mon Apr 27 20:36:00 2020
Module time:
	user time   =      64.64 seconds =       1.08 minutes
	system time =      27.51 seconds =       0.46 minutes
	total time  =        105 seconds =       1.75 minutes
Total time:
	user time   =      64.64 seconds =       1.08 minutes
	system time =      27.51 seconds =       0.46 minutes
	total time  =        105 seconds =       1.75 minutes
                                     G D M A

                                 by Anthony Stone

                           version 2.2.06, 22 June 2011

               Distributed Multipoles from Gaussian wavefunctions

Starting at 20:36:0 on 27 Apr 2020

Using SCF density matrix from file ./SSI/SSI-087PHE-126VAL-1-dimer.test.15430.fchk

                         Distributed Multipole Analysis

Standard DMA

Positions and radii in angstrom
Multipole moments in atomic units, ea_0^k for rank k

C          x =  0.566158  y = -2.632459  z = -1.406776 angstrom
           Maximum rank =  0   Radius =  0.650 angstrom
                   Q00  =  -0.202956

C          x = -1.021842  y =  0.628541  z = -0.300776 angstrom
           Maximum rank =  0   Radius =  0.650 angstrom
                   Q00  =  -0.068263

C          x = -0.739842  y = -0.723459  z = -0.446776 angstrom
           Maximum rank =  0   Radius =  0.650 angstrom
                   Q00  =   0.001181

C          x = -0.269842  y =  1.567541  z = -0.991776 angstrom
           Maximum rank =  0   Radius =  0.650 angstrom
                   Q00  =  -0.080154

C          x =  0.283158  y = -1.161459  z = -1.275776 angstrom
           Maximum rank =  0   Radius =  0.650 angstrom
                   Q00  =  -0.100650

C          x =  0.784158  y =  1.143541  z = -1.794776 angstrom
           Maximum rank =  0   Radius =  0.650 angstrom
                   Q00  =  -0.060150

C          x =  1.053158  y = -0.217459  z = -1.948776 angstrom
           Maximum rank =  0   Radius =  0.650 angstrom
                   Q00  =  -0.088700

H          x = -1.818842  y =  0.952541  z =  0.349224 angstrom
           Maximum rank =  0   Radius =  0.325 angstrom
                   Q00  =   0.064380

H          x = -1.333842  y = -1.445459  z =  0.097224 angstrom
           Maximum rank =  0   Radius =  0.325 angstrom
                   Q00  =   0.052127

H          x = -0.491842  y =  2.621541  z = -0.894776 angstrom
           Maximum rank =  0   Radius =  0.325 angstrom
                   Q00  =   0.061494

H          x =  1.383158  y =  1.873541  z = -2.322776 angstrom
           Maximum rank =  0   Radius =  0.325 angstrom
                   Q00  =   0.064729

H          x =  1.158158  y = -2.807459  z = -2.306776 angstrom
           Maximum rank =  0   Radius =  0.325 angstrom
                   Q00  =   0.097816

H          x = -0.391842  y = -3.137459  z = -1.538776 angstrom
           Maximum rank =  0   Radius =  0.325 angstrom
                   Q00  =   0.097950

H          x =  1.866158  y = -0.535459  z = -2.588776 angstrom
           Maximum rank =  0   Radius =  0.325 angstrom
                   Q00  =   0.058626

H          x =  1.086448  y = -3.065309  z = -0.539630 angstrom
           Maximum rank =  0   Radius =  0.325 angstrom
                   Q00  =   0.105530

C          x = -0.066842  y =  1.195541  z =  3.026224 angstrom
           Maximum rank =  0   Radius =  0.650 angstrom
                   Q00  =  -0.226447

C          x = -0.561842  y =  0.291541  z =  4.150224 angstrom
           Maximum rank =  0   Radius =  0.650 angstrom
                   Q00  =  -0.245087

H          x =  0.862158  y =  1.668541  z =  3.335224 angstrom
           Maximum rank =  0   Radius =  0.325 angstrom
                   Q00  =   0.075435

H          x =  0.141158  y =  0.596541  z =  2.141224 angstrom
           Maximum rank =  0   Radius =  0.325 angstrom
                   Q00  =   0.093080

H          x = -0.789842  y =  1.975541  z =  2.784224 angstrom
           Maximum rank =  0   Radius =  0.325 angstrom
                   Q00  =   0.071870

H          x =  0.230158  y = -0.414459  z =  4.400224 angstrom
           Maximum rank =  0   Radius =  0.325 angstrom
                   Q00  =   0.077664

H          x = -1.443122  y = -0.276683  z =  3.817867 angstrom
           Maximum rank =  0   Radius =  0.325 angstrom
                   Q00  =   0.074279

H          x = -0.772672  y =  0.900191  z =  5.041904 angstrom
           Maximum rank =  0   Radius =  0.325 angstrom
                   Q00  =   0.076244

Total multipoles referred to origin at
           x =   0.000000,  y =    0.000000,  z =    0.000000 angstrom
                   Q00  =  -0.000000

Finished at 20:36:0 on 27 Apr 2020

  DMA results are available in the Python driver through the
	  variable('DMA DISTRIBUTED MULTIPOLES')
  and
	  variable('DMA TOTAL MULTIPOLES')
  commands.

    Psi4 stopped on: Monday, 27 April 2020 08:36PM
    Psi4 wall time for execution: 0:01:45.45

*** Psi4 exiting successfully. Buy a developer a beer!
