                               Psi4 1.3.2 release

  ==> Input File <==

--------------------------------------------------------------------------
import numpy as np
set {scf_type pk
basis cc-pvdz
d_convergence 10
gdma_switch   0
gdma_limit    0
gdma_origin   [ 0.0,  0.0,  0.0 ]
}
molecule test {
    units Angstrom
    0 1
    --
    0 1
    C               -0.266039705509675    -1.128859311894773    -2.281125882342097
    C               -0.620039705509675    -2.595859311894772    -2.421125882342097
    H                0.792960294490325    -0.999859311894772    -2.066125882342097
    H               -0.492039705509675    -0.611859311894772    -3.214125882342096
    H               -0.857039705509675    -0.679859311894772    -1.485125882342097
    H               -0.078039705509675    -3.015859311894772    -3.266125882342097
    H               -0.340646705509675    -3.133815311894772    -1.503225882342097
    H               -1.694979705509675    -2.702274311894772    -2.628923882342097
    C                0.174960294490325     0.631140688105228     1.082874117657904
    C                0.312960294490325     0.508140688105228     2.614874117657903
    C               -1.033039705509675     1.484140688105227     0.700874117657903
    C                1.454960294490325     1.189140688105228     0.458874117657903
    H                0.025960294490325    -0.364859311894772     0.670874117657904
    H                1.226960294490324    -0.046859311894772     2.836874117657903
    H               -0.885039705509675     2.528140688105228     0.978874117657903
    H               -1.174039705509675     1.445140688105228    -0.379125882342097
    H               -1.937039705509675     1.105140688105228     1.176874117657903
    H                2.310960294490325     0.582140688105228     0.755874117657903
    H                1.369960294490325     1.153140688105228    -0.627125882342097
    H                1.614960294490325     2.224140688105228     0.755874117657903
    H               -0.541333705509676    -0.026550311894772     3.055654117657903
    H                0.375509294490324     1.498006688105228     3.090534117657903

}
e, wfn = energy('scf', return_wfn=True)
gdma(wfn)
dmavals = variable('DMA DISTRIBUTED MULTIPOLES')
charges = np.array(dmavals)
print(charges)
np.save('SSI-026LEU-041VAL-1-dimer.npy', np.array(charges))--------------------------------------------------------------------------

*** tstart() called on ds3
*** at Mon Apr 27 14:36:25 2020

   => Loading Basis Set <=

    Name: CC-PVDZ
    Role: ORBITAL
    Keyword: BASIS
    atoms 1-2, 9-12  entry C          line   138 file /theoryfs2/ds/metcalf/miniconda2/envs/tf2gpu/share/psi4/basis/cc-pvdz.gbs
    atoms 3-8, 13-22 entry H          line    22 file /theoryfs2/ds/metcalf/miniconda2/envs/tf2gpu/share/psi4/basis/cc-pvdz.gbs

         ---------------------------------------------------------
                                   SCF
               by Justin Turney, Rob Parrish, Andy Simmonett
                          and Daniel G. A. Smith
                              RHF Reference
                        1 Threads,    500 MiB Core
         ---------------------------------------------------------

  ==> Geometry <==

    Molecular point group: c1
    Full point group: C1

    Geometry (in Angstrom), charge = 0, multiplicity = 1:

       Center              X                  Y                   Z               Mass
    ------------   -----------------  -----------------  -----------------  -----------------
         C           -0.266039705510    -1.128859311895    -2.281125882342    12.000000000000
         C           -0.620039705510    -2.595859311895    -2.421125882342    12.000000000000
         H            0.792960294490    -0.999859311895    -2.066125882342     1.007825032230
         H           -0.492039705510    -0.611859311895    -3.214125882342     1.007825032230
         H           -0.857039705510    -0.679859311895    -1.485125882342     1.007825032230
         H           -0.078039705510    -3.015859311895    -3.266125882342     1.007825032230
         H           -0.340646705510    -3.133815311895    -1.503225882342     1.007825032230
         H           -1.694979705510    -2.702274311895    -2.628923882342     1.007825032230
         C            0.174960294490     0.631140688105     1.082874117658    12.000000000000
         C            0.312960294490     0.508140688105     2.614874117658    12.000000000000
         C           -1.033039705510     1.484140688105     0.700874117658    12.000000000000
         C            1.454960294490     1.189140688105     0.458874117658    12.000000000000
         H            0.025960294490    -0.364859311895     0.670874117658     1.007825032230
         H            1.226960294490    -0.046859311895     2.836874117658     1.007825032230
         H           -0.885039705510     2.528140688105     0.978874117658     1.007825032230
         H           -1.174039705510     1.445140688105    -0.379125882342     1.007825032230
         H           -1.937039705510     1.105140688105     1.176874117658     1.007825032230
         H            2.310960294490     0.582140688105     0.755874117658     1.007825032230
         H            1.369960294490     1.153140688105    -0.627125882342     1.007825032230
         H            1.614960294490     2.224140688105     0.755874117658     1.007825032230
         H           -0.541333705510    -0.026550311895     3.055654117658     1.007825032230
         H            0.375509294490     1.498006688105     3.090534117658     1.007825032230

  Running in c1 symmetry.

  Rotational constants: A =      0.14563  B =      0.03315  C =      0.03293 [cm^-1]
  Rotational constants: A =   4366.01500  B =    993.67706  C =    987.22752 [MHz]
  Nuclear repulsion =  246.022073031812653

  Charge       = 0
  Multiplicity = 1
  Electrons    = 52
  Nalpha       = 26
  Nbeta        = 26

  ==> Algorithm <==

  SCF Algorithm Type is PK.
  DIIS enabled.
  MOM disabled.
  Fractional occupation disabled.
  Guess Type is SAD.
  Energy threshold   = 1.00e-06
  Density threshold  = 1.00e-10
  Integral threshold = 0.00e+00

  ==> Primary Basis <==

  Basis Set: CC-PVDZ
    Blend: CC-PVDZ
    Number of shells: 84
    Number of basis function: 164
    Number of Cartesian functions: 170
    Spherical Harmonics?: true
    Max angular momentum: 2

  ==> Pre-Iterations <==

   -------------------------------------------------------
    Irrep   Nso     Nmo     Nalpha   Nbeta   Ndocc  Nsocc
   -------------------------------------------------------
     A        164     164       0       0       0       0
   -------------------------------------------------------
    Total     164     164      26      26      26       0
   -------------------------------------------------------

  ==> Integral Setup <==

  Using integral reordering PK algorithm.
  Sizing the integral batches needed.
  Building batch lookup table.
   Calculation information:
      Number of atoms:                  22
      Number of AO shells:              84
      Number of primitives:            212
      Number of atomic orbitals:       170
      Number of basis functions:       164

      Integral cutoff                 1.00e-12
      Number of threads:                 1

	Batch   1 pq = [       0,    9405] index = [             0,44231715] size =     44231715
	Batch   2 pq = [    9405,   13530] index = [      44231715,91537215] size =     47305500
  Task number: 9
  Buffer size: 11059200
  Buffer per thread: 2
  We computed 5757743 shell quartets total.
  Whereas there are 6374235 unique shell quartets.

  ==> DiskJK: Disk-Based J/K Matrices <==

    J tasked:                  Yes
    K tasked:                  Yes
    wK tasked:                  No
    Memory [MiB]:              375
    Schwarz Cutoff:          1E-12

    OpenMP threads:              1

  Minimum eigenvalue in the overlap matrix is 4.6437362837E-03.
  Using Symmetric Orthogonalization.

  SCF Guess: Superposition of Atomic Densities via on-the-fly atomic UHF.

  ==> Iterations <==

                        Total Energy        Delta E     RMS |[F,P]|

   @RHF iter SAD:  -235.42438673084786   -2.35424e+02   0.00000e+00
   @RHF iter   1:  -236.31378878979271   -8.89402e-01   3.53391e-03 DIIS
   @RHF iter   2:  -236.50454060820843   -1.90752e-01   1.52973e-03 DIIS
   @RHF iter   3:  -236.53833905012277   -3.37984e-02   3.13018e-04 DIIS
   @RHF iter   4:  -236.54097306878492   -2.63402e-03   6.91393e-05 DIIS
   @RHF iter   5:  -236.54105788510478   -8.48163e-05   1.58030e-05 DIIS
   @RHF iter   6:  -236.54106349279104   -5.60769e-06   2.59628e-06 DIIS
   @RHF iter   7:  -236.54106366227396   -1.69483e-07   6.30719e-07 DIIS
   @RHF iter   8:  -236.54106367293724   -1.06633e-08   1.52604e-07 DIIS
   @RHF iter   9:  -236.54106367358889   -6.51653e-10   4.17368e-08 DIIS
   @RHF iter  10:  -236.54106367364582   -5.69287e-11   9.35428e-09 DIIS
   @RHF iter  11:  -236.54106367365000   -4.17799e-12   1.91823e-09 DIIS
   @RHF iter  12:  -236.54106367364938    6.25278e-13   4.32562e-10 DIIS
   @RHF iter  13:  -236.54106367365023   -8.52651e-13   1.16306e-10 DIIS
   @RHF iter  14:  -236.54106367364861    1.62004e-12   2.16051e-11 DIIS
  Energy and wave function converged.

  ==> Post-Iterations <==

    Orbital Energies [Eh]
    ---------------------

    Doubly Occupied:

       1A    -11.223586     2A    -11.219020     3A    -11.216084
       4A    -11.215878     5A    -11.212745     6A    -11.212676
       7A     -1.079123     8A     -1.022785     9A     -0.926626
      10A     -0.924491    11A     -0.836769    12A     -0.763912
      13A     -0.629168    14A     -0.601264    15A     -0.600676
      16A     -0.589368    17A     -0.585952    18A     -0.534839
      19A     -0.532750    20A     -0.509079    21A     -0.503287
      22A     -0.486158    23A     -0.484669    24A     -0.459542
      25A     -0.456725    26A     -0.453748

    Virtual:

      27A      0.169160    28A      0.191233    29A      0.217953
      30A      0.222206    31A      0.229497    32A      0.245280
      33A      0.250156    34A      0.258165    35A      0.268526
      36A      0.274232    37A      0.291511    38A      0.296494
      39A      0.303901    40A      0.313954    41A      0.327208
      42A      0.347285    43A      0.360709    44A      0.403492
      45A      0.409869    46A      0.412682    47A      0.564120
      48A      0.580338    49A      0.593803    50A      0.603239
      51A      0.608242    52A      0.618538    53A      0.634395
      54A      0.647657    55A      0.694404    56A      0.753712
      57A      0.766470    58A      0.780353    59A      0.790707
      60A      0.826768    61A      0.845700    62A      0.872829
      63A      0.881311    64A      0.886564    65A      0.891610
      66A      0.894100    67A      0.899096    68A      0.901531
      69A      0.907154    70A      0.913162    71A      0.915099
      72A      0.921162    73A      0.933685    74A      0.943452
      75A      0.962253    76A      0.969759    77A      0.991946
      78A      0.995560    79A      1.007163    80A      1.028394
      81A      1.128443    82A      1.132324    83A      1.135111
      84A      1.146541    85A      1.180387    86A      1.248411
      87A      1.375239    88A      1.400995    89A      1.412025
      90A      1.482608    91A      1.489415    92A      1.537773
      93A      1.554386    94A      1.582537    95A      1.657163
      96A      1.671792    97A      1.676428    98A      1.681543
      99A      1.696613   100A      1.698284   101A      1.705801
     102A      1.716984   103A      1.736318   104A      1.834352
     105A      1.848724   106A      1.863912   107A      1.866667
     108A      1.878861   109A      1.918453   110A      1.927070
     111A      1.934973   112A      1.943835   113A      1.957476
     114A      1.958623   115A      1.961608   116A      1.967129
     117A      1.968410   118A      1.977076   119A      1.987943
     120A      1.994028   121A      2.008302   122A      2.020885
     123A      2.058846   124A      2.069831   125A      2.098847
     126A      2.112218   127A      2.115359   128A      2.141588
     129A      2.145420   130A      2.249473   131A      2.256199
     132A      2.303539   133A      2.304683   134A      2.311010
     135A      2.323474   136A      2.336472   137A      2.368765
     138A      2.377689   139A      2.460057   140A      2.479388
     141A      2.486026   142A      2.562484   143A      2.562871
     144A      2.580256   145A      2.601131   146A      2.630388
     147A      2.717939   148A      2.731012   149A      2.754301
     150A      2.764324   151A      2.772923   152A      2.790283
     153A      2.799989   154A      2.810194   155A      2.834927
     156A      2.846934   157A      2.855035   158A      2.860112
     159A      2.867325   160A      2.962432   161A      2.980720
     162A      3.025377   163A      3.033178   164A      3.103853

    Final Occupation by Irrep:
              A
    DOCC [    26 ]

  @RHF Final Energy:  -236.54106367364861

   => Energetics <=

    Nuclear Repulsion Energy =            246.0220730318126527
    One-Electron Energy =                -804.5644338781078204
    Two-Electron Energy =                 322.0012971726465594
    Total Energy =                       -236.5410636736486367

Computation Completed

Properties will be evaluated at   0.000000,   0.000000,   0.000000 [a0]

Properties computed using the SCF density matrix

  Nuclear Dipole Moment: [e a0]
     X:    -0.2652      Y:    -0.9805      Z:    -1.7329

  Electronic Dipole Moment: [e a0]
     X:     0.2607      Y:     0.9438      Z:     1.6847

  Dipole Moment: [e a0]
     X:    -0.0045      Y:    -0.0368      Z:    -0.0482     Total:     0.0608

  Dipole Moment: [D]
     X:    -0.0114      Y:    -0.0934      Z:    -0.1226     Total:     0.1546

*** tstop() called on ds3 at Mon Apr 27 14:37:53 2020
Module time:
	user time   =      29.79 seconds =       0.50 minutes
	system time =      10.78 seconds =       0.18 minutes
	total time  =         88 seconds =       1.47 minutes
Total time:
	user time   =      29.79 seconds =       0.50 minutes
	system time =      10.78 seconds =       0.18 minutes
	total time  =         88 seconds =       1.47 minutes
                                     G D M A

                                 by Anthony Stone

                           version 2.2.06, 22 June 2011

               Distributed Multipoles from Gaussian wavefunctions

Starting at 14:37:53 on 27 Apr 2020

Using SCF density matrix from file ./SSI/SSI-026LEU-041VAL-1-dimer.test.9411.fchk

                         Distributed Multipole Analysis

Standard DMA

Positions and radii in angstrom
Multipole moments in atomic units, ea_0^k for rank k

C          x = -0.266040  y = -1.128859  z = -2.281126 angstrom
           Maximum rank =  0   Radius =  0.650 angstrom
                   Q00  =  -0.244142

C          x = -0.620040  y = -2.595859  z = -2.421126 angstrom
           Maximum rank =  0   Radius =  0.650 angstrom
                   Q00  =  -0.226567

H          x =  0.792960  y = -0.999859  z = -2.066126 angstrom
           Maximum rank =  0   Radius =  0.325 angstrom
                   Q00  =   0.079688

H          x = -0.492040  y = -0.611859  z = -3.214126 angstrom
           Maximum rank =  0   Radius =  0.325 angstrom
                   Q00  =   0.076489

H          x = -0.857040  y = -0.679859  z = -1.485126 angstrom
           Maximum rank =  0   Radius =  0.325 angstrom
                   Q00  =   0.080373

H          x = -0.078040  y = -3.015859  z = -3.266126 angstrom
           Maximum rank =  0   Radius =  0.325 angstrom
                   Q00  =   0.078405

H          x = -0.340647  y = -3.133815  z = -1.503226 angstrom
           Maximum rank =  0   Radius =  0.325 angstrom
                   Q00  =   0.077275

H          x = -1.694980  y = -2.702274  z = -2.628924 angstrom
           Maximum rank =  0   Radius =  0.325 angstrom
                   Q00  =   0.078018

C          x =  0.174960  y =  0.631141  z =  1.082874 angstrom
           Maximum rank =  0   Radius =  0.650 angstrom
                   Q00  =   0.012879

C          x =  0.312960  y =  0.508141  z =  2.614874 angstrom
           Maximum rank =  0   Radius =  0.650 angstrom
                   Q00  =  -0.250662

C          x = -1.033040  y =  1.484141  z =  0.700874 angstrom
           Maximum rank =  0   Radius =  0.650 angstrom
                   Q00  =  -0.245376

C          x =  1.454960  y =  1.189141  z =  0.458874 angstrom
           Maximum rank =  0   Radius =  0.650 angstrom
                   Q00  =  -0.246583

H          x =  0.025960  y = -0.364859  z =  0.670874 angstrom
           Maximum rank =  0   Radius =  0.325 angstrom
                   Q00  =   0.013829

H          x =  1.226960  y = -0.046859  z =  2.836874 angstrom
           Maximum rank =  0   Radius =  0.325 angstrom
                   Q00  =   0.080053

H          x = -0.885040  y =  2.528141  z =  0.978874 angstrom
           Maximum rank =  0   Radius =  0.325 angstrom
                   Q00  =   0.077990

H          x = -1.174040  y =  1.445141  z = -0.379126 angstrom
           Maximum rank =  0   Radius =  0.325 angstrom
                   Q00  =   0.079973

H          x = -1.937040  y =  1.105141  z =  1.176874 angstrom
           Maximum rank =  0   Radius =  0.325 angstrom
                   Q00  =   0.080481

H          x =  2.310960  y =  0.582141  z =  0.755874 angstrom
           Maximum rank =  0   Radius =  0.325 angstrom
                   Q00  =   0.080084

H          x =  1.369960  y =  1.153141  z = -0.627126 angstrom
           Maximum rank =  0   Radius =  0.325 angstrom
                   Q00  =   0.083085

H          x =  1.614960  y =  2.224141  z =  0.755874 angstrom
           Maximum rank =  0   Radius =  0.325 angstrom
                   Q00  =   0.076843

H          x = -0.541334  y = -0.026550  z =  3.055654 angstrom
           Maximum rank =  0   Radius =  0.325 angstrom
                   Q00  =   0.082239

H          x =  0.375509  y =  1.498007  z =  3.090534 angstrom
           Maximum rank =  0   Radius =  0.325 angstrom
                   Q00  =   0.075628

Total multipoles referred to origin at
           x =   0.000000,  y =    0.000000,  z =    0.000000 angstrom
                   Q00  =  -0.000000

Finished at 14:37:53 on 27 Apr 2020

  DMA results are available in the Python driver through the
	  variable('DMA DISTRIBUTED MULTIPOLES')
  and
	  variable('DMA TOTAL MULTIPOLES')
  commands.

    Psi4 stopped on: Monday, 27 April 2020 02:37PM
    Psi4 wall time for execution: 0:01:28.00

*** Psi4 exiting successfully. Buy a developer a beer!
