                               Psi4 1.3.2 release

  ==> Input File <==

--------------------------------------------------------------------------
import numpy as np
set {scf_type pk
basis cc-pvdz
d_convergence 10
gdma_switch   0
gdma_limit    0
gdma_origin   [ 0.0,  0.0,  0.0 ]
}
molecule test {
    units Angstrom
    -1 1
    --
    -1 1
    C                0.855670092725790    -1.680742981915402     3.864951516549104
    C                0.367670092725790    -0.248742981915402     0.574951516549103
    C                0.976670092725790    -1.225742981915402     2.437951516549103
    C                2.032670092725790    -1.260742981915402     1.575951516549104
    N               -0.052329907274210    -0.599742981915402     1.782951516549103
    N                1.620670092725790    -0.654742981915402     0.411951516549103
    H               -0.227329907274210     0.261257018084598    -0.172048483450897
    H                2.176670092725790    -0.505742981915402    -0.423048483450897
    H                3.030670092725789    -1.606742981915402     1.784951516549104
    H               -0.103329907274210    -2.172742981915402     4.013951516549104
    H                0.876670092725790    -0.793742981915402     4.499951516549102
    H                1.663700092725790    -2.358032981915402     4.178591516549104
    C               -2.342329907274210     0.233257018084598    -2.518048483450896
    C               -1.319329907274210     1.390257018084598    -2.475048483450896
    O               -1.293329907274210     2.203257018084598    -1.542048483450897
    O               -0.487329907274210     1.454257018084598    -3.377048483450897
    H               -1.947329907274210    -0.565742981915402    -1.903048483450896
    H               -2.488329907274210    -0.132742981915402    -3.538048483450897
    H               -3.311139107274210     0.506417018084598    -2.074435483450896

}
e, wfn = energy('scf', return_wfn=True)
gdma(wfn)
dmavals = variable('DMA DISTRIBUTED MULTIPOLES')
charges = np.array(dmavals)
print(charges)
np.save('SSI-062HIE-070GLU-1-dimer.npy', np.array(charges))--------------------------------------------------------------------------

*** tstart() called on ds3
*** at Mon Apr 27 16:08:26 2020

   => Loading Basis Set <=

    Name: CC-PVDZ
    Role: ORBITAL
    Keyword: BASIS
    atoms 1-4, 13-14  entry C          line   138 file /theoryfs2/ds/metcalf/miniconda2/envs/tf2gpu/share/psi4/basis/cc-pvdz.gbs
    atoms 5-6         entry N          line   168 file /theoryfs2/ds/metcalf/miniconda2/envs/tf2gpu/share/psi4/basis/cc-pvdz.gbs
    atoms 7-12, 17-19 entry H          line    22 file /theoryfs2/ds/metcalf/miniconda2/envs/tf2gpu/share/psi4/basis/cc-pvdz.gbs
    atoms 15-16       entry O          line   198 file /theoryfs2/ds/metcalf/miniconda2/envs/tf2gpu/share/psi4/basis/cc-pvdz.gbs

         ---------------------------------------------------------
                                   SCF
               by Justin Turney, Rob Parrish, Andy Simmonett
                          and Daniel G. A. Smith
                              RHF Reference
                        1 Threads,    500 MiB Core
         ---------------------------------------------------------

  ==> Geometry <==

    Molecular point group: c1
    Full point group: C1

    Geometry (in Angstrom), charge = -1, multiplicity = 1:

       Center              X                  Y                   Z               Mass
    ------------   -----------------  -----------------  -----------------  -----------------
         C            0.855670092726    -1.680742981915     3.864951516549    12.000000000000
         C            0.367670092726    -0.248742981915     0.574951516549    12.000000000000
         C            0.976670092726    -1.225742981915     2.437951516549    12.000000000000
         C            2.032670092726    -1.260742981915     1.575951516549    12.000000000000
         N           -0.052329907274    -0.599742981915     1.782951516549    14.003074004430
         N            1.620670092726    -0.654742981915     0.411951516549    14.003074004430
         H           -0.227329907274     0.261257018085    -0.172048483451     1.007825032230
         H            2.176670092726    -0.505742981915    -0.423048483451     1.007825032230
         H            3.030670092726    -1.606742981915     1.784951516549     1.007825032230
         H           -0.103329907274    -2.172742981915     4.013951516549     1.007825032230
         H            0.876670092726    -0.793742981915     4.499951516549     1.007825032230
         H            1.663700092726    -2.358032981915     4.178591516549     1.007825032230
         C           -2.342329907274     0.233257018085    -2.518048483451    12.000000000000
         C           -1.319329907274     1.390257018085    -2.475048483451    12.000000000000
         O           -1.293329907274     2.203257018085    -1.542048483451    15.994914619570
         O           -0.487329907274     1.454257018085    -3.377048483451    15.994914619570
         H           -1.947329907274    -0.565742981915    -1.903048483451     1.007825032230
         H           -2.488329907274    -0.132742981915    -3.538048483451     1.007825032230
         H           -3.311139107274     0.506417018085    -2.074435483451     1.007825032230

  Running in c1 symmetry.

  Rotational constants: A =      0.10562  B =      0.01446  C =      0.01373 [cm^-1]
  Rotational constants: A =   3166.52779  B =    433.62909  C =    411.58098 [MHz]
  Nuclear repulsion =  473.364149362981891

  Charge       = -1
  Multiplicity = 1
  Electrons    = 76
  Nalpha       = 38
  Nbeta        = 38

  ==> Algorithm <==

  SCF Algorithm Type is PK.
  DIIS enabled.
  MOM disabled.
  Fractional occupation disabled.
  Guess Type is SAD.
  Energy threshold   = 1.00e-06
  Density threshold  = 1.00e-10
  Integral threshold = 0.00e+00

  ==> Primary Basis <==

  Basis Set: CC-PVDZ
    Blend: CC-PVDZ
    Number of shells: 87
    Number of basis function: 185
    Number of Cartesian functions: 195
    Spherical Harmonics?: true
    Max angular momentum: 2

  ==> Pre-Iterations <==

   -------------------------------------------------------
    Irrep   Nso     Nmo     Nalpha   Nbeta   Ndocc  Nsocc
   -------------------------------------------------------
     A        185     185       0       0       0       0
   -------------------------------------------------------
    Total     185     185      38      38      38       0
   -------------------------------------------------------

  ==> Integral Setup <==

  Using integral reordering PK algorithm.
  Sizing the integral batches needed.
  Building batch lookup table.
   Calculation information:
      Number of atoms:                  19
      Number of AO shells:              87
      Number of primitives:            265
      Number of atomic orbitals:       195
      Number of basis functions:       185

      Integral cutoff                 1.00e-12
      Number of threads:                 1

	Batch   1 pq = [       0,    9405] index = [             0,44231715] size =     44231715
	Batch   2 pq = [    9405,   13301] index = [      44231715,88464951] size =     44233236
	Batch   3 pq = [   13301,   16290] index = [      88464951,132690195] size =     44225244
	Batch   4 pq = [   16290,   17205] index = [     132690195,148014615] size =     15324420
  Task number: 14
  Buffer size: 11059200
  Buffer per thread: 2
  We computed 4998471 shell quartets total.
  Whereas there are 7328706 unique shell quartets.

  ==> DiskJK: Disk-Based J/K Matrices <==

    J tasked:                  Yes
    K tasked:                  Yes
    wK tasked:                  No
    Memory [MiB]:              375
    Schwarz Cutoff:          1E-12

    OpenMP threads:              1

  Minimum eigenvalue in the overlap matrix is 1.2024477194E-03.
  Using Symmetric Orthogonalization.

  SCF Guess: Superposition of Atomic Densities via on-the-fly atomic UHF.

  ==> Iterations <==

                        Total Energy        Delta E     RMS |[F,P]|

   @RHF iter SAD:  -489.77141128835115   -4.89771e+02   0.00000e+00
   @RHF iter   1:  -490.80491404396906   -1.03350e+00   4.25527e-03 DIIS
   @RHF iter   2:  -491.04226526902153   -2.37351e-01   2.42429e-03 DIIS
   @RHF iter   3:  -491.11772246201821   -7.54572e-02   4.00741e-04 DIIS
   @RHF iter   4:  -491.12123508149801   -3.51262e-03   1.57444e-04 DIIS
   @RHF iter   5:  -491.12178227488874   -5.47193e-04   3.45945e-05 DIIS
   @RHF iter   6:  -491.12181216132524   -2.98864e-05   1.52288e-05 DIIS
   @RHF iter   7:  -491.12181823948640   -6.07816e-06   3.72547e-06 DIIS
   @RHF iter   8:  -491.12181906142706   -8.21941e-07   1.46210e-06 DIIS
   @RHF iter   9:  -491.12181920528462   -1.43858e-07   6.80688e-07 DIIS
   @RHF iter  10:  -491.12181922640877   -2.11242e-08   1.55408e-07 DIIS
   @RHF iter  11:  -491.12181922793781   -1.52903e-09   6.27015e-08 DIIS
   @RHF iter  12:  -491.12181922806269   -1.24885e-10   2.71570e-08 DIIS
   @RHF iter  13:  -491.12181922808645   -2.37605e-11   7.90924e-09 DIIS
   @RHF iter  14:  -491.12181922809077   -4.32010e-12   2.62164e-09 DIIS
   @RHF iter  15:  -491.12181922809128   -5.11591e-13   7.49887e-10 DIIS
   @RHF iter  16:  -491.12181922809145   -1.70530e-13   3.12363e-10 DIIS
   @RHF iter  17:  -491.12181922808969    1.76215e-12   1.02291e-10 DIIS
   @RHF iter  18:  -491.12181922809020   -5.11591e-13   4.47382e-11 DIIS
  Energy and wave function converged.

  ==> Post-Iterations <==

    Orbital Energies [Eh]
    ---------------------

    Doubly Occupied:

       1A    -20.260554     2A    -20.257944     3A    -15.512498
       4A    -15.418485     5A    -11.176315     6A    -11.149760
       7A    -11.145139     8A    -11.142850     9A    -11.117040
      10A    -11.055930    11A     -1.235960    12A     -1.166327
      13A     -1.050877    14A     -1.042569    15A     -0.931141
      16A     -0.847942    17A     -0.798764    18A     -0.710699
      19A     -0.660172    20A     -0.634558    21A     -0.509518
      22A     -0.504862    23A     -0.502229    24A     -0.489546
      25A     -0.460957    26A     -0.449137    27A     -0.434844
      28A     -0.416068    29A     -0.411898    30A     -0.408018
      31A     -0.350225    32A     -0.315812    33A     -0.304829
      34A     -0.276115    35A     -0.205805    36A     -0.189063
      37A     -0.171132    38A     -0.164109

    Virtual:

      39A      0.275861    40A      0.288008    41A      0.294275
      42A      0.317759    43A      0.323504    44A      0.349498
      45A      0.354415    46A      0.387034    47A      0.400965
      48A      0.412151    49A      0.443415    50A      0.473247
      51A      0.496059    52A      0.506248    53A      0.517723
      54A      0.567023    55A      0.581433    56A      0.584850
      57A      0.689004    58A      0.703629    59A      0.713031
      60A      0.728100    61A      0.734394    62A      0.762068
      63A      0.802651    64A      0.816892    65A      0.820131
      66A      0.846847    67A      0.864039    68A      0.880252
      69A      0.906816    70A      0.911328    71A      0.929946
      72A      0.946680    73A      0.960271    74A      0.964214
      75A      0.978579    76A      0.994812    77A      1.005568
      78A      1.033707    79A      1.043052    80A      1.050572
      81A      1.050920    82A      1.073568    83A      1.095861
      84A      1.119721    85A      1.143361    86A      1.154094
      87A      1.173232    88A      1.185074    89A      1.208967
      90A      1.236771    91A      1.240795    92A      1.277650
      93A      1.306088    94A      1.336926    95A      1.346430
      96A      1.367823    97A      1.376933    98A      1.403112
      99A      1.421725   100A      1.426583   101A      1.460398
     102A      1.528480   103A      1.547545   104A      1.559728
     105A      1.575359   106A      1.587296   107A      1.593295
     108A      1.597668   109A      1.619368   110A      1.659834
     111A      1.676230   112A      1.690936   113A      1.696715
     114A      1.739594   115A      1.762168   116A      1.771484
     117A      1.801512   118A      1.841474   119A      1.847770
     120A      1.890824   121A      1.905565   122A      1.922395
     123A      1.946446   124A      2.001679   125A      2.015028
     126A      2.029319   127A      2.044648   128A      2.057949
     129A      2.068514   130A      2.077409   131A      2.087769
     132A      2.111388   133A      2.141623   134A      2.146137
     135A      2.165813   136A      2.197795   137A      2.218279
     138A      2.234570   139A      2.248066   140A      2.265241
     141A      2.304715   142A      2.341427   143A      2.383963
     144A      2.397941   145A      2.422994   146A      2.442739
     147A      2.455252   148A      2.482595   149A      2.543304
     150A      2.556519   151A      2.576452   152A      2.590541
     153A      2.632171   154A      2.674991   155A      2.710156
     156A      2.724897   157A      2.798884   158A      2.815687
     159A      2.823159   160A      2.846691   161A      2.878023
     162A      2.900196   163A      2.914740   164A      2.921224
     165A      2.946241   166A      2.971878   167A      2.991454
     168A      2.997835   169A      3.048457   170A      3.096325
     171A      3.186951   172A      3.241174   173A      3.278169
     174A      3.290885   175A      3.292730   176A      3.360578
     177A      3.372837   178A      3.584404   179A      3.668915
     180A      3.767248   181A      3.836721   182A      3.908613
     183A      4.086205   184A      4.099097   185A      4.228074

    Final Occupation by Irrep:
              A
    DOCC [    38 ]

  @RHF Final Energy:  -491.12181922809020

   => Energetics <=

    Nuclear Repulsion Energy =            473.3641493629818910
    One-Electron Energy =               -1621.2125554136136998
    Two-Electron Energy =                 656.7265868225416625
    Total Energy =                       -491.1218192280902031

Computation Completed

Properties will be evaluated at   0.000000,   0.000000,   0.000000 [a0]

Properties computed using the SCF density matrix

  Nuclear Dipole Moment: [e a0]
     X:    -0.3222      Y:    -6.8859      Z:     5.9387

  Electronic Dipole Moment: [e a0]
     X:     2.6035      Y:     3.6843      Z:    -2.7289

  Dipole Moment: [e a0]
     X:     2.2813      Y:    -3.2016      Z:     3.2098     Total:     5.0751

  Dipole Moment: [D]
     X:     5.7984      Y:    -8.1375      Z:     8.1584     Total:    12.8997

*** tstop() called on ds3 at Mon Apr 27 16:09:32 2020
Module time:
	user time   =      44.94 seconds =       0.75 minutes
	system time =      24.32 seconds =       0.41 minutes
	total time  =         66 seconds =       1.10 minutes
Total time:
	user time   =      44.94 seconds =       0.75 minutes
	system time =      24.32 seconds =       0.41 minutes
	total time  =         66 seconds =       1.10 minutes
                                     G D M A

                                 by Anthony Stone

                           version 2.2.06, 22 June 2011

               Distributed Multipoles from Gaussian wavefunctions

Starting at 16:9:32 on 27 Apr 2020

Using SCF density matrix from file ./SSI/SSI-062HIE-070GLU-1-dimer.test.729.fchk

                         Distributed Multipole Analysis

Standard DMA

Positions and radii in angstrom
Multipole moments in atomic units, ea_0^k for rank k

C          x =  0.855670  y = -1.680743  z =  3.864952 angstrom
           Maximum rank =  0   Radius =  0.650 angstrom
                   Q00  =  -0.198399

C          x =  0.367670  y = -0.248743  z =  0.574952 angstrom
           Maximum rank =  0   Radius =  0.650 angstrom
                   Q00  =   0.508802

C          x =  0.976670  y = -1.225743  z =  2.437952 angstrom
           Maximum rank =  0   Radius =  0.650 angstrom
                   Q00  =   0.238617

C          x =  2.032670  y = -1.260743  z =  1.575952 angstrom
           Maximum rank =  0   Radius =  0.650 angstrom
                   Q00  =  -0.020550

N          x = -0.052330  y = -0.599743  z =  1.782952 angstrom
           Maximum rank =  0   Radius =  0.650 angstrom
                   Q00  =  -0.777308

N          x =  1.620670  y = -0.654743  z =  0.411952 angstrom
           Maximum rank =  0   Radius =  0.650 angstrom
                   Q00  =  -0.471016

H          x = -0.227330  y =  0.261257  z = -0.172048 angstrom
           Maximum rank =  0   Radius =  0.325 angstrom
                   Q00  =   0.113454

H          x =  2.176670  y = -0.505743  z = -0.423048 angstrom
           Maximum rank =  0   Radius =  0.325 angstrom
                   Q00  =   0.228082

H          x =  3.030670  y = -1.606743  z =  1.784952 angstrom
           Maximum rank =  0   Radius =  0.325 angstrom
                   Q00  =   0.077911

H          x = -0.103330  y = -2.172743  z =  4.013952 angstrom
           Maximum rank =  0   Radius =  0.325 angstrom
                   Q00  =   0.107885

H          x =  0.876670  y = -0.793743  z =  4.499952 angstrom
           Maximum rank =  0   Radius =  0.325 angstrom
                   Q00  =   0.097776

H          x =  1.663700  y = -2.358033  z =  4.178592 angstrom
           Maximum rank =  0   Radius =  0.325 angstrom
                   Q00  =   0.077108

C          x = -2.342330  y =  0.233257  z = -2.518048 angstrom
           Maximum rank =  0   Radius =  0.650 angstrom
                   Q00  =  -0.283855

C          x = -1.319330  y =  1.390257  z = -2.475048 angstrom
           Maximum rank =  0   Radius =  0.650 angstrom
                   Q00  =   0.963454

O          x = -1.293330  y =  2.203257  z = -1.542048 angstrom
           Maximum rank =  0   Radius =  0.650 angstrom
                   Q00  =  -0.927099

O          x = -0.487330  y =  1.454257  z = -3.377048 angstrom
           Maximum rank =  0   Radius =  0.650 angstrom
                   Q00  =  -0.924104

H          x = -1.947330  y = -0.565743  z = -1.903048 angstrom
           Maximum rank =  0   Radius =  0.325 angstrom
                   Q00  =   0.072087

H          x = -2.488330  y = -0.132743  z = -3.538048 angstrom
           Maximum rank =  0   Radius =  0.325 angstrom
                   Q00  =   0.059708

H          x = -3.311139  y =  0.506417  z = -2.074435 angstrom
           Maximum rank =  0   Radius =  0.325 angstrom
                   Q00  =   0.057448

Total multipoles referred to origin at
           x =   0.000000,  y =    0.000000,  z =    0.000000 angstrom
                   Q00  =  -1.000000

Finished at 16:9:32 on 27 Apr 2020

  DMA results are available in the Python driver through the
	  variable('DMA DISTRIBUTED MULTIPOLES')
  and
	  variable('DMA TOTAL MULTIPOLES')
  commands.

    Psi4 stopped on: Monday, 27 April 2020 04:09PM
    Psi4 wall time for execution: 0:01:06.14

*** Psi4 exiting successfully. Buy a developer a beer!
