                               Psi4 1.3.2 release

  ==> Input File <==

--------------------------------------------------------------------------
import numpy as np
set {scf_type pk
basis cc-pvdz
d_convergence 10
gdma_switch   0
gdma_limit    0
gdma_origin   [ 0.0,  0.0,  0.0 ]
}
molecule test {
    units Angstrom
    0 1
    --
    0 1
    C               -0.633959416768865    -0.313706308922423    -1.152116187253729
    C               -0.820959416768865    -0.035706308922423    -2.639116187253729
    C               -1.772959416768865    -1.169706308922423    -0.638116187253729
    C                0.721040583231135    -0.956706308922423    -0.858116187253729
    H               -0.681959416768865     0.629293691077577    -0.609116187253729
    H               -1.824959416768865     0.356293691077577    -2.804116187253729
    H               -0.735959416768865    -0.980706308922423    -3.181116187253729
    H               -1.760959416768865    -2.142706308922423    -1.131116187253729
    H               -1.668959416768865    -1.310706308922423     0.437883812746271
    H               -2.727959416768865    -0.678706308922423    -0.833116187253729
    H                1.524040583231135    -0.227706308922423    -0.964116187253729
    H                0.741040583231135    -1.340706308922423     0.160883812746271
    H                0.893040583231135    -1.792706308922423    -1.538116187253729
    H               -0.089864416768865     0.679447691077577    -3.044153187253729
    C                0.913040583231135     1.172293691077577     1.879883812746271
    C                1.516040583231135     1.262293691077577     3.257883812746271
    H                0.450040583231135     0.194293691077577     1.755883812746271
    H                0.125040583231135     1.919293691077577     1.775883812746271
    H                1.661040583231135     1.340293691077577     1.101883812746271
    H                0.771040583231135     1.042293691077577     4.022883812746271
    H                2.332073583231134     0.524669691077577     3.257157812746271
    H                1.919096583231135     2.279076691077577     3.374923812746271

}
e, wfn = energy('scf', return_wfn=True)
gdma(wfn)
dmavals = variable('DMA DISTRIBUTED MULTIPOLES')
charges = np.array(dmavals)
print(charges)
np.save('SSI-067LEU-107LEU-1-dimer.npy', np.array(charges))--------------------------------------------------------------------------

*** tstart() called on ds3
*** at Mon Apr 27 23:32:02 2020

   => Loading Basis Set <=

    Name: CC-PVDZ
    Role: ORBITAL
    Keyword: BASIS
    atoms 1-4, 15-16  entry C          line   138 file /theoryfs2/ds/metcalf/miniconda2/envs/tf2gpu/share/psi4/basis/cc-pvdz.gbs
    atoms 5-14, 17-22 entry H          line    22 file /theoryfs2/ds/metcalf/miniconda2/envs/tf2gpu/share/psi4/basis/cc-pvdz.gbs

         ---------------------------------------------------------
                                   SCF
               by Justin Turney, Rob Parrish, Andy Simmonett
                          and Daniel G. A. Smith
                              RHF Reference
                        1 Threads,    500 MiB Core
         ---------------------------------------------------------

  ==> Geometry <==

    Molecular point group: c1
    Full point group: C1

    Geometry (in Angstrom), charge = 0, multiplicity = 1:

       Center              X                  Y                   Z               Mass
    ------------   -----------------  -----------------  -----------------  -----------------
         C           -0.633959416769    -0.313706308922    -1.152116187254    12.000000000000
         C           -0.820959416769    -0.035706308922    -2.639116187254    12.000000000000
         C           -1.772959416769    -1.169706308922    -0.638116187254    12.000000000000
         C            0.721040583231    -0.956706308922    -0.858116187254    12.000000000000
         H           -0.681959416769     0.629293691078    -0.609116187254     1.007825032230
         H           -1.824959416769     0.356293691078    -2.804116187254     1.007825032230
         H           -0.735959416769    -0.980706308922    -3.181116187254     1.007825032230
         H           -1.760959416769    -2.142706308922    -1.131116187254     1.007825032230
         H           -1.668959416769    -1.310706308922     0.437883812746     1.007825032230
         H           -2.727959416769    -0.678706308922    -0.833116187254     1.007825032230
         H            1.524040583231    -0.227706308922    -0.964116187254     1.007825032230
         H            0.741040583231    -1.340706308922     0.160883812746     1.007825032230
         H            0.893040583231    -1.792706308922    -1.538116187254     1.007825032230
         H           -0.089864416769     0.679447691078    -3.044153187254     1.007825032230
         C            0.913040583231     1.172293691078     1.879883812746    12.000000000000
         C            1.516040583231     1.262293691078     3.257883812746    12.000000000000
         H            0.450040583231     0.194293691078     1.755883812746     1.007825032230
         H            0.125040583231     1.919293691078     1.775883812746     1.007825032230
         H            1.661040583231     1.340293691078     1.101883812746     1.007825032230
         H            0.771040583231     1.042293691078     4.022883812746     1.007825032230
         H            2.332073583231     0.524669691078     3.257157812746     1.007825032230
         H            1.919096583231     2.279076691078     3.374923812746     1.007825032230

  Running in c1 symmetry.

  Rotational constants: A =      0.17716  B =      0.03221  C =      0.03097 [cm^-1]
  Rotational constants: A =   5311.22255  B =    965.62936  C =    928.58839 [MHz]
  Nuclear repulsion =  247.382929667572029

  Charge       = 0
  Multiplicity = 1
  Electrons    = 52
  Nalpha       = 26
  Nbeta        = 26

  ==> Algorithm <==

  SCF Algorithm Type is PK.
  DIIS enabled.
  MOM disabled.
  Fractional occupation disabled.
  Guess Type is SAD.
  Energy threshold   = 1.00e-06
  Density threshold  = 1.00e-10
  Integral threshold = 0.00e+00

  ==> Primary Basis <==

  Basis Set: CC-PVDZ
    Blend: CC-PVDZ
    Number of shells: 84
    Number of basis function: 164
    Number of Cartesian functions: 170
    Spherical Harmonics?: true
    Max angular momentum: 2

  ==> Pre-Iterations <==

   -------------------------------------------------------
    Irrep   Nso     Nmo     Nalpha   Nbeta   Ndocc  Nsocc
   -------------------------------------------------------
     A        164     164       0       0       0       0
   -------------------------------------------------------
    Total     164     164      26      26      26       0
   -------------------------------------------------------

  ==> Integral Setup <==

  Using integral reordering PK algorithm.
  Sizing the integral batches needed.
  Building batch lookup table.
   Calculation information:
      Number of atoms:                  22
      Number of AO shells:              84
      Number of primitives:            212
      Number of atomic orbitals:       170
      Number of basis functions:       164

      Integral cutoff                 1.00e-12
      Number of threads:                 1

	Batch   1 pq = [       0,    9405] index = [             0,44231715] size =     44231715
	Batch   2 pq = [    9405,   13530] index = [      44231715,91537215] size =     47305500
  Task number: 9
  Buffer size: 11059200
  Buffer per thread: 2
  We computed 5728530 shell quartets total.
  Whereas there are 6374235 unique shell quartets.

  ==> DiskJK: Disk-Based J/K Matrices <==

    J tasked:                  Yes
    K tasked:                  Yes
    wK tasked:                  No
    Memory [MiB]:              375
    Schwarz Cutoff:          1E-12

    OpenMP threads:              1

  Minimum eigenvalue in the overlap matrix is 4.4183863018E-03.
  Using Symmetric Orthogonalization.

  SCF Guess: Superposition of Atomic Densities via on-the-fly atomic UHF.

  ==> Iterations <==

                        Total Energy        Delta E     RMS |[F,P]|

   @RHF iter SAD:  -235.52707109162287   -2.35527e+02   0.00000e+00
   @RHF iter   1:  -236.30459311445259   -7.77522e-01   3.57286e-03 DIIS
   @RHF iter   2:  -236.49899707120238   -1.94404e-01   1.55273e-03 DIIS
   @RHF iter   3:  -236.53373628494748   -3.47392e-02   3.17365e-04 DIIS
   @RHF iter   4:  -236.53640980324127   -2.67352e-03   7.15528e-05 DIIS
   @RHF iter   5:  -236.53650001934460   -9.02161e-05   1.57691e-05 DIIS
   @RHF iter   6:  -236.53650576251360   -5.74317e-06   2.81745e-06 DIIS
   @RHF iter   7:  -236.53650596256108   -2.00047e-07   6.97800e-07 DIIS
   @RHF iter   8:  -236.53650597697808   -1.44170e-08   1.70605e-07 DIIS
   @RHF iter   9:  -236.53650597784107   -8.62997e-10   4.83903e-08 DIIS
   @RHF iter  10:  -236.53650597792151   -8.04334e-11   9.99520e-09 DIIS
   @RHF iter  11:  -236.53650597792443   -2.92744e-12   1.97939e-09 DIIS
   @RHF iter  12:  -236.53650597792509   -6.53699e-13   4.38921e-10 DIIS
   @RHF iter  13:  -236.53650597792489    1.98952e-13   1.25321e-10 DIIS
   @RHF iter  14:  -236.53650597792443    4.54747e-13   2.46278e-11 DIIS
  Energy and wave function converged.

  ==> Post-Iterations <==

    Orbital Energies [Eh]
    ---------------------

    Doubly Occupied:

       1A    -11.219687     2A    -11.218106     3A    -11.214037
       4A    -11.213692     5A    -11.212065     6A    -11.211536
       7A     -1.083951     8A     -1.025618     9A     -0.927690
      10A     -0.924920    11A     -0.832117    12A     -0.762668
      13A     -0.632847    14A     -0.606536    15A     -0.602582
      16A     -0.591650    17A     -0.584579    18A     -0.537359
      19A     -0.531246    20A     -0.507465    21A     -0.501381
      22A     -0.485432    23A     -0.479669    24A     -0.458406
      25A     -0.457727    26A     -0.453734

    Virtual:

      27A      0.169925    28A      0.193882    29A      0.213808
      30A      0.219977    31A      0.231309    32A      0.242820
      33A      0.247831    34A      0.260122    35A      0.268514
      36A      0.274595    37A      0.286965    38A      0.298010
      39A      0.310565    40A      0.315483    41A      0.336573
      42A      0.357529    43A      0.372948    44A      0.404019
      45A      0.414759    46A      0.426598    47A      0.552944
      48A      0.561119    49A      0.598535    50A      0.603683
      51A      0.607947    52A      0.620023    53A      0.628263
      54A      0.654202    55A      0.693276    56A      0.729486
      57A      0.764116    58A      0.783788    59A      0.830586
      60A      0.840892    61A      0.854489    62A      0.868452
      63A      0.882620    64A      0.891778    65A      0.892475
      66A      0.898393    67A      0.901208    68A      0.905281
      69A      0.911967    70A      0.915452    71A      0.917414
      72A      0.923109    73A      0.934090    74A      0.951173
      75A      0.962856    76A      0.968501    77A      0.973592
      78A      0.989941    79A      1.016796    80A      1.038907
      81A      1.128749    82A      1.132074    83A      1.137816
      84A      1.153528    85A      1.177860    86A      1.263984
      87A      1.383198    88A      1.409439    89A      1.417833
      90A      1.480606    91A      1.498438    92A      1.538154
      93A      1.566963    94A      1.582877    95A      1.646890
      96A      1.664809    97A      1.672409    98A      1.684109
      99A      1.686947   100A      1.698051   101A      1.715894
     102A      1.735994   103A      1.739380   104A      1.840823
     105A      1.844410   106A      1.854064   107A      1.860803
     108A      1.874225   109A      1.925504   110A      1.933804
     111A      1.939564   112A      1.944411   113A      1.956140
     114A      1.957528   115A      1.962152   116A      1.968278
     117A      1.982437   118A      1.995970   119A      1.999446
     120A      2.009737   121A      2.029239   122A      2.049166
     123A      2.073050   124A      2.093397   125A      2.099717
     126A      2.112624   127A      2.142713   128A      2.153009
     129A      2.156716   130A      2.247630   131A      2.270260
     132A      2.294158   133A      2.298660   134A      2.319147
     135A      2.334766   136A      2.346868   137A      2.365693
     138A      2.401354   139A      2.459413   140A      2.481546
     141A      2.489164   142A      2.562290   143A      2.573979
     144A      2.593518   145A      2.607823   146A      2.647340
     147A      2.708609   148A      2.743173   149A      2.762772
     150A      2.769349   151A      2.784726   152A      2.792101
     153A      2.795516   154A      2.815767   155A      2.817353
     156A      2.836891   157A      2.849158   158A      2.862369
     159A      2.871065   160A      2.964192   161A      2.982284
     162A      3.023717   163A      3.037911   164A      3.120302

    Final Occupation by Irrep:
              A
    DOCC [    26 ]

  @RHF Final Energy:  -236.53650597792443

   => Energetics <=

    Nuclear Repulsion Energy =            247.3829296675720286
    One-Electron Energy =                -807.2854741476859317
    Two-Electron Energy =                 323.3660385021894399
    Total Energy =                       -236.5365059779244348

Computation Completed

Properties will be evaluated at   0.000000,   0.000000,   0.000000 [a0]

Properties computed using the SCF density matrix

  Nuclear Dipole Moment: [e a0]
     X:     0.8679      Y:     0.4603      Z:     1.6710

  Electronic Dipole Moment: [e a0]
     X:    -0.8749      Y:    -0.4137      Z:    -1.6401

  Dipole Moment: [e a0]
     X:    -0.0069      Y:     0.0466      Z:     0.0308     Total:     0.0563

  Dipole Moment: [D]
     X:    -0.0176      Y:     0.1185      Z:     0.0784     Total:     0.1432

*** tstop() called on ds3 at Mon Apr 27 23:32:48 2020
Module time:
	user time   =      31.46 seconds =       0.52 minutes
	system time =      16.87 seconds =       0.28 minutes
	total time  =         46 seconds =       0.77 minutes
Total time:
	user time   =      31.46 seconds =       0.52 minutes
	system time =      16.87 seconds =       0.28 minutes
	total time  =         46 seconds =       0.77 minutes
                                     G D M A

                                 by Anthony Stone

                           version 2.2.06, 22 June 2011

               Distributed Multipoles from Gaussian wavefunctions

Starting at 23:32:48 on 27 Apr 2020

Using SCF density matrix from file ./SSI/SSI-067LEU-107LEU-1-dimer.test.3158.fchk

                         Distributed Multipole Analysis

Standard DMA

Positions and radii in angstrom
Multipole moments in atomic units, ea_0^k for rank k

C          x = -0.633959  y = -0.313706  z = -1.152116 angstrom
           Maximum rank =  0   Radius =  0.650 angstrom
                   Q00  =   0.001715

C          x = -0.820959  y = -0.035706  z = -2.639116 angstrom
           Maximum rank =  0   Radius =  0.650 angstrom
                   Q00  =  -0.224340

C          x = -1.772959  y = -1.169706  z = -0.638116 angstrom
           Maximum rank =  0   Radius =  0.650 angstrom
                   Q00  =  -0.245779

C          x =  0.721041  y = -0.956706  z = -0.858116 angstrom
           Maximum rank =  0   Radius =  0.650 angstrom
                   Q00  =  -0.245085

H          x = -0.681959  y =  0.629294  z = -0.609116 angstrom
           Maximum rank =  0   Radius =  0.325 angstrom
                   Q00  =   0.012665

H          x = -1.824959  y =  0.356294  z = -2.804116 angstrom
           Maximum rank =  0   Radius =  0.325 angstrom
                   Q00  =   0.078681

H          x = -0.735959  y = -0.980706  z = -3.181116 angstrom
           Maximum rank =  0   Radius =  0.325 angstrom
                   Q00  =   0.072666

H          x = -1.760959  y = -2.142706  z = -1.131116 angstrom
           Maximum rank =  0   Radius =  0.325 angstrom
                   Q00  =   0.072197

H          x = -1.668959  y = -1.310706  z =  0.437884 angstrom
           Maximum rank =  0   Radius =  0.325 angstrom
                   Q00  =   0.079071

H          x = -2.727959  y = -0.678706  z = -0.833116 angstrom
           Maximum rank =  0   Radius =  0.325 angstrom
                   Q00  =   0.079392

H          x =  1.524041  y = -0.227706  z = -0.964116 angstrom
           Maximum rank =  0   Radius =  0.325 angstrom
                   Q00  =   0.083373

H          x =  0.741041  y = -1.340706  z =  0.160884 angstrom
           Maximum rank =  0   Radius =  0.325 angstrom
                   Q00  =   0.077009

H          x =  0.893041  y = -1.792706  z = -1.538116 angstrom
           Maximum rank =  0   Radius =  0.325 angstrom
                   Q00  =   0.074942

H          x = -0.089864  y =  0.679448  z = -3.044153 angstrom
           Maximum rank =  0   Radius =  0.325 angstrom
                   Q00  =   0.082606

C          x =  0.913041  y =  1.172294  z =  1.879884 angstrom
           Maximum rank =  0   Radius =  0.650 angstrom
                   Q00  =  -0.247673

C          x =  1.516041  y =  1.262294  z =  3.257884 angstrom
           Maximum rank =  0   Radius =  0.650 angstrom
                   Q00  =  -0.206197

H          x =  0.450041  y =  0.194294  z =  1.755884 angstrom
           Maximum rank =  0   Radius =  0.325 angstrom
                   Q00  =   0.073194

H          x =  0.125041  y =  1.919294  z =  1.775884 angstrom
           Maximum rank =  0   Radius =  0.325 angstrom
                   Q00  =   0.070816

H          x =  1.661041  y =  1.340294  z =  1.101884 angstrom
           Maximum rank =  0   Radius =  0.325 angstrom
                   Q00  =   0.078862

H          x =  0.771041  y =  1.042294  z =  4.022884 angstrom
           Maximum rank =  0   Radius =  0.325 angstrom
                   Q00  =   0.083130

H          x =  2.332074  y =  0.524670  z =  3.257158 angstrom
           Maximum rank =  0   Radius =  0.325 angstrom
                   Q00  =   0.072846

H          x =  1.919097  y =  2.279077  z =  3.374924 angstrom
           Maximum rank =  0   Radius =  0.325 angstrom
                   Q00  =   0.075907

Total multipoles referred to origin at
           x =   0.000000,  y =    0.000000,  z =    0.000000 angstrom
                   Q00  =  -0.000000

Finished at 23:32:48 on 27 Apr 2020

  DMA results are available in the Python driver through the
	  variable('DMA DISTRIBUTED MULTIPOLES')
  and
	  variable('DMA TOTAL MULTIPOLES')
  commands.

    Psi4 stopped on: Monday, 27 April 2020 11:32PM
    Psi4 wall time for execution: 0:00:46.84

*** Psi4 exiting successfully. Buy a developer a beer!
