                               Psi4 1.3.2 release

  ==> Input File <==

--------------------------------------------------------------------------
import numpy as np
set {scf_type pk
basis cc-pvdz
d_convergence 10
gdma_switch   0
gdma_limit    0
gdma_origin   [ 0.0,  0.0,  0.0 ]
}
molecule test {
    units Angstrom
    0 1
    --
    0 1
    C               -0.425213823463857    -2.524451313385569    -0.622000097805535
    C               -1.224213823463857    -3.695451313385569    -1.174000097805535
    C                0.871786176536143    -3.002451313385569    -0.024000097805535
    O                1.461786176536143    -3.967451313385569    -0.520000097805535
    N                1.314786176536143    -2.367451313385569     1.044999902194465
    H               -0.212213823463857    -1.826451313385569    -1.426000097805535
    H               -1.001213823463857    -2.000451313385569     0.135999902194465
    H               -0.679213823463857    -4.089451313385569    -2.036000097805535
    H                2.161786176536143    -2.669451313385569     1.498999902194465
    H                0.754786176536143    -1.633451313385569     1.467999902194465
    H               -2.235853823463857    -3.384411313385568    -1.473720097805535
    H               -1.297043823463857    -4.482771313385569    -0.409260097805535
    C                1.711786176536143     2.637548686614431     2.215999902194465
    C               -0.256213823463857     1.178548686614431    -0.634000097805535
    C               -0.198213823463857     2.008548686614431     0.511999902194465
    C                1.162786176536143     1.961548686614431     0.999999902194465
    C                1.834786176536143     1.105548686614431     0.172999902194465
    C               -1.423213823463857     1.002548686614431    -1.368000097805535
    C               -2.562213823463857     1.686548686614431    -0.968000097805535
    C               -1.369213823463857     2.684548686614431     0.901999902194465
    C               -2.548213823463857     2.491548686614431     0.176999902194465
    N                0.992786176536143     0.642548686614431    -0.806000097805535
    H                1.253786176536143    -0.066451313385569    -1.489000097805535
    H               -1.438213823463857     0.361548686614431    -2.238000097805535
    H                2.872786176536143     0.816548686614431     0.293999902194465
    H               -3.481213823463857     1.556548686614431    -1.523000097805535
    H               -1.364213823463857     3.321548686614431     1.770999902194465
    H                2.558786176536143     2.052548686614431     2.563999902194465
    H                0.943786176536143     2.591548686614431     2.982999902194465
    H               -3.453213823463857     2.997548686614431     0.475999902194465
    H                2.049306176536143     3.674778686614431     2.073729902194465

}
e, wfn = energy('scf', return_wfn=True)
gdma(wfn)
dmavals = variable('DMA DISTRIBUTED MULTIPOLES')
charges = np.array(dmavals)
print(charges)
np.save('SSI-180ASN-229TRP-1-dimer.npy', np.array(charges))--------------------------------------------------------------------------

*** tstart() called on ds3
*** at Mon Apr 27 16:42:22 2020

   => Loading Basis Set <=

    Name: CC-PVDZ
    Role: ORBITAL
    Keyword: BASIS
    atoms 1-3, 13-21  entry C          line   138 file /theoryfs2/ds/metcalf/miniconda2/envs/tf2gpu/share/psi4/basis/cc-pvdz.gbs
    atoms 4           entry O          line   198 file /theoryfs2/ds/metcalf/miniconda2/envs/tf2gpu/share/psi4/basis/cc-pvdz.gbs
    atoms 5, 22       entry N          line   168 file /theoryfs2/ds/metcalf/miniconda2/envs/tf2gpu/share/psi4/basis/cc-pvdz.gbs
    atoms 6-12, 23-31 entry H          line    22 file /theoryfs2/ds/metcalf/miniconda2/envs/tf2gpu/share/psi4/basis/cc-pvdz.gbs

         ---------------------------------------------------------
                                   SCF
               by Justin Turney, Rob Parrish, Andy Simmonett
                          and Daniel G. A. Smith
                              RHF Reference
                        1 Threads,    500 MiB Core
         ---------------------------------------------------------

  ==> Geometry <==

    Molecular point group: c1
    Full point group: C1

    Geometry (in Angstrom), charge = 0, multiplicity = 1:

       Center              X                  Y                   Z               Mass
    ------------   -----------------  -----------------  -----------------  -----------------
         C           -0.425213823464    -2.524451313386    -0.622000097806    12.000000000000
         C           -1.224213823464    -3.695451313386    -1.174000097806    12.000000000000
         C            0.871786176536    -3.002451313386    -0.024000097806    12.000000000000
         O            1.461786176536    -3.967451313386    -0.520000097806    15.994914619570
         N            1.314786176536    -2.367451313386     1.044999902194    14.003074004430
         H           -0.212213823464    -1.826451313386    -1.426000097806     1.007825032230
         H           -1.001213823464    -2.000451313386     0.135999902194     1.007825032230
         H           -0.679213823464    -4.089451313386    -2.036000097806     1.007825032230
         H            2.161786176536    -2.669451313386     1.498999902194     1.007825032230
         H            0.754786176536    -1.633451313386     1.467999902194     1.007825032230
         H           -2.235853823464    -3.384411313386    -1.473720097806     1.007825032230
         H           -1.297043823464    -4.482771313386    -0.409260097806     1.007825032230
         C            1.711786176536     2.637548686614     2.215999902194    12.000000000000
         C           -0.256213823464     1.178548686614    -0.634000097806    12.000000000000
         C           -0.198213823464     2.008548686614     0.511999902194    12.000000000000
         C            1.162786176536     1.961548686614     0.999999902194    12.000000000000
         C            1.834786176536     1.105548686614     0.172999902194    12.000000000000
         C           -1.423213823464     1.002548686614    -1.368000097806    12.000000000000
         C           -2.562213823464     1.686548686614    -0.968000097806    12.000000000000
         C           -1.369213823464     2.684548686614     0.901999902194    12.000000000000
         C           -2.548213823464     2.491548686614     0.176999902194    12.000000000000
         N            0.992786176536     0.642548686614    -0.806000097806    14.003074004430
         H            1.253786176536    -0.066451313386    -1.489000097806     1.007825032230
         H           -1.438213823464     0.361548686614    -2.238000097806     1.007825032230
         H            2.872786176536     0.816548686614     0.293999902194     1.007825032230
         H           -3.481213823464     1.556548686614    -1.523000097806     1.007825032230
         H           -1.364213823464     3.321548686614     1.770999902194     1.007825032230
         H            2.558786176536     2.052548686614     2.563999902194     1.007825032230
         H            0.943786176536     2.591548686614     2.982999902194     1.007825032230
         H           -3.453213823464     2.997548686614     0.475999902194     1.007825032230
         H            2.049306176536     3.674778686614     2.073729902194     1.007825032230

  Running in c1 symmetry.

  Rotational constants: A =      0.02737  B =      0.01224  C =      0.00938 [cm^-1]
  Rotational constants: A =    820.39075  B =    366.99000  C =    281.08708 [MHz]
  Nuclear repulsion =  950.407932505196072

  Charge       = 0
  Multiplicity = 1
  Electrons    = 110
  Nalpha       = 55
  Nbeta        = 55

  ==> Algorithm <==

  SCF Algorithm Type is PK.
  DIIS enabled.
  MOM disabled.
  Fractional occupation disabled.
  Guess Type is SAD.
  Energy threshold   = 1.00e-06
  Density threshold  = 1.00e-10
  Integral threshold = 0.00e+00

  ==> Primary Basis <==

  Basis Set: CC-PVDZ
    Blend: CC-PVDZ
    Number of shells: 138
    Number of basis function: 290
    Number of Cartesian functions: 305
    Spherical Harmonics?: true
    Max angular momentum: 2

  ==> Pre-Iterations <==

   -------------------------------------------------------
    Irrep   Nso     Nmo     Nalpha   Nbeta   Ndocc  Nsocc
   -------------------------------------------------------
     A        290     290       0       0       0       0
   -------------------------------------------------------
    Total     290     290      55      55      55       0
   -------------------------------------------------------

  ==> Integral Setup <==

  Using integral reordering PK algorithm.
  Sizing the integral batches needed.
  Building batch lookup table.
   Calculation information:
      Number of atoms:                  31
      Number of AO shells:             138
      Number of primitives:            410
      Number of atomic orbitals:       305
      Number of basis functions:       290

      Integral cutoff                 1.00e-12
      Number of threads:                 1

	Batch   1 pq = [       0,    9405] index = [             0,44231715] size =     44231715
	Batch   2 pq = [    9405,   13301] index = [      44231715,88464951] size =     44233236
	Batch   3 pq = [   13301,   16290] index = [      88464951,132690195] size =     44225244
	Batch   4 pq = [   16290,   18810] index = [     132690195,176917455] size =     44227260
	Batch   5 pq = [   18810,   21030] index = [     176917455,221140965] size =     44223510
	Batch   6 pq = [   21030,   23037] index = [     221140965,265363203] size =     44222238
	Batch   7 pq = [   23037,   24883] index = [     265363203,309594286] size =     44231083
	Batch   8 pq = [   24883,   26601] index = [     309594286,353819901] size =     44225615
	Batch   9 pq = [   26601,   28214] index = [     353819901,398029005] size =     44209104
	Batch  10 pq = [   28214,   29740] index = [     398029005,442248670] size =     44219665
	Batch  11 pq = [   29740,   31191] index = [     442248670,486454836] size =     44206166
	Batch  12 pq = [   31191,   32578] index = [     486454836,530679331] size =     44224495
	Batch  13 pq = [   32578,   33908] index = [     530679331,574893186] size =     44213855
	Batch  14 pq = [   33908,   35188] index = [     574893186,619115266] size =     44222080
	Batch  15 pq = [   35188,   36423] index = [     619115266,663335676] size =     44220410
	Batch  16 pq = [   36423,   37617] index = [     663335676,707538153] size =     44202477
	Batch  17 pq = [   37617,   38775] index = [     707538153,751769700] size =     44231547
	Batch  18 pq = [   38775,   39899] index = [     751769700,795985050] size =     44215350
	Batch  19 pq = [   39899,   40992] index = [     795985050,840192528] size =     44207478
	Batch  20 pq = [   40992,   42057] index = [     840192528,884416653] size =     44224125
	Batch  21 pq = [   42057,   42195] index = [     884416653,890230110] size =      5813457
  Task number: 81
  Buffer size: 11059200
  Buffer per thread: 2
  We computed 47773206 shell quartets total.
  Whereas there are 45998436 unique shell quartets.
     3.86 percent of shell quartets recomputed by reordering.

  ==> DiskJK: Disk-Based J/K Matrices <==

    J tasked:                  Yes
    K tasked:                  Yes
    wK tasked:                  No
    Memory [MiB]:              375
    Schwarz Cutoff:          1E-12

    OpenMP threads:              1

  Minimum eigenvalue in the overlap matrix is 2.4442301399E-04.
  Using Symmetric Orthogonalization.

  SCF Guess: Superposition of Atomic Densities via on-the-fly atomic UHF.

  ==> Iterations <==

                        Total Energy        Delta E     RMS |[F,P]|

   @RHF iter SAD:  -646.65248531876136   -6.46652e+02   0.00000e+00
   @RHF iter   1:  -647.19094693532691   -5.38462e-01   2.69309e-03 DIIS
   @RHF iter   2:  -647.48499830977926   -2.94051e-01   1.43625e-03 DIIS
   @RHF iter   3:  -647.55781466712222   -7.28164e-02   3.51953e-04 DIIS
   @RHF iter   4:  -647.56389892439165   -6.08426e-03   1.38019e-04 DIIS
   @RHF iter   5:  -647.56485396359221   -9.55039e-04   2.11242e-05 DIIS
   @RHF iter   6:  -647.56490572042412   -5.17568e-05   1.04116e-05 DIIS
   @RHF iter   7:  -647.56491600288928   -1.02825e-05   4.38802e-06 DIIS
   @RHF iter   8:  -647.56491851159046   -2.50870e-06   1.69693e-06 DIIS
   @RHF iter   9:  -647.56491892981114   -4.18221e-07   7.27155e-07 DIIS
   @RHF iter  10:  -647.56491900808737   -7.82762e-08   3.01931e-07 DIIS
   @RHF iter  11:  -647.56491902755386   -1.94665e-08   1.32799e-07 DIIS
   @RHF iter  12:  -647.56491903148185   -3.92799e-09   6.49340e-08 DIIS
   @RHF iter  13:  -647.56491903228164   -7.99787e-10   2.34312e-08 DIIS
   @RHF iter  14:  -647.56491903238793   -1.06297e-10   9.36454e-09 DIIS
   @RHF iter  15:  -647.56491903239885   -1.09139e-11   3.22119e-09 DIIS
   @RHF iter  16:  -647.56491903239157    7.27596e-12   1.39040e-09 DIIS
   @RHF iter  17:  -647.56491903239521   -3.63798e-12   6.01163e-10 DIIS
   @RHF iter  18:  -647.56491903240135   -6.13909e-12   2.17562e-10 DIIS
   @RHF iter  19:  -647.56491903239316    8.18545e-12   1.05277e-10 DIIS
   @RHF iter  20:  -647.56491903239419   -1.02318e-12   5.05660e-11 DIIS
  Energy and wave function converged.

  ==> Post-Iterations <==

    Orbital Energies [Eh]
    ---------------------

    Doubly Occupied:

       1A    -20.502779     2A    -15.610412     3A    -15.590559
       4A    -11.343530     5A    -11.273644     6A    -11.272403
       7A    -11.240414     8A    -11.238805     9A    -11.237935
      10A    -11.237295    11A    -11.234227    12A    -11.231493
      13A    -11.229990    14A    -11.228498    15A    -11.222799
      16A     -1.365483    17A     -1.304853    18A     -1.218263
      19A     -1.135885    20A     -1.080870    21A     -1.050600
      22A     -1.004715    23A     -0.997642    24A     -0.939423
      25A     -0.887753    26A     -0.848712    27A     -0.810937
      28A     -0.786725    29A     -0.761253    30A     -0.728275
      31A     -0.722093    32A     -0.671729    33A     -0.668593
      34A     -0.651006    35A     -0.633518    36A     -0.610176
      37A     -0.601882    38A     -0.597440    39A     -0.584047
      40A     -0.577117    41A     -0.562831    42A     -0.556267
      43A     -0.545597    44A     -0.535615    45A     -0.516604
      46A     -0.504481    47A     -0.503124    48A     -0.491931
      49A     -0.478877    50A     -0.469928    51A     -0.409338
      52A     -0.403003    53A     -0.379507    54A     -0.305107
      55A     -0.283775

    Virtual:

      56A      0.115220    57A      0.159217    58A      0.160832
      59A      0.171912    60A      0.183700    61A      0.195221
      62A      0.203174    63A      0.207645    64A      0.217658
      65A      0.223143    66A      0.230335    67A      0.237761
      68A      0.256966    69A      0.259027    70A      0.270743
      71A      0.276438    72A      0.282181    73A      0.290162
      74A      0.291586    75A      0.341630    76A      0.364842
      77A      0.372344    78A      0.382654    79A      0.401693
      80A      0.418781    81A      0.422489    82A      0.435381
      83A      0.463838    84A      0.466862    85A      0.475827
      86A      0.492223    87A      0.503667    88A      0.554049
      89A      0.585316    90A      0.591966    91A      0.615219
      92A      0.624063    93A      0.632218    94A      0.635457
      95A      0.659453    96A      0.669320    97A      0.683081
      98A      0.691330    99A      0.698192   100A      0.706285
     101A      0.707919   102A      0.720427   103A      0.727652
     104A      0.729529   105A      0.736921   106A      0.749353
     107A      0.752949   108A      0.760408   109A      0.774223
     110A      0.775808   111A      0.789606   112A      0.793929
     113A      0.818132   114A      0.834290   115A      0.837236
     116A      0.854010   117A      0.864031   118A      0.870190
     119A      0.874045   120A      0.877550   121A      0.882431
     122A      0.888916   123A      0.894716   124A      0.900907
     125A      0.903264   126A      0.914182   127A      0.921692
     128A      0.935291   129A      0.941014   130A      0.944160
     131A      0.953160   132A      0.959424   133A      0.974774
     134A      0.985723   135A      0.997672   136A      1.010167
     137A      1.034681   138A      1.042698   139A      1.055774
     140A      1.069542   141A      1.097179   142A      1.113870
     143A      1.118978   144A      1.127288   145A      1.127944
     146A      1.134084   147A      1.147052   148A      1.151100
     149A      1.170597   150A      1.197798   151A      1.212088
     152A      1.228864   153A      1.232931   154A      1.245535
     155A      1.263203   156A      1.277067   157A      1.285636
     158A      1.303330   159A      1.317194   160A      1.327773
     161A      1.339026   162A      1.343684   163A      1.361553
     164A      1.382321   165A      1.397529   166A      1.404053
     167A      1.423210   168A      1.440454   169A      1.449190
     170A      1.477424   171A      1.487369   172A      1.510995
     173A      1.546561   174A      1.561072   175A      1.585251
     176A      1.590528   177A      1.622800   178A      1.632477
     179A      1.644758   180A      1.677692   181A      1.678467
     182A      1.689747   183A      1.704919   184A      1.717522
     185A      1.738296   186A      1.754861   187A      1.764112
     188A      1.768006   189A      1.777465   190A      1.804306
     191A      1.813572   192A      1.826619   193A      1.835785
     194A      1.856158   195A      1.870824   196A      1.879710
     197A      1.883658   198A      1.897238   199A      1.903083
     200A      1.906095   201A      1.915165   202A      1.920375
     203A      1.929818   204A      1.934711   205A      1.938923
     206A      1.947884   207A      1.962338   208A      1.968104
     209A      1.984175   210A      1.988723   211A      2.006512
     212A      2.007231   213A      2.019631   214A      2.022649
     215A      2.043025   216A      2.062375   217A      2.065185
     218A      2.072218   219A      2.084793   220A      2.094827
     221A      2.103616   222A      2.108325   223A      2.109305
     224A      2.123158   225A      2.142102   226A      2.160740
     227A      2.163055   228A      2.173388   229A      2.193698
     230A      2.210558   231A      2.231552   232A      2.249695
     233A      2.282843   234A      2.285357   235A      2.294224
     236A      2.309441   237A      2.325642   238A      2.331310
     239A      2.358784   240A      2.391211   241A      2.395551
     242A      2.403201   243A      2.429342   244A      2.441968
     245A      2.463315   246A      2.481394   247A      2.530000
     248A      2.535795   249A      2.556006   250A      2.567728
     251A      2.587117   252A      2.598707   253A      2.600536
     254A      2.623769   255A      2.648121   256A      2.661219
     257A      2.675259   258A      2.703770   259A      2.761319
     260A      2.763062   261A      2.766811   262A      2.772204
     263A      2.784902   264A      2.796558   265A      2.821221
     266A      2.838354   267A      2.858144   268A      2.879004
     269A      2.885917   270A      2.901731   271A      2.906790
     272A      2.954687   273A      2.974066   274A      3.007081
     275A      3.012149   276A      3.051714   277A      3.061742
     278A      3.109665   279A      3.114208   280A      3.155052
     281A      3.193440   282A      3.280273   283A      3.285170
     284A      3.372418   285A      3.512059   286A      3.537257
     287A      3.731890   288A      3.864121   289A      3.904519
     290A      3.931707

    Final Occupation by Irrep:
              A
    DOCC [    55 ]

  @RHF Final Energy:  -647.56491903239419

   => Energetics <=

    Nuclear Repulsion Energy =            950.4079325051960723
    One-Electron Energy =               -2766.1861879693033188
    Two-Electron Energy =                1168.2133364317128326
    Total Energy =                       -647.5649190323943003

Computation Completed

Properties will be evaluated at   0.000000,   0.000000,   0.000000 [a0]

Properties computed using the SCF density matrix

  Nuclear Dipole Moment: [e a0]
     X:    -2.4065      Y:    -2.6205      Z:     2.4996

  Electronic Dipole Moment: [e a0]
     X:     2.3462      Y:     3.4799      Z:    -1.8407

  Dipole Moment: [e a0]
     X:    -0.0603      Y:     0.8594      Z:     0.6589     Total:     1.0846

  Dipole Moment: [D]
     X:    -0.1533      Y:     2.1843      Z:     1.6748     Total:     2.7568

*** tstop() called on ds3 at Mon Apr 27 16:52:48 2020
Module time:
	user time   =     455.54 seconds =       7.59 minutes
	system time =     157.04 seconds =       2.62 minutes
	total time  =        626 seconds =      10.43 minutes
Total time:
	user time   =     455.54 seconds =       7.59 minutes
	system time =     157.04 seconds =       2.62 minutes
	total time  =        626 seconds =      10.43 minutes
                                     G D M A

                                 by Anthony Stone

                           version 2.2.06, 22 June 2011

               Distributed Multipoles from Gaussian wavefunctions

Starting at 16:52:48 on 27 Apr 2020

Using SCF density matrix from file ./SSI/SSI-180ASN-229TRP-1-dimer.test.27783.fchk

                         Distributed Multipole Analysis

Standard DMA

Positions and radii in angstrom
Multipole moments in atomic units, ea_0^k for rank k

C          x = -0.425214  y = -2.524451  z = -0.622000 angstrom
           Maximum rank =  0   Radius =  0.650 angstrom
                   Q00  =  -0.146099

C          x = -1.224214  y = -3.695451  z = -1.174000 angstrom
           Maximum rank =  0   Radius =  0.650 angstrom
                   Q00  =  -0.209098

C          x =  0.871786  y = -3.002451  z = -0.024000 angstrom
           Maximum rank =  0   Radius =  0.650 angstrom
                   Q00  =   0.859102

O          x =  1.461786  y = -3.967451  z = -0.520000 angstrom
           Maximum rank =  0   Radius =  0.650 angstrom
                   Q00  =  -0.830181

N          x =  1.314786  y = -2.367451  z =  1.045000 angstrom
           Maximum rank =  0   Radius =  0.650 angstrom
                   Q00  =  -0.543729

H          x = -0.212214  y = -1.826451  z = -1.426000 angstrom
           Maximum rank =  0   Radius =  0.325 angstrom
                   Q00  =   0.086990

H          x = -1.001214  y = -2.000451  z =  0.136000 angstrom
           Maximum rank =  0   Radius =  0.325 angstrom
                   Q00  =   0.064543

H          x = -0.679214  y = -4.089451  z = -2.036000 angstrom
           Maximum rank =  0   Radius =  0.325 angstrom
                   Q00  =   0.108014

H          x =  2.161786  y = -2.669451  z =  1.499000 angstrom
           Maximum rank =  0   Radius =  0.325 angstrom
                   Q00  =   0.216825

H          x =  0.754786  y = -1.633451  z =  1.468000 angstrom
           Maximum rank =  0   Radius =  0.325 angstrom
                   Q00  =   0.218988

H          x = -2.235854  y = -3.384411  z = -1.473720 angstrom
           Maximum rank =  0   Radius =  0.325 angstrom
                   Q00  =   0.078937

H          x = -1.297044  y = -4.482771  z = -0.409260 angstrom
           Maximum rank =  0   Radius =  0.325 angstrom
                   Q00  =   0.092396

C          x =  1.711786  y =  2.637549  z =  2.216000 angstrom
           Maximum rank =  0   Radius =  0.650 angstrom
                   Q00  =  -0.201977

C          x = -0.256214  y =  1.178549  z = -0.634000 angstrom
           Maximum rank =  0   Radius =  0.650 angstrom
                   Q00  =   0.287365

C          x = -0.198214  y =  2.008549  z =  0.512000 angstrom
           Maximum rank =  0   Radius =  0.650 angstrom
                   Q00  =  -0.054804

C          x =  1.162786  y =  1.961549  z =  1.000000 angstrom
           Maximum rank =  0   Radius =  0.650 angstrom
                   Q00  =  -0.133496

C          x =  1.834786  y =  1.105549  z =  0.173000 angstrom
           Maximum rank =  0   Radius =  0.650 angstrom
                   Q00  =   0.067776

C          x = -1.423214  y =  1.002549  z = -1.368000 angstrom
           Maximum rank =  0   Radius =  0.650 angstrom
                   Q00  =  -0.124329

C          x = -2.562214  y =  1.686549  z = -0.968000 angstrom
           Maximum rank =  0   Radius =  0.650 angstrom
                   Q00  =  -0.066803

C          x = -1.369214  y =  2.684549  z =  0.902000 angstrom
           Maximum rank =  0   Radius =  0.650 angstrom
                   Q00  =  -0.096478

C          x = -2.548214  y =  2.491549  z =  0.177000 angstrom
           Maximum rank =  0   Radius =  0.650 angstrom
                   Q00  =  -0.086164

N          x =  0.992786  y =  0.642549  z = -0.806000 angstrom
           Maximum rank =  0   Radius =  0.650 angstrom
                   Q00  =  -0.493617

H          x =  1.253786  y = -0.066451  z = -1.489000 angstrom
           Maximum rank =  0   Radius =  0.325 angstrom
                   Q00  =   0.223370

H          x = -1.438214  y =  0.361549  z = -2.238000 angstrom
           Maximum rank =  0   Radius =  0.325 angstrom
                   Q00  =   0.074458

H          x =  2.872786  y =  0.816549  z =  0.294000 angstrom
           Maximum rank =  0   Radius =  0.325 angstrom
                   Q00  =   0.101198

H          x = -3.481214  y =  1.556549  z = -1.523000 angstrom
           Maximum rank =  0   Radius =  0.325 angstrom
                   Q00  =   0.068517

H          x = -1.364214  y =  3.321549  z =  1.771000 angstrom
           Maximum rank =  0   Radius =  0.325 angstrom
                   Q00  =   0.071721

H          x =  2.558786  y =  2.052549  z =  2.564000 angstrom
           Maximum rank =  0   Radius =  0.325 angstrom
                   Q00  =   0.099193

H          x =  0.943786  y =  2.591549  z =  2.983000 angstrom
           Maximum rank =  0   Radius =  0.325 angstrom
                   Q00  =   0.099635

H          x = -3.453214  y =  2.997549  z =  0.476000 angstrom
           Maximum rank =  0   Radius =  0.325 angstrom
                   Q00  =   0.063875

H          x =  2.049306  y =  3.674779  z =  2.073730 angstrom
           Maximum rank =  0   Radius =  0.325 angstrom
                   Q00  =   0.103871

Total multipoles referred to origin at
           x =   0.000000,  y =    0.000000,  z =    0.000000 angstrom
                   Q00  =  -0.000000

Finished at 16:52:48 on 27 Apr 2020

  DMA results are available in the Python driver through the
	  variable('DMA DISTRIBUTED MULTIPOLES')
  and
	  variable('DMA TOTAL MULTIPOLES')
  commands.

    Psi4 stopped on: Monday, 27 April 2020 04:52PM
    Psi4 wall time for execution: 0:10:25.68

*** Psi4 exiting successfully. Buy a developer a beer!
