                               Psi4 1.3.2 release

  ==> Input File <==

--------------------------------------------------------------------------
import numpy as np
set {scf_type pk
basis cc-pvdz
d_convergence 10
gdma_switch   0
gdma_limit    0
gdma_origin   [ 0.0,  0.0,  0.0 ]
}
molecule test {
    units Angstrom
    0 1
    --
    0 1
    C               -0.182644690341304    -4.150505568378754     0.751627479853887
    C                1.279355309658696    -0.670505568378754     0.904627479853887
    C                0.516355309658696    -1.661505568378754     0.235627479853887
    C                0.501355309658696    -2.829505568378754     1.069627479853887
    C                1.219355309658696    -2.494505568378754     2.202627479853888
    C                0.931355309658696     0.869494431621246    -0.886372520146113
    C                1.474355309658696     0.595494431621246     0.368627479853887
    C                0.189355309658696    -0.089505568378754    -1.569372520146113
    C               -0.015644690341304    -1.357505568378754    -1.034372520146113
    N                1.684355309658696    -1.202505568378754     2.101627479853887
    H                1.086355309658696     1.843494431621246    -1.334372520146113
    H                2.059355309658697     1.336494431621246     0.891627479853887
    H               -0.223644690341304     0.149494431621246    -2.541372520146113
    H               -0.588644690341304    -2.096505568378754    -1.576372520146113
    H                2.198355309658696    -0.710505568378754     2.828627479853887
    H                1.385355309658696    -3.136505568378753     3.059627479853888
    H               -0.518644690341304    -4.095505568378754    -0.283372520146113
    H               -1.069644690341304    -4.251505568378755     1.376627479853887
    H                0.472145309658696    -5.028336568378753     0.854897479853887
    C               -1.804644690341304     3.391494431621246    -1.421372520146113
    C               -3.287644690341303     3.431494431621246    -1.828372520146113
    O               -1.497644690341304     4.472494431621246    -0.541372520146113
    H               -1.574644690341304     2.440494431621246    -0.943372520146113
    H               -1.187644690341304     3.481494431621246    -2.317372520146112
    H               -3.439644690341303     4.396494431621246    -2.314372520146113
    H               -0.543644690341304     4.465494431621245    -0.375372520146113
    H               -3.966134690341303     3.382014431621246    -0.963962520146113
    H               -3.498004690341304     2.673777431621246    -2.597532520146112

}
e, wfn = energy('scf', return_wfn=True)
gdma(wfn)
dmavals = variable('DMA DISTRIBUTED MULTIPOLES')
charges = np.array(dmavals)
print(charges)
np.save('SSI-030TRP-216SER-1-dimer.npy', np.array(charges))--------------------------------------------------------------------------

*** tstart() called on ds3
*** at Tue Apr 28 09:15:47 2020

   => Loading Basis Set <=

    Name: CC-PVDZ
    Role: ORBITAL
    Keyword: BASIS
    atoms 1-9, 20-21   entry C          line   138 file /theoryfs2/ds/metcalf/miniconda2/envs/tf2gpu/share/psi4/basis/cc-pvdz.gbs
    atoms 10           entry N          line   168 file /theoryfs2/ds/metcalf/miniconda2/envs/tf2gpu/share/psi4/basis/cc-pvdz.gbs
    atoms 11-19, 23-28 entry H          line    22 file /theoryfs2/ds/metcalf/miniconda2/envs/tf2gpu/share/psi4/basis/cc-pvdz.gbs
    atoms 22           entry O          line   198 file /theoryfs2/ds/metcalf/miniconda2/envs/tf2gpu/share/psi4/basis/cc-pvdz.gbs

         ---------------------------------------------------------
                                   SCF
               by Justin Turney, Rob Parrish, Andy Simmonett
                          and Daniel G. A. Smith
                              RHF Reference
                        1 Threads,    500 MiB Core
         ---------------------------------------------------------

  ==> Geometry <==

    Molecular point group: c1
    Full point group: C1

    Geometry (in Angstrom), charge = 0, multiplicity = 1:

       Center              X                  Y                   Z               Mass
    ------------   -----------------  -----------------  -----------------  -----------------
         C           -0.182644690341    -4.150505568379     0.751627479854    12.000000000000
         C            1.279355309659    -0.670505568379     0.904627479854    12.000000000000
         C            0.516355309659    -1.661505568379     0.235627479854    12.000000000000
         C            0.501355309659    -2.829505568379     1.069627479854    12.000000000000
         C            1.219355309659    -2.494505568379     2.202627479854    12.000000000000
         C            0.931355309659     0.869494431621    -0.886372520146    12.000000000000
         C            1.474355309659     0.595494431621     0.368627479854    12.000000000000
         C            0.189355309659    -0.089505568379    -1.569372520146    12.000000000000
         C           -0.015644690341    -1.357505568379    -1.034372520146    12.000000000000
         N            1.684355309659    -1.202505568379     2.101627479854    14.003074004430
         H            1.086355309659     1.843494431621    -1.334372520146     1.007825032230
         H            2.059355309659     1.336494431621     0.891627479854     1.007825032230
         H           -0.223644690341     0.149494431621    -2.541372520146     1.007825032230
         H           -0.588644690341    -2.096505568379    -1.576372520146     1.007825032230
         H            2.198355309659    -0.710505568379     2.828627479854     1.007825032230
         H            1.385355309659    -3.136505568379     3.059627479854     1.007825032230
         H           -0.518644690341    -4.095505568379    -0.283372520146     1.007825032230
         H           -1.069644690341    -4.251505568379     1.376627479854     1.007825032230
         H            0.472145309659    -5.028336568379     0.854897479854     1.007825032230
         C           -1.804644690341     3.391494431621    -1.421372520146    12.000000000000
         C           -3.287644690341     3.431494431621    -1.828372520146    12.000000000000
         O           -1.497644690341     4.472494431621    -0.541372520146    15.994914619570
         H           -1.574644690341     2.440494431621    -0.943372520146     1.007825032230
         H           -1.187644690341     3.481494431621    -2.317372520146     1.007825032230
         H           -3.439644690341     4.396494431621    -2.314372520146     1.007825032230
         H           -0.543644690341     4.465494431621    -0.375372520146     1.007825032230
         H           -3.966134690341     3.382014431621    -0.963962520146     1.007825032230
         H           -3.498004690341     2.673777431621    -2.597532520146     1.007825032230

  Running in c1 symmetry.

  Rotational constants: A =      0.04754  B =      0.00999  C =      0.00920 [cm^-1]
  Rotational constants: A =   1425.12437  B =    299.54773  C =    275.72851 [MHz]
  Nuclear repulsion =  723.672923943316277

  Charge       = 0
  Multiplicity = 1
  Electrons    = 96
  Nalpha       = 48
  Nbeta        = 48

  ==> Algorithm <==

  SCF Algorithm Type is PK.
  DIIS enabled.
  MOM disabled.
  Fractional occupation disabled.
  Guess Type is SAD.
  Energy threshold   = 1.00e-06
  Density threshold  = 1.00e-10
  Integral threshold = 0.00e+00

  ==> Primary Basis <==

  Basis Set: CC-PVDZ
    Blend: CC-PVDZ
    Number of shells: 123
    Number of basis function: 257
    Number of Cartesian functions: 270
    Spherical Harmonics?: true
    Max angular momentum: 2

  ==> Pre-Iterations <==

   -------------------------------------------------------
    Irrep   Nso     Nmo     Nalpha   Nbeta   Ndocc  Nsocc
   -------------------------------------------------------
     A        257     257       0       0       0       0
   -------------------------------------------------------
    Total     257     257      48      48      48       0
   -------------------------------------------------------

  ==> Integral Setup <==

  Using integral reordering PK algorithm.
  Sizing the integral batches needed.
  Building batch lookup table.
   Calculation information:
      Number of atoms:                  28
      Number of AO shells:             123
      Number of primitives:            361
      Number of atomic orbitals:       270
      Number of basis functions:       257

      Integral cutoff                 1.00e-12
      Number of threads:                 1

	Batch   1 pq = [       0,    9405] index = [             0,44231715] size =     44231715
	Batch   2 pq = [    9405,   13301] index = [      44231715,88464951] size =     44233236
	Batch   3 pq = [   13301,   16290] index = [      88464951,132690195] size =     44225244
	Batch   4 pq = [   16290,   18810] index = [     132690195,176917455] size =     44227260
	Batch   5 pq = [   18810,   21030] index = [     176917455,221140965] size =     44223510
	Batch   6 pq = [   21030,   23037] index = [     221140965,265363203] size =     44222238
	Batch   7 pq = [   23037,   24883] index = [     265363203,309594286] size =     44231083
	Batch   8 pq = [   24883,   26601] index = [     309594286,353819901] size =     44225615
	Batch   9 pq = [   26601,   28214] index = [     353819901,398029005] size =     44209104
	Batch  10 pq = [   28214,   29740] index = [     398029005,442248670] size =     44219665
	Batch  11 pq = [   29740,   31191] index = [     442248670,486454836] size =     44206166
	Batch  12 pq = [   31191,   32578] index = [     486454836,530679331] size =     44224495
	Batch  13 pq = [   32578,   33153] index = [     530679331,549577281] size =     18897950
  Task number: 50
  Buffer size: 11059200
  Buffer per thread: 2
  We computed 22624006 shell quartets total.
  Whereas there are 29081751 unique shell quartets.

  ==> DiskJK: Disk-Based J/K Matrices <==

    J tasked:                  Yes
    K tasked:                  Yes
    wK tasked:                  No
    Memory [MiB]:              375
    Schwarz Cutoff:          1E-12

    OpenMP threads:              1

  Minimum eigenvalue in the overlap matrix is 2.4729867612E-04.
  Using Symmetric Orthogonalization.

  SCF Guess: Superposition of Atomic Densities via on-the-fly atomic UHF.

  ==> Iterations <==

                        Total Energy        Delta E     RMS |[F,P]|

   @RHF iter SAD:  -553.61619901450013   -5.53616e+02   0.00000e+00
   @RHF iter   1:  -554.32365239300282   -7.07453e-01   2.63539e-03 DIIS
   @RHF iter   2:  -554.56890231248622   -2.45250e-01   1.24878e-03 DIIS
   @RHF iter   3:  -554.61724211022272   -4.83398e-02   2.99949e-04 DIIS
   @RHF iter   4:  -554.62129731113725   -4.05520e-03   1.27353e-04 DIIS
   @RHF iter   5:  -554.62190529185295   -6.07981e-04   2.28078e-05 DIIS
   @RHF iter   6:  -554.62193880889686   -3.35170e-05   1.05820e-05 DIIS
   @RHF iter   7:  -554.62194642073541   -7.61184e-06   3.67030e-06 DIIS
   @RHF iter   8:  -554.62194831118711   -1.89045e-06   1.49535e-06 DIIS
   @RHF iter   9:  -554.62194868707479   -3.75888e-07   6.86891e-07 DIIS
   @RHF iter  10:  -554.62194876005060   -7.29758e-08   3.13474e-07 DIIS
   @RHF iter  11:  -554.62194877962668   -1.95761e-08   1.20021e-07 DIIS
   @RHF iter  12:  -554.62194878232538   -2.69870e-09   4.24070e-08 DIIS
   @RHF iter  13:  -554.62194878255889   -2.33513e-10   1.26352e-08 DIIS
   @RHF iter  14:  -554.62194878257640   -1.75078e-11   4.58088e-09 DIIS
   @RHF iter  15:  -554.62194878257628    1.13687e-13   1.97297e-09 DIIS
   @RHF iter  16:  -554.62194878257822   -1.93268e-12   9.14220e-10 DIIS
   @RHF iter  17:  -554.62194878257685    1.36424e-12   3.70294e-10 DIIS
   @RHF iter  18:  -554.62194878257401    2.84217e-12   1.65751e-10 DIIS
   @RHF iter  19:  -554.62194878257537   -1.36424e-12   5.31812e-11 DIIS
  Energy and wave function converged.

  ==> Post-Iterations <==

    Orbital Energies [Eh]
    ---------------------

    Doubly Occupied:

       1A    -20.541231     2A    -15.606724     3A    -11.270206
       4A    -11.267972     5A    -11.267091     6A    -11.235522
       7A    -11.235083     8A    -11.233539     9A    -11.231152
      10A    -11.226559    11A    -11.225276    12A    -11.224849
      13A    -11.216719    14A     -1.339897    15A     -1.296903
      16A     -1.131969    17A     -1.071705    18A     -1.000697
      19A     -0.998321    20A     -0.988396    21A     -0.933283
      22A     -0.843930    23A     -0.825441    24A     -0.805838
      25A     -0.756430    26A     -0.723502    27A     -0.680712
      28A     -0.663356    29A     -0.646492    30A     -0.632080
      31A     -0.606189    32A     -0.595289    33A     -0.592615
      34A     -0.570204    35A     -0.557706    36A     -0.557065
      37A     -0.538219    38A     -0.529368    39A     -0.526945
      40A     -0.512522    41A     -0.496892    42A     -0.477002
      43A     -0.471909    44A     -0.463629    45A     -0.427509
      46A     -0.375435    47A     -0.301314    48A     -0.274277

    Virtual:

      49A      0.118014    50A      0.162827    51A      0.168141
      52A      0.178520    53A      0.190381    54A      0.203324
      55A      0.215245    56A      0.216503    57A      0.224609
      58A      0.238662    59A      0.247598    60A      0.259125
      61A      0.271729    62A      0.283410    63A      0.284321
      64A      0.290941    65A      0.308620    66A      0.321024
      67A      0.366414    68A      0.372903    69A      0.393737
      70A      0.396248    71A      0.401832    72A      0.424769
      73A      0.437098    74A      0.463563    75A      0.478216
      76A      0.499977    77A      0.519536    78A      0.589852
      79A      0.603597    80A      0.621508    81A      0.631651
      82A      0.639408    83A      0.647619    84A      0.657685
      85A      0.665895    86A      0.687495    87A      0.699357
      88A      0.710243    89A      0.721284    90A      0.727682
      91A      0.734050    92A      0.737795    93A      0.744126
      94A      0.746792    95A      0.758485    96A      0.760499
      97A      0.768807    98A      0.784544    99A      0.788571
     100A      0.800258   101A      0.817478   102A      0.845755
     103A      0.859766   104A      0.864948   105A      0.873254
     106A      0.880196   107A      0.885930   108A      0.891897
     109A      0.895465   110A      0.899519   111A      0.902142
     112A      0.910188   113A      0.920313   114A      0.937117
     115A      0.941733   116A      0.948997   117A      0.960685
     118A      0.977449   119A      0.983097   120A      0.998433
     121A      1.007878   122A      1.045971   123A      1.075679
     124A      1.088311   125A      1.126841   126A      1.130088
     127A      1.134484   128A      1.143074   129A      1.155784
     130A      1.158246   131A      1.169822   132A      1.194481
     133A      1.210008   134A      1.220106   135A      1.223647
     136A      1.235795   137A      1.243049   138A      1.273298
     139A      1.278245   140A      1.280234   141A      1.295391
     142A      1.325104   143A      1.326820   144A      1.337565
     145A      1.355728   146A      1.363225   147A      1.426139
     148A      1.437050   149A      1.454214   150A      1.483290
     151A      1.511396   152A      1.528982   153A      1.537698
     154A      1.551341   155A      1.582487   156A      1.588780
     157A      1.617795   158A      1.621629   159A      1.633543
     160A      1.653459   161A      1.684319   162A      1.685717
     163A      1.694872   164A      1.734122   165A      1.741994
     166A      1.760423   167A      1.769695   168A      1.796072
     169A      1.814187   170A      1.822821   171A      1.829537
     172A      1.870210   173A      1.874768   174A      1.879591
     175A      1.889000   176A      1.889726   177A      1.896035
     178A      1.904202   179A      1.905255   180A      1.918551
     181A      1.922745   182A      1.938775   183A      1.956303
     184A      1.970078   185A      1.975140   186A      1.980722
     187A      1.992228   188A      1.997518   189A      2.003465
     190A      2.007767   191A      2.011908   192A      2.034314
     193A      2.059361   194A      2.072388   195A      2.082828
     196A      2.089259   197A      2.103675   198A      2.114926
     199A      2.126807   200A      2.132737   201A      2.163271
     202A      2.170188   203A      2.183705   204A      2.203630
     205A      2.221698   206A      2.246128   207A      2.256061
     208A      2.266309   209A      2.289376   210A      2.300811
     211A      2.306820   212A      2.320794   213A      2.342961
     214A      2.347404   215A      2.386752   216A      2.397972
     217A      2.447867   218A      2.464572   219A      2.483974
     220A      2.509809   221A      2.529766   222A      2.545715
     223A      2.572977   224A      2.580608   225A      2.590743
     226A      2.614006   227A      2.654572   228A      2.670480
     229A      2.728314   230A      2.756651   231A      2.764418
     232A      2.772461   233A      2.778178   234A      2.787694
     235A      2.792154   236A      2.798760   237A      2.804378
     238A      2.836934   239A      2.858323   240A      2.881787
     241A      2.912468   242A      2.954649   243A      2.958005
     244A      3.014380   245A      3.044202   246A      3.062714
     247A      3.107367   248A      3.194972   249A      3.283011
     250A      3.331665   251A      3.358133   252A      3.412307
     253A      3.464613   254A      3.615764   255A      3.725716
     256A      3.940039   257A      4.118019

    Final Occupation by Irrep:
              A
    DOCC [    48 ]

  @RHF Final Energy:  -554.62194878257537

   => Energetics <=

    Nuclear Repulsion Energy =            723.6729239433162775
    One-Electron Energy =               -2188.5998107437108047
    Two-Electron Energy =                 910.3049380178192678
    Total Energy =                       -554.6219487825753731

Computation Completed

Properties will be evaluated at   0.000000,   0.000000,   0.000000 [a0]

Properties computed using the SCF density matrix

  Nuclear Dipole Moment: [e a0]
     X:    -8.8325      Y:     4.5721      Z:    -5.8548

  Electronic Dipole Moment: [e a0]
     X:     9.6323      Y:    -5.1929      Z:     6.3946

  Dipole Moment: [e a0]
     X:     0.7998      Y:    -0.6208      Z:     0.5398     Total:     1.1474

  Dipole Moment: [D]
     X:     2.0329      Y:    -1.5780      Z:     1.3719     Total:     2.9163

*** tstop() called on ds3 at Tue Apr 28 09:20:36 2020
Module time:
	user time   =     205.32 seconds =       3.42 minutes
	system time =      97.36 seconds =       1.62 minutes
	total time  =        289 seconds =       4.82 minutes
Total time:
	user time   =     205.32 seconds =       3.42 minutes
	system time =      97.36 seconds =       1.62 minutes
	total time  =        289 seconds =       4.82 minutes
                                     G D M A

                                 by Anthony Stone

                           version 2.2.06, 22 June 2011

               Distributed Multipoles from Gaussian wavefunctions

Starting at 9:20:36 on 28 Apr 2020

Using SCF density matrix from file ./SSI/SSI-030TRP-216SER-1-dimer.test.9883.fchk

                         Distributed Multipole Analysis

Standard DMA

Positions and radii in angstrom
Multipole moments in atomic units, ea_0^k for rank k

C          x = -0.182645  y = -4.150506  z =  0.751627 angstrom
           Maximum rank =  0   Radius =  0.650 angstrom
                   Q00  =  -0.218684

C          x =  1.279355  y = -0.670506  z =  0.904627 angstrom
           Maximum rank =  0   Radius =  0.650 angstrom
                   Q00  =   0.243203

C          x =  0.516355  y = -1.661506  z =  0.235627 angstrom
           Maximum rank =  0   Radius =  0.650 angstrom
                   Q00  =  -0.039480

C          x =  0.501355  y = -2.829506  z =  1.069627 angstrom
           Maximum rank =  0   Radius =  0.650 angstrom
                   Q00  =  -0.136282

C          x =  1.219355  y = -2.494506  z =  2.202627 angstrom
           Maximum rank =  0   Radius =  0.650 angstrom
                   Q00  =   0.075827

C          x =  0.931355  y =  0.869494  z = -0.886373 angstrom
           Maximum rank =  0   Radius =  0.650 angstrom
                   Q00  =  -0.031164

C          x =  1.474355  y =  0.595494  z =  0.368627 angstrom
           Maximum rank =  0   Radius =  0.650 angstrom
                   Q00  =  -0.123865

C          x =  0.189355  y = -0.089506  z = -1.569373 angstrom
           Maximum rank =  0   Radius =  0.650 angstrom
                   Q00  =  -0.072877

C          x = -0.015645  y = -1.357506  z = -1.034373 angstrom
           Maximum rank =  0   Radius =  0.650 angstrom
                   Q00  =  -0.101580

N          x =  1.684355  y = -1.202506  z =  2.101627 angstrom
           Maximum rank =  0   Radius =  0.650 angstrom
                   Q00  =  -0.497307

H          x =  1.086355  y =  1.843494  z = -1.334373 angstrom
           Maximum rank =  0   Radius =  0.325 angstrom
                   Q00  =   0.057463

H          x =  2.059355  y =  1.336494  z =  0.891627 angstrom
           Maximum rank =  0   Radius =  0.325 angstrom
                   Q00  =   0.074125

H          x = -0.223645  y =  0.149494  z = -2.541373 angstrom
           Maximum rank =  0   Radius =  0.325 angstrom
                   Q00  =   0.058666

H          x = -0.588645  y = -2.096506  z = -1.576373 angstrom
           Maximum rank =  0   Radius =  0.325 angstrom
                   Q00  =   0.071003

H          x =  2.198355  y = -0.710506  z =  2.828627 angstrom
           Maximum rank =  0   Radius =  0.325 angstrom
                   Q00  =   0.221264

H          x =  1.385355  y = -3.136506  z =  3.059627 angstrom
           Maximum rank =  0   Radius =  0.325 angstrom
                   Q00  =   0.100810

H          x = -0.518645  y = -4.095506  z = -0.283373 angstrom
           Maximum rank =  0   Radius =  0.325 angstrom
                   Q00  =   0.107626

H          x = -1.069645  y = -4.251506  z =  1.376627 angstrom
           Maximum rank =  0   Radius =  0.325 angstrom
                   Q00  =   0.104473

H          x =  0.472145  y = -5.028337  z =  0.854897 angstrom
           Maximum rank =  0   Radius =  0.325 angstrom
                   Q00  =   0.107335

C          x = -1.804645  y =  3.391494  z = -1.421373 angstrom
           Maximum rank =  0   Radius =  0.650 angstrom
                   Q00  =   0.086181

C          x = -3.287645  y =  3.431494  z = -1.828373 angstrom
           Maximum rank =  0   Radius =  0.650 angstrom
                   Q00  =  -0.239834

O          x = -1.497645  y =  4.472494  z = -0.541373 angstrom
           Maximum rank =  0   Radius =  0.650 angstrom
                   Q00  =  -0.592698

H          x = -1.574645  y =  2.440494  z = -0.943373 angstrom
           Maximum rank =  0   Radius =  0.325 angstrom
                   Q00  =   0.059858

H          x = -1.187645  y =  3.481494  z = -2.317373 angstrom
           Maximum rank =  0   Radius =  0.325 angstrom
                   Q00  =   0.033584

H          x = -3.439645  y =  4.396494  z = -2.314373 angstrom
           Maximum rank =  0   Radius =  0.325 angstrom
                   Q00  =   0.083234

H          x = -0.543645  y =  4.465494  z = -0.375373 angstrom
           Maximum rank =  0   Radius =  0.325 angstrom
                   Q00  =   0.387198

H          x = -3.966135  y =  3.382014  z = -0.963963 angstrom
           Maximum rank =  0   Radius =  0.325 angstrom
                   Q00  =   0.096337

H          x = -3.498005  y =  2.673777  z = -2.597533 angstrom
           Maximum rank =  0   Radius =  0.325 angstrom
                   Q00  =   0.085584

Total multipoles referred to origin at
           x =   0.000000,  y =    0.000000,  z =    0.000000 angstrom
                   Q00  =  -0.000000

Finished at 9:20:37 on 28 Apr 2020

  DMA results are available in the Python driver through the
	  variable('DMA DISTRIBUTED MULTIPOLES')
  and
	  variable('DMA TOTAL MULTIPOLES')
  commands.

    Psi4 stopped on: Tuesday, 28 April 2020 09:20AM
    Psi4 wall time for execution: 0:04:49.60

*** Psi4 exiting successfully. Buy a developer a beer!
