                               Psi4 1.3.2 release

  ==> Input File <==

--------------------------------------------------------------------------
import numpy as np
set {scf_type pk
basis cc-pvdz
d_convergence 10
gdma_switch   0
gdma_limit    0
gdma_origin   [ 0.0,  0.0,  0.0 ]
}
molecule test {
    units Angstrom
    0 1
    --
    0 1
    C               -2.876205957789813    -4.234546431986661    -1.147412923342008
    C               -0.136205957789813    -1.578546431986662    -1.000412923342008
    C               -1.383205957789813    -2.208546431986661    -1.201412923342008
    C                0.898794042210187    -2.293546431986662    -0.437412923342008
    C               -1.567205957789813    -3.553546431986661    -0.873412923342008
    C                0.731794042210187    -3.629546431986661    -0.152412923342008
    C               -0.491205957789813    -4.273546431986661    -0.365412923342008
    H               -0.006205957789813    -0.534546431986662    -1.250412923342008
    H               -2.202205957789813    -1.637546431986661    -1.610412923342008
    H                1.851794042210187    -1.817546431986661    -0.252412923342008
    H                1.560794042210187    -4.189546431986662     0.258587076657992
    H               -3.667205957789813    -3.669546431986662    -0.653412923342008
    H               -2.871205957789813    -5.239546431986661    -0.723412923342008
    H               -0.598205957789813    -5.324546431986661    -0.131412923342008
    H               -3.092902957789813    -4.289797431986662    -2.224440923342008
    C               -0.262205957789813     4.275453568013338    -1.640412923342008
    C                1.291794042210187     1.484453568013338     0.421587076657992
    C                1.040794042210187     1.920453568013338     1.700587076657992
    C                0.874794042210187     2.243453568013338    -0.673412923342008
    C                0.205794042210187     3.440453568013338    -0.486412923342008
    C                0.350794042210187     3.095453568013339     1.895587076657992
    C               -0.069205957789813     3.844453568013338     0.809587076657992
    O                1.459794042210187     1.166453568013338     2.759587076657992
    H                1.819794042210187     0.555453568013338     0.274587076657992
    H                1.074794042210187     1.888453568013338    -1.674412923342008
    H                0.138794042210187     3.438453568013339     2.897587076657992
    H                1.210794042210187     1.558453568013338     3.603587076657992
    H               -0.716205957789813     5.187453568013338    -1.258412923342008
    H               -1.039205957789813     3.717453568013338    -2.163412923342008
    H               -0.596205957789813     4.773453568013339     0.985587076657992
    H                0.525806042210187     4.546040568013338    -2.358618923342008

}
e, wfn = energy('scf', return_wfn=True)
gdma(wfn)
dmavals = variable('DMA DISTRIBUTED MULTIPOLES')
charges = np.array(dmavals)
print(charges)
np.save('SSI-011PHE-044TYR-1-dimer.npy', np.array(charges))--------------------------------------------------------------------------

*** tstart() called on ds3
*** at Tue Apr 28 21:47:20 2020

   => Loading Basis Set <=

    Name: CC-PVDZ
    Role: ORBITAL
    Keyword: BASIS
    atoms 1-7, 16-22  entry C          line   138 file /theoryfs2/ds/metcalf/miniconda2/envs/tf2gpu/share/psi4/basis/cc-pvdz.gbs
    atoms 8-15, 24-31 entry H          line    22 file /theoryfs2/ds/metcalf/miniconda2/envs/tf2gpu/share/psi4/basis/cc-pvdz.gbs
    atoms 23          entry O          line   198 file /theoryfs2/ds/metcalf/miniconda2/envs/tf2gpu/share/psi4/basis/cc-pvdz.gbs

         ---------------------------------------------------------
                                   SCF
               by Justin Turney, Rob Parrish, Andy Simmonett
                          and Daniel G. A. Smith
                              RHF Reference
                        1 Threads,    500 MiB Core
         ---------------------------------------------------------

  ==> Geometry <==

    Molecular point group: c1
    Full point group: C1

    Geometry (in Angstrom), charge = 0, multiplicity = 1:

       Center              X                  Y                   Z               Mass
    ------------   -----------------  -----------------  -----------------  -----------------
         C           -2.876205957790    -4.234546431987    -1.147412923342    12.000000000000
         C           -0.136205957790    -1.578546431987    -1.000412923342    12.000000000000
         C           -1.383205957790    -2.208546431987    -1.201412923342    12.000000000000
         C            0.898794042210    -2.293546431987    -0.437412923342    12.000000000000
         C           -1.567205957790    -3.553546431987    -0.873412923342    12.000000000000
         C            0.731794042210    -3.629546431987    -0.152412923342    12.000000000000
         C           -0.491205957790    -4.273546431987    -0.365412923342    12.000000000000
         H           -0.006205957790    -0.534546431987    -1.250412923342     1.007825032230
         H           -2.202205957790    -1.637546431987    -1.610412923342     1.007825032230
         H            1.851794042210    -1.817546431987    -0.252412923342     1.007825032230
         H            1.560794042210    -4.189546431987     0.258587076658     1.007825032230
         H           -3.667205957790    -3.669546431987    -0.653412923342     1.007825032230
         H           -2.871205957790    -5.239546431987    -0.723412923342     1.007825032230
         H           -0.598205957790    -5.324546431987    -0.131412923342     1.007825032230
         H           -3.092902957790    -4.289797431987    -2.224440923342     1.007825032230
         C           -0.262205957790     4.275453568013    -1.640412923342    12.000000000000
         C            1.291794042210     1.484453568013     0.421587076658    12.000000000000
         C            1.040794042210     1.920453568013     1.700587076658    12.000000000000
         C            0.874794042210     2.243453568013    -0.673412923342    12.000000000000
         C            0.205794042210     3.440453568013    -0.486412923342    12.000000000000
         C            0.350794042210     3.095453568013     1.895587076658    12.000000000000
         C           -0.069205957790     3.844453568013     0.809587076658    12.000000000000
         O            1.459794042210     1.166453568013     2.759587076658    15.994914619570
         H            1.819794042210     0.555453568013     0.274587076658     1.007825032230
         H            1.074794042210     1.888453568013    -1.674412923342     1.007825032230
         H            0.138794042210     3.438453568013     2.897587076658     1.007825032230
         H            1.210794042210     1.558453568013     3.603587076658     1.007825032230
         H           -0.716205957790     5.187453568013    -1.258412923342     1.007825032230
         H           -1.039205957790     3.717453568013    -2.163412923342     1.007825032230
         H           -0.596205957790     4.773453568013     0.985587076658     1.007825032230
         H            0.525806042210     4.546040568013    -2.358618923342     1.007825032230

  Running in c1 symmetry.

  Rotational constants: A =      0.03222  B =      0.00773  C =      0.00690 [cm^-1]
  Rotational constants: A =    966.02577  B =    231.60502  C =    206.73885 [MHz]
  Nuclear repulsion =  861.019846449143415

  Charge       = 0
  Multiplicity = 1
  Electrons    = 108
  Nalpha       = 54
  Nbeta        = 54

  ==> Algorithm <==

  SCF Algorithm Type is PK.
  DIIS enabled.
  MOM disabled.
  Fractional occupation disabled.
  Guess Type is SAD.
  Energy threshold   = 1.00e-06
  Density threshold  = 1.00e-10
  Integral threshold = 0.00e+00

  ==> Primary Basis <==

  Basis Set: CC-PVDZ
    Blend: CC-PVDZ
    Number of shells: 138
    Number of basis function: 290
    Number of Cartesian functions: 305
    Spherical Harmonics?: true
    Max angular momentum: 2

  ==> Pre-Iterations <==

   -------------------------------------------------------
    Irrep   Nso     Nmo     Nalpha   Nbeta   Ndocc  Nsocc
   -------------------------------------------------------
     A        290     290       0       0       0       0
   -------------------------------------------------------
    Total     290     290      54      54      54       0
   -------------------------------------------------------

  ==> Integral Setup <==

  Using integral reordering PK algorithm.
  Sizing the integral batches needed.
  Building batch lookup table.
   Calculation information:
      Number of atoms:                  31
      Number of AO shells:             138
      Number of primitives:            410
      Number of atomic orbitals:       305
      Number of basis functions:       290

      Integral cutoff                 1.00e-12
      Number of threads:                 1

	Batch   1 pq = [       0,    9405] index = [             0,44231715] size =     44231715
	Batch   2 pq = [    9405,   13301] index = [      44231715,88464951] size =     44233236
	Batch   3 pq = [   13301,   16290] index = [      88464951,132690195] size =     44225244
	Batch   4 pq = [   16290,   18810] index = [     132690195,176917455] size =     44227260
	Batch   5 pq = [   18810,   21030] index = [     176917455,221140965] size =     44223510
	Batch   6 pq = [   21030,   23037] index = [     221140965,265363203] size =     44222238
	Batch   7 pq = [   23037,   24883] index = [     265363203,309594286] size =     44231083
	Batch   8 pq = [   24883,   26601] index = [     309594286,353819901] size =     44225615
	Batch   9 pq = [   26601,   28214] index = [     353819901,398029005] size =     44209104
	Batch  10 pq = [   28214,   29740] index = [     398029005,442248670] size =     44219665
	Batch  11 pq = [   29740,   31191] index = [     442248670,486454836] size =     44206166
	Batch  12 pq = [   31191,   32578] index = [     486454836,530679331] size =     44224495
	Batch  13 pq = [   32578,   33908] index = [     530679331,574893186] size =     44213855
	Batch  14 pq = [   33908,   35188] index = [     574893186,619115266] size =     44222080
	Batch  15 pq = [   35188,   36423] index = [     619115266,663335676] size =     44220410
	Batch  16 pq = [   36423,   37617] index = [     663335676,707538153] size =     44202477
	Batch  17 pq = [   37617,   38775] index = [     707538153,751769700] size =     44231547
	Batch  18 pq = [   38775,   39899] index = [     751769700,795985050] size =     44215350
	Batch  19 pq = [   39899,   40992] index = [     795985050,840192528] size =     44207478
	Batch  20 pq = [   40992,   42057] index = [     840192528,884416653] size =     44224125
	Batch  21 pq = [   42057,   42195] index = [     884416653,890230110] size =      5813457
  Task number: 81
  Buffer size: 11059200
  Buffer per thread: 2
  We computed 36389292 shell quartets total.
  Whereas there are 45998436 unique shell quartets.

  ==> DiskJK: Disk-Based J/K Matrices <==

    J tasked:                  Yes
    K tasked:                  Yes
    wK tasked:                  No
    Memory [MiB]:              375
    Schwarz Cutoff:          1E-12

    OpenMP threads:              1

  Minimum eigenvalue in the overlap matrix is 2.9478539298E-04.
  Using Symmetric Orthogonalization.

  SCF Guess: Superposition of Atomic Densities via on-the-fly atomic UHF.

  ==> Iterations <==

                        Total Energy        Delta E     RMS |[F,P]|

   @RHF iter SAD:  -613.34203502784555   -6.13342e+02   0.00000e+00
   @RHF iter   1:  -614.05604753595037   -7.14013e-01   2.39135e-03 DIIS
   @RHF iter   2:  -614.33529500678742   -2.79247e-01   9.90973e-04 DIIS
   @RHF iter   3:  -614.37739941698896   -4.21044e-02   2.28710e-04 DIIS
   @RHF iter   4:  -614.38093084983393   -3.53143e-03   8.18278e-05 DIIS
   @RHF iter   5:  -614.38125750161589   -3.26652e-04   1.78707e-05 DIIS
   @RHF iter   6:  -614.38127850456999   -2.10030e-05   5.61832e-06 DIIS
   @RHF iter   7:  -614.38128074960355   -2.24503e-06   1.58285e-06 DIIS
   @RHF iter   8:  -614.38128100433426   -2.54731e-07   5.64394e-07 DIIS
   @RHF iter   9:  -614.38128103798101   -3.36468e-08   2.23281e-07 DIIS
   @RHF iter  10:  -614.38128104351426   -5.53325e-09   8.15545e-08 DIIS
   @RHF iter  11:  -614.38128104498048   -1.46622e-09   3.92699e-08 DIIS
   @RHF iter  12:  -614.38128104534132   -3.60842e-10   2.00753e-08 DIIS
   @RHF iter  13:  -614.38128104542409   -8.27640e-11   6.56542e-09 DIIS
   @RHF iter  14:  -614.38128104543432   -1.02318e-11   2.00970e-09 DIIS
   @RHF iter  15:  -614.38128104543512   -7.95808e-13   6.35061e-10 DIIS
   @RHF iter  16:  -614.38128104543466    4.54747e-13   2.63494e-10 DIIS
   @RHF iter  17:  -614.38128104543227    2.38742e-12   1.28774e-10 DIIS
   @RHF iter  18:  -614.38128104543432   -2.04636e-12   5.95648e-11 DIIS
  Energy and wave function converged.

  ==> Post-Iterations <==

    Orbital Energies [Eh]
    ---------------------

    Doubly Occupied:

       1A    -20.580956     2A    -11.294462     3A    -11.237384
       4A    -11.236214     5A    -11.236091     6A    -11.231650
       7A    -11.230938     8A    -11.230399     9A    -11.229122
      10A    -11.228618    11A    -11.227899    12A    -11.227020
      13A    -11.226279    14A    -11.226153    15A    -11.223286
      16A     -1.396801    17A     -1.157361    18A     -1.148495
      19A     -1.044085    20A     -1.043021    21A     -1.019692
      22A     -1.003051    23A     -0.929565    24A     -0.928598
      25A     -0.847290    26A     -0.823017    27A     -0.802923
      28A     -0.787958    29A     -0.732946    30A     -0.687645
      31A     -0.670626    32A     -0.642022    33A     -0.628154
      34A     -0.624828    35A     -0.606712    36A     -0.587992
      37A     -0.586474    38A     -0.574212    39A     -0.574072
      40A     -0.571448    41A     -0.569052    42A     -0.560270
      43A     -0.533161    44A     -0.527772    45A     -0.499012
      46A     -0.487591    47A     -0.482755    48A     -0.482493
      49A     -0.474616    50A     -0.468969    51A     -0.339475
      52A     -0.324089    53A     -0.319827    54A     -0.305060

    Virtual:

      55A      0.128257    56A      0.139047    57A      0.148968
      58A      0.157471    59A      0.178941    60A      0.181956
      61A      0.191311    62A      0.202906    63A      0.217649
      64A      0.219986    65A      0.238834    66A      0.245007
      67A      0.258354    68A      0.260575    69A      0.270380
      70A      0.273227    71A      0.293211    72A      0.298374
      73A      0.317663    74A      0.349579    75A      0.371532
      76A      0.373384    77A      0.379270    78A      0.382998
      79A      0.425877    80A      0.449000    81A      0.466040
      82A      0.475738    83A      0.478274    84A      0.490574
      85A      0.500084    86A      0.510915    87A      0.527179
      88A      0.581650    89A      0.601554    90A      0.619374
      91A      0.624405    92A      0.630264    93A      0.647864
      94A      0.666510    95A      0.673977    96A      0.684557
      97A      0.690419    98A      0.700590    99A      0.701847
     100A      0.713884   101A      0.721820   102A      0.730155
     103A      0.738037   104A      0.741327   105A      0.750317
     106A      0.751106   107A      0.757554   108A      0.761788
     109A      0.762793   110A      0.767703   111A      0.782094
     112A      0.783450   113A      0.791947   114A      0.795487
     115A      0.804614   116A      0.817191   117A      0.841412
     118A      0.851542   119A      0.859446   120A      0.866344
     121A      0.877227   122A      0.884879   123A      0.888655
     124A      0.891175   125A      0.893146   126A      0.897830
     127A      0.905221   128A      0.912802   129A      0.923584
     130A      0.926669   131A      0.938549   132A      0.941010
     133A      0.951228   134A      0.954270   135A      0.962727
     136A      0.976438   137A      1.000282   138A      1.027579
     139A      1.045003   140A      1.053889   141A      1.064403
     142A      1.081867   143A      1.134486   144A      1.140801
     145A      1.143462   146A      1.148020   147A      1.155500
     148A      1.160302   149A      1.183767   150A      1.192685
     151A      1.204021   152A      1.212260   153A      1.231022
     154A      1.240305   155A      1.242566   156A      1.254104
     157A      1.258700   158A      1.261923   159A      1.287614
     160A      1.294737   161A      1.301740   162A      1.308915
     163A      1.315045   164A      1.318249   165A      1.319795
     166A      1.332207   167A      1.340654   168A      1.365998
     169A      1.377812   170A      1.395719   171A      1.425814
     172A      1.483431   173A      1.510363   174A      1.525570
     175A      1.538986   176A      1.545827   177A      1.565034
     178A      1.565989   179A      1.612650   180A      1.617935
     181A      1.623932   182A      1.676305   183A      1.677903
     184A      1.689403   185A      1.694700   186A      1.735371
     187A      1.737334   188A      1.742619   189A      1.751510
     190A      1.767865   191A      1.786259   192A      1.795637
     193A      1.813107   194A      1.821211   195A      1.823796
     196A      1.859382   197A      1.867359   198A      1.889530
     199A      1.896516   200A      1.899389   201A      1.902834
     202A      1.905393   203A      1.912395   204A      1.924891
     205A      1.927083   206A      1.931368   207A      1.933757
     208A      1.945099   209A      1.950199   210A      1.966859
     211A      1.968712   212A      1.975290   213A      1.979558
     214A      1.995546   215A      1.998814   216A      2.014850
     217A      2.023911   218A      2.037984   219A      2.054713
     220A      2.063114   221A      2.068564   222A      2.075035
     223A      2.086313   224A      2.103549   225A      2.117103
     226A      2.124661   227A      2.132579   228A      2.154396
     229A      2.163234   230A      2.178051   231A      2.183104
     232A      2.195491   233A      2.215926   234A      2.226836
     235A      2.235410   236A      2.247174   237A      2.256781
     238A      2.278306   239A      2.283269   240A      2.290978
     241A      2.307711   242A      2.321324   243A      2.340587
     244A      2.361383   245A      2.368612   246A      2.387733
     247A      2.408990   248A      2.457303   249A      2.461851
     250A      2.478588   251A      2.488641   252A      2.501204
     253A      2.524178   254A      2.535758   255A      2.537381
     256A      2.549571   257A      2.626746   258A      2.639696
     259A      2.655457   260A      2.733923   261A      2.745784
     262A      2.769644   263A      2.773248   264A      2.774750
     265A      2.792933   266A      2.802481   267A      2.819771
     268A      2.828336   269A      2.845338   270A      2.850611
     271A      2.883495   272A      2.904698   273A      2.973598
     274A      2.982003   275A      3.016196   276A      3.018716
     277A      3.040653   278A      3.107433   279A      3.146475
     280A      3.163288   281A      3.210679   282A      3.252151
     283A      3.302035   284A      3.311314   285A      3.351119
     286A      3.581136   287A      3.686803   288A      3.975406
     289A      3.990587   290A      4.203582

    Final Occupation by Irrep:
              A
    DOCC [    54 ]

  @RHF Final Energy:  -614.38128104543432

   => Energetics <=

    Nuclear Repulsion Energy =            861.0198464491434152
    One-Electron Energy =               -2541.4830538956916826
    Two-Electron Energy =                1066.0819264011140604
    Total Energy =                       -614.3812810454342070

Computation Completed

Properties will be evaluated at   0.000000,   0.000000,   0.000000 [a0]

Properties computed using the SCF density matrix

  Nuclear Dipole Moment: [e a0]
     X:    -6.1868      Y:    -0.9669      Z:    -5.8748

  Electronic Dipole Moment: [e a0]
     X:     5.7887      Y:     1.4341      Z:     6.0821

  Dipole Moment: [e a0]
     X:    -0.3981      Y:     0.4672      Z:     0.2072     Total:     0.6479

  Dipole Moment: [D]
     X:    -1.0119      Y:     1.1875      Z:     0.5268     Total:     1.6467

*** tstop() called on ds3 at Tue Apr 28 21:55:25 2020
Module time:
	user time   =     320.89 seconds =       5.35 minutes
	system time =     134.53 seconds =       2.24 minutes
	total time  =        485 seconds =       8.08 minutes
Total time:
	user time   =     320.89 seconds =       5.35 minutes
	system time =     134.53 seconds =       2.24 minutes
	total time  =        485 seconds =       8.08 minutes
                                     G D M A

                                 by Anthony Stone

                           version 2.2.06, 22 June 2011

               Distributed Multipoles from Gaussian wavefunctions

Starting at 21:55:25 on 28 Apr 2020

Using SCF density matrix from file ./SSI/SSI-011PHE-044TYR-1-dimer.test.31682.fchk

                         Distributed Multipole Analysis

Standard DMA

Positions and radii in angstrom
Multipole moments in atomic units, ea_0^k for rank k

C          x = -2.876206  y = -4.234546  z = -1.147413 angstrom
           Maximum rank =  0   Radius =  0.650 angstrom
                   Q00  =  -0.200719

C          x = -0.136206  y = -1.578546  z = -1.000413 angstrom
           Maximum rank =  0   Radius =  0.650 angstrom
                   Q00  =  -0.063477

C          x = -1.383206  y = -2.208546  z = -1.201413 angstrom
           Maximum rank =  0   Radius =  0.650 angstrom
                   Q00  =  -0.071654

C          x =  0.898794  y = -2.293546  z = -0.437413 angstrom
           Maximum rank =  0   Radius =  0.650 angstrom
                   Q00  =  -0.098118

C          x = -1.567206  y = -3.553546  z = -0.873413 angstrom
           Maximum rank =  0   Radius =  0.650 angstrom
                   Q00  =  -0.104714

C          x =  0.731794  y = -3.629546  z = -0.152413 angstrom
           Maximum rank =  0   Radius =  0.650 angstrom
                   Q00  =   0.036826

C          x = -0.491206  y = -4.273546  z = -0.365413 angstrom
           Maximum rank =  0   Radius =  0.650 angstrom
                   Q00  =  -0.094294

H          x = -0.006206  y = -0.534546  z = -1.250413 angstrom
           Maximum rank =  0   Radius =  0.325 angstrom
                   Q00  =   0.068958

H          x = -2.202206  y = -1.637546  z = -1.610413 angstrom
           Maximum rank =  0   Radius =  0.325 angstrom
                   Q00  =   0.053034

H          x =  1.851794  y = -1.817546  z = -0.252413 angstrom
           Maximum rank =  0   Radius =  0.325 angstrom
                   Q00  =   0.054668

H          x =  1.560794  y = -4.189546  z =  0.258587 angstrom
           Maximum rank =  0   Radius =  0.325 angstrom
                   Q00  =   0.061271

H          x = -3.667206  y = -3.669546  z = -0.653413 angstrom
           Maximum rank =  0   Radius =  0.325 angstrom
                   Q00  =   0.100077

H          x = -2.871206  y = -5.239546  z = -0.723413 angstrom
           Maximum rank =  0   Radius =  0.325 angstrom
                   Q00  =   0.096836

H          x = -0.598206  y = -5.324546  z = -0.131413 angstrom
           Maximum rank =  0   Radius =  0.325 angstrom
                   Q00  =   0.058748

H          x = -3.092903  y = -4.289797  z = -2.224441 angstrom
           Maximum rank =  0   Radius =  0.325 angstrom
                   Q00  =   0.102883

C          x = -0.262206  y =  4.275454  z = -1.640413 angstrom
           Maximum rank =  0   Radius =  0.650 angstrom
                   Q00  =  -0.202321

C          x =  1.291794  y =  1.484454  z =  0.421587 angstrom
           Maximum rank =  0   Radius =  0.650 angstrom
                   Q00  =  -0.106185

C          x =  1.040794  y =  1.920454  z =  1.700587 angstrom
           Maximum rank =  0   Radius =  0.650 angstrom
                   Q00  =   0.328254

C          x =  0.874794  y =  2.243454  z = -0.673413 angstrom
           Maximum rank =  0   Radius =  0.650 angstrom
                   Q00  =  -0.068207

C          x =  0.205794  y =  3.440454  z = -0.486413 angstrom
           Maximum rank =  0   Radius =  0.650 angstrom
                   Q00  =  -0.130126

C          x =  0.350794  y =  3.095454  z =  1.895587 angstrom
           Maximum rank =  0   Radius =  0.650 angstrom
                   Q00  =  -0.151062

C          x = -0.069206  y =  3.844454  z =  0.809587 angstrom
           Maximum rank =  0   Radius =  0.650 angstrom
                   Q00  =   0.042456

O          x =  1.459794  y =  1.166454  z =  2.759587 angstrom
           Maximum rank =  0   Radius =  0.650 angstrom
                   Q00  =  -0.683149

H          x =  1.819794  y =  0.555454  z =  0.274587 angstrom
           Maximum rank =  0   Radius =  0.325 angstrom
                   Q00  =   0.075406

H          x =  1.074794  y =  1.888454  z = -1.674413 angstrom
           Maximum rank =  0   Radius =  0.325 angstrom
                   Q00  =   0.058868

H          x =  0.138794  y =  3.438454  z =  2.897587 angstrom
           Maximum rank =  0   Radius =  0.325 angstrom
                   Q00  =   0.070555

H          x =  1.210794  y =  1.558454  z =  3.603587 angstrom
           Maximum rank =  0   Radius =  0.325 angstrom
                   Q00  =   0.404751

H          x = -0.716206  y =  5.187454  z = -1.258413 angstrom
           Maximum rank =  0   Radius =  0.325 angstrom
                   Q00  =   0.095714

H          x = -1.039206  y =  3.717454  z = -2.163413 angstrom
           Maximum rank =  0   Radius =  0.325 angstrom
                   Q00  =   0.097288

H          x = -0.596206  y =  4.773454  z =  0.985587 angstrom
           Maximum rank =  0   Radius =  0.325 angstrom
                   Q00  =   0.067642

H          x =  0.525806  y =  4.546041  z = -2.358619 angstrom
           Maximum rank =  0   Radius =  0.325 angstrom
                   Q00  =   0.099789

Total multipoles referred to origin at
           x =   0.000000,  y =    0.000000,  z =    0.000000 angstrom
                   Q00  =  -0.000000

Finished at 21:55:25 on 28 Apr 2020

  DMA results are available in the Python driver through the
	  variable('DMA DISTRIBUTED MULTIPOLES')
  and
	  variable('DMA TOTAL MULTIPOLES')
  commands.

    Psi4 stopped on: Tuesday, 28 April 2020 09:55PM
    Psi4 wall time for execution: 0:08:05.41

*** Psi4 exiting successfully. Buy a developer a beer!
