                               Psi4 1.3.2 release

  ==> Input File <==

--------------------------------------------------------------------------
import numpy as np
set {scf_type pk
basis cc-pvdz
d_convergence 10
gdma_switch   0
gdma_limit    0
gdma_origin   [ 0.0,  0.0,  0.0 ]
}
molecule test {
    units Angstrom
    0 1
    --
    0 1
    C               -0.779609946648556     0.157675381135845    -3.113665254970280
    C               -0.041609946648556     1.344675381135845    -3.728665254970280
    C               -2.296609946648556     0.311675381135845    -3.026665254970280
    H               -0.550609946648556    -0.738324618864154    -3.693665254970280
    H               -0.408609946648556    -0.002324618864155    -2.106665254970280
    H               -0.313609946648556     2.251675381135846    -3.187665254970280
    H               -2.693609946648556     0.490675381135845    -4.023665254970281
    H               -0.312479946648556     1.444075381135845    -4.790149254970280
    H                1.044500053351444     1.201025381135845    -3.629994254970280
    H               -2.748229946648556    -0.616924618864155    -2.647539254970281
    H               -2.577409946648556     1.161305381135845    -2.386911254970280
    C               -0.871609946648556     2.153675381135845     2.457334745029720
    C                0.997390053351444    -0.189324618864155     0.076334745029720
    C                1.025390053351444    -1.371324618864155     0.810334745029720
    C                0.387390053351444     0.954675381135845     0.600334745029720
    C               -0.186609946648556     0.931675381135845     1.875334745029720
    C                0.468390053351444    -1.404324618864154     2.079334745029719
    C               -0.149609946648556    -0.265324618864155     2.600334745029720
    O                1.618390053351444    -2.496324618864155     0.305334745029720
    H                1.461390053351444    -0.170324618864155    -0.896665254970280
    H                0.367390053351444     1.866675381135845     0.020334745029720
    H                0.489390053351444    -2.319324618864155     2.652334745029719
    H                1.615390053351444    -3.222324618864155     0.938334745029720
    H               -1.512609946648556     1.825675381135845     3.275334745029720
    H               -1.528609946648556     2.584675381135845     1.700334745029720
    H               -0.595609946648556    -0.307324618864155     3.585334745029720
    H               -0.191329946648556     2.928985381135845     2.839588745029720

}
e, wfn = energy('scf', return_wfn=True)
gdma(wfn)
dmavals = variable('DMA DISTRIBUTED MULTIPOLES')
charges = np.array(dmavals)
print(charges)
np.save('SSI-004LEU-010TYR-1-dimer.npy', np.array(charges))--------------------------------------------------------------------------

*** tstart() called on ds3
*** at Sun Apr 26 23:35:37 2020

   => Loading Basis Set <=

    Name: CC-PVDZ
    Role: ORBITAL
    Keyword: BASIS
    atoms 1-3, 12-18  entry C          line   138 file /theoryfs2/ds/metcalf/miniconda2/envs/tf2gpu/share/psi4/basis/cc-pvdz.gbs
    atoms 4-11, 20-27 entry H          line    22 file /theoryfs2/ds/metcalf/miniconda2/envs/tf2gpu/share/psi4/basis/cc-pvdz.gbs
    atoms 19          entry O          line   198 file /theoryfs2/ds/metcalf/miniconda2/envs/tf2gpu/share/psi4/basis/cc-pvdz.gbs

         ---------------------------------------------------------
                                   SCF
               by Justin Turney, Rob Parrish, Andy Simmonett
                          and Daniel G. A. Smith
                              RHF Reference
                        1 Threads,    500 MiB Core
         ---------------------------------------------------------

  ==> Geometry <==

    Molecular point group: c1
    Full point group: C1

    Geometry (in Angstrom), charge = 0, multiplicity = 1:

       Center              X                  Y                   Z               Mass
    ------------   -----------------  -----------------  -----------------  -----------------
         C           -0.779609946649     0.157675381136    -3.113665254970    12.000000000000
         C           -0.041609946649     1.344675381136    -3.728665254970    12.000000000000
         C           -2.296609946649     0.311675381136    -3.026665254970    12.000000000000
         H           -0.550609946649    -0.738324618864    -3.693665254970     1.007825032230
         H           -0.408609946649    -0.002324618864    -2.106665254970     1.007825032230
         H           -0.313609946649     2.251675381136    -3.187665254970     1.007825032230
         H           -2.693609946649     0.490675381136    -4.023665254970     1.007825032230
         H           -0.312479946649     1.444075381136    -4.790149254970     1.007825032230
         H            1.044500053351     1.201025381136    -3.629994254970     1.007825032230
         H           -2.748229946649    -0.616924618864    -2.647539254970     1.007825032230
         H           -2.577409946649     1.161305381136    -2.386911254970     1.007825032230
         C           -0.871609946649     2.153675381136     2.457334745030    12.000000000000
         C            0.997390053351    -0.189324618864     0.076334745030    12.000000000000
         C            1.025390053351    -1.371324618864     0.810334745030    12.000000000000
         C            0.387390053351     0.954675381136     0.600334745030    12.000000000000
         C           -0.186609946649     0.931675381136     1.875334745030    12.000000000000
         C            0.468390053351    -1.404324618864     2.079334745030    12.000000000000
         C           -0.149609946649    -0.265324618864     2.600334745030    12.000000000000
         O            1.618390053351    -2.496324618864     0.305334745030    15.994914619570
         H            1.461390053351    -0.170324618864    -0.896665254970     1.007825032230
         H            0.367390053351     1.866675381136     0.020334745030     1.007825032230
         H            0.489390053351    -2.319324618864     2.652334745030     1.007825032230
         H            1.615390053351    -3.222324618864     0.938334745030     1.007825032230
         H           -1.512609946649     1.825675381136     3.275334745030     1.007825032230
         H           -1.528609946649     2.584675381136     1.700334745030     1.007825032230
         H           -0.595609946649    -0.307324618864     3.585334745030     1.007825032230
         H           -0.191329946649     2.928985381136     2.839588745030     1.007825032230

  Running in c1 symmetry.

  Rotational constants: A =      0.03843  B =      0.01832  C =      0.01418 [cm^-1]
  Rotational constants: A =   1152.15603  B =    549.36381  C =    424.99502 [MHz]
  Nuclear repulsion =  576.152012805985350

  Charge       = 0
  Multiplicity = 1
  Electrons    = 84
  Nalpha       = 42
  Nbeta        = 42

  ==> Algorithm <==

  SCF Algorithm Type is PK.
  DIIS enabled.
  MOM disabled.
  Fractional occupation disabled.
  Guess Type is SAD.
  Energy threshold   = 1.00e-06
  Density threshold  = 1.00e-10
  Integral threshold = 0.00e+00

  ==> Primary Basis <==

  Basis Set: CC-PVDZ
    Blend: CC-PVDZ
    Number of shells: 114
    Number of basis function: 234
    Number of Cartesian functions: 245
    Spherical Harmonics?: true
    Max angular momentum: 2

  ==> Pre-Iterations <==

   -------------------------------------------------------
    Irrep   Nso     Nmo     Nalpha   Nbeta   Ndocc  Nsocc
   -------------------------------------------------------
     A        234     234       0       0       0       0
   -------------------------------------------------------
    Total     234     234      42      42      42       0
   -------------------------------------------------------

  ==> Integral Setup <==

  Using integral reordering PK algorithm.
  Sizing the integral batches needed.
  Building batch lookup table.
   Calculation information:
      Number of atoms:                  27
      Number of AO shells:             114
      Number of primitives:            322
      Number of atomic orbitals:       245
      Number of basis functions:       234

      Integral cutoff                 1.00e-12
      Number of threads:                 1

	Batch   1 pq = [       0,    9405] index = [             0,44231715] size =     44231715
	Batch   2 pq = [    9405,   13301] index = [      44231715,88464951] size =     44233236
	Batch   3 pq = [   13301,   16290] index = [      88464951,132690195] size =     44225244
	Batch   4 pq = [   16290,   18810] index = [     132690195,176917455] size =     44227260
	Batch   5 pq = [   18810,   21030] index = [     176917455,221140965] size =     44223510
	Batch   6 pq = [   21030,   23037] index = [     221140965,265363203] size =     44222238
	Batch   7 pq = [   23037,   24883] index = [     265363203,309594286] size =     44231083
	Batch   8 pq = [   24883,   26601] index = [     309594286,353819901] size =     44225615
	Batch   9 pq = [   26601,   27495] index = [     353819901,378001260] size =     24181359
  Task number: 35
  Buffer size: 11059200
  Buffer per thread: 2
  We computed 19272331 shell quartets total.
  Whereas there are 21487290 unique shell quartets.

  ==> DiskJK: Disk-Based J/K Matrices <==

    J tasked:                  Yes
    K tasked:                  Yes
    wK tasked:                  No
    Memory [MiB]:              375
    Schwarz Cutoff:          1E-12

    OpenMP threads:              1

  Minimum eigenvalue in the overlap matrix is 3.2905575696E-04.
  Using Symmetric Orthogonalization.

  SCF Guess: Superposition of Atomic Densities via on-the-fly atomic UHF.

  ==> Iterations <==

                        Total Energy        Delta E     RMS |[F,P]|

   @RHF iter SAD:  -461.65032210531507   -4.61650e+02   0.00000e+00
   @RHF iter   1:  -462.60685128728215   -9.56529e-01   2.81070e-03 DIIS
   @RHF iter   2:  -462.84864315966303   -2.41792e-01   1.19261e-03 DIIS
   @RHF iter   3:  -462.88795191220811   -3.93088e-02   2.68703e-04 DIIS
   @RHF iter   4:  -462.89120112389554   -3.24921e-03   1.05184e-04 DIIS
   @RHF iter   5:  -462.89155379862092   -3.52675e-04   2.03339e-05 DIIS
   @RHF iter   6:  -462.89157311123677   -1.93126e-05   6.24034e-06 DIIS
   @RHF iter   7:  -462.89157499657711   -1.88534e-06   1.82014e-06 DIIS
   @RHF iter   8:  -462.89157521173991   -2.15163e-07   6.70047e-07 DIIS
   @RHF iter   9:  -462.89157524075375   -2.90138e-08   2.46692e-07 DIIS
   @RHF iter  10:  -462.89157524509034   -4.33658e-09   8.65042e-08 DIIS
   @RHF iter  11:  -462.89157524614461   -1.05427e-09   3.96022e-08 DIIS
   @RHF iter  12:  -462.89157524639955   -2.54943e-10   2.07347e-08 DIIS
   @RHF iter  13:  -462.89157524646248   -6.29257e-11   8.10157e-09 DIIS
   @RHF iter  14:  -462.89157524647192   -9.43601e-12   1.80282e-09 DIIS
   @RHF iter  15:  -462.89157524647055    1.36424e-12   7.23376e-10 DIIS
   @RHF iter  16:  -462.89157524647015    3.97904e-13   2.50299e-10 DIIS
   @RHF iter  17:  -462.89157524647084   -6.82121e-13   1.17564e-10 DIIS
   @RHF iter  18:  -462.89157524647158   -7.38964e-13   6.12505e-11 DIIS
  Energy and wave function converged.

  ==> Post-Iterations <==

    Orbital Energies [Eh]
    ---------------------

    Doubly Occupied:

       1A    -20.583122     2A    -11.299850     3A    -11.241042
       4A    -11.240758     5A    -11.236781     6A    -11.233734
       7A    -11.232412     8A    -11.229966     9A    -11.215227
      10A    -11.212176    11A    -11.210815    12A     -1.397676
      13A     -1.150056    14A     -1.048117    15A     -1.037248
      16A     -1.017359    17A     -0.927414    18A     -0.921213
      19A     -0.844983    20A     -0.803377    21A     -0.789889
      22A     -0.731821    23A     -0.668399    24A     -0.643096
      25A     -0.621877    26A     -0.607049    27A     -0.590946
      28A     -0.586342    29A     -0.584157    30A     -0.570248
      31A     -0.567952    32A     -0.544887    33A     -0.529637
      34A     -0.526126    35A     -0.498103    36A     -0.486078
      37A     -0.470896    38A     -0.468821    39A     -0.463510
      40A     -0.456958    41A     -0.337659    42A     -0.303859

    Virtual:

      43A      0.127273    44A      0.152139    45A      0.168942
      46A      0.179478    47A      0.193143    48A      0.210096
      49A      0.219787    50A      0.228560    51A      0.242149
      52A      0.258240    53A      0.263766    54A      0.268652
      55A      0.282228    56A      0.287652    57A      0.295132
      58A      0.305762    59A      0.318695    60A      0.332386
      61A      0.365747    62A      0.376707    63A      0.382894
      64A      0.423439    65A      0.435335    66A      0.452294
      67A      0.478671    68A      0.498845    69A      0.511190
      70A      0.577662    71A      0.606871    72A      0.609146
      73A      0.622095    74A      0.627529    75A      0.633695
      76A      0.647375    77A      0.658636    78A      0.669432
      79A      0.688307    80A      0.696358    81A      0.707231
      82A      0.729760    83A      0.736531    84A      0.759869
      85A      0.769095    86A      0.772277    87A      0.791440
      88A      0.793251    89A      0.804094    90A      0.806202
      91A      0.832068    92A      0.849593    93A      0.852998
      94A      0.875965    95A      0.880797    96A      0.883893
      97A      0.889643    98A      0.891557    99A      0.896493
     100A      0.902751   101A      0.907895   102A      0.910937
     103A      0.923942   104A      0.926838   105A      0.931274
     106A      0.941711   107A      0.945089   108A      0.953527
     109A      0.965649   110A      0.980830   111A      1.007801
     112A      1.020466   113A      1.039594   114A      1.085810
     115A      1.124155   116A      1.132073   117A      1.136272
     118A      1.137882   119A      1.152905   120A      1.178061
     121A      1.201593   122A      1.231698   123A      1.247300
     124A      1.259681   125A      1.284149   126A      1.297671
     127A      1.300929   128A      1.311087   129A      1.332535
     130A      1.357037   131A      1.369568   132A      1.386406
     133A      1.403579   134A      1.475687   135A      1.481267
     136A      1.497050   137A      1.503450   138A      1.520234
     139A      1.539425   140A      1.547930   141A      1.607661
     142A      1.620827   143A      1.650273   144A      1.675857
     145A      1.686564   146A      1.690925   147A      1.697117
     148A      1.700911   149A      1.730375   150A      1.747017
     151A      1.780852   152A      1.800928   153A      1.807294
     154A      1.848832   155A      1.873452   156A      1.880505
     157A      1.881998   158A      1.890865   159A      1.899363
     160A      1.902616   161A      1.903967   162A      1.911469
     163A      1.919595   164A      1.931754   165A      1.950924
     166A      1.955821   167A      1.961760   168A      1.968650
     169A      1.980059   170A      1.981439   171A      1.986853
     172A      1.998561   173A      2.006066   174A      2.023310
     175A      2.037627   176A      2.039285   177A      2.045502
     178A      2.055257   179A      2.067139   180A      2.078125
     181A      2.127089   182A      2.138376   183A      2.145584
     184A      2.162470   185A      2.171385   186A      2.205018
     187A      2.222438   188A      2.255718   189A      2.269432
     190A      2.291298   191A      2.297646   192A      2.313591
     193A      2.329785   194A      2.337548   195A      2.344213
     196A      2.374365   197A      2.414478   198A      2.455067
     199A      2.468715   200A      2.489080   201A      2.501263
     202A      2.524603   203A      2.533157   204A      2.548150
     205A      2.596606   206A      2.600942   207A      2.615443
     208A      2.641549   209A      2.650830   210A      2.744326
     211A      2.754898   212A      2.761330   213A      2.770287
     214A      2.787984   215A      2.789645   216A      2.810709
     217A      2.820493   218A      2.846495   219A      2.889424
     220A      2.933091   221A      2.958154   222A      2.974395
     223A      2.983490   224A      3.006641   225A      3.077337
     226A      3.098628   227A      3.103990   228A      3.248115
     229A      3.282515   230A      3.344550   231A      3.569489
     232A      3.659066   233A      3.971928   234A      4.184978

    Final Occupation by Irrep:
              A
    DOCC [    42 ]

  @RHF Final Energy:  -462.89157524647158

   => Energetics <=

    Nuclear Repulsion Energy =            576.1520128059853505
    One-Electron Energy =               -1769.8239077914076915
    Two-Electron Energy =                 730.7803197389507659
    Total Energy =                       -462.8915752464715752

Computation Completed

Properties will be evaluated at   0.000000,   0.000000,   0.000000 [a0]

Properties computed using the SCF density matrix

  Nuclear Dipole Moment: [e a0]
     X:    -7.9182      Y:     7.8420      Z:   -11.5775

  Electronic Dipole Moment: [e a0]
     X:     7.7629      Y:    -8.0019      Z:    12.1854

  Dipole Moment: [e a0]
     X:    -0.1553      Y:    -0.1599      Z:     0.6079     Total:     0.6475

  Dipole Moment: [D]
     X:    -0.3947      Y:    -0.4063      Z:     1.5451     Total:     1.6457

*** tstop() called on ds3 at Sun Apr 26 23:42:32 2020
Module time:
	user time   =     137.13 seconds =       2.29 minutes
	system time =      52.42 seconds =       0.87 minutes
	total time  =        415 seconds =       6.92 minutes
Total time:
	user time   =     137.13 seconds =       2.29 minutes
	system time =      52.42 seconds =       0.87 minutes
	total time  =        415 seconds =       6.92 minutes
                                     G D M A

                                 by Anthony Stone

                           version 2.2.06, 22 June 2011

               Distributed Multipoles from Gaussian wavefunctions

Starting at 23:42:32 on 26 Apr 2020

Using SCF density matrix from file ./SSI/SSI-004LEU-010TYR-1-dimer.test.1793.fchk

                         Distributed Multipole Analysis

Standard DMA

Positions and radii in angstrom
Multipole moments in atomic units, ea_0^k for rank k

C          x = -0.779610  y =  0.157675  z = -3.113665 angstrom
           Maximum rank =  0   Radius =  0.650 angstrom
                   Q00  =  -0.078415

C          x = -0.041610  y =  1.344675  z = -3.728665 angstrom
           Maximum rank =  0   Radius =  0.650 angstrom
                   Q00  =  -0.248107

C          x = -2.296610  y =  0.311675  z = -3.026665 angstrom
           Maximum rank =  0   Radius =  0.650 angstrom
                   Q00  =  -0.246951

H          x = -0.550610  y = -0.738325  z = -3.693665 angstrom
           Maximum rank =  0   Radius =  0.325 angstrom
                   Q00  =   0.044447

H          x = -0.408610  y = -0.002325  z = -2.106665 angstrom
           Maximum rank =  0   Radius =  0.325 angstrom
                   Q00  =   0.064165

H          x = -0.313610  y =  2.251675  z = -3.187665 angstrom
           Maximum rank =  0   Radius =  0.325 angstrom
                   Q00  =   0.072014

H          x = -2.693610  y =  0.490675  z = -4.023665 angstrom
           Maximum rank =  0   Radius =  0.325 angstrom
                   Q00  =   0.071207

H          x = -0.312480  y =  1.444075  z = -4.790149 angstrom
           Maximum rank =  0   Radius =  0.325 angstrom
                   Q00  =   0.078552

H          x =  1.044500  y =  1.201025  z = -3.629994 angstrom
           Maximum rank =  0   Radius =  0.325 angstrom
                   Q00  =   0.081166

H          x = -2.748230  y = -0.616925  z = -2.647539 angstrom
           Maximum rank =  0   Radius =  0.325 angstrom
                   Q00  =   0.086463

H          x = -2.577410  y =  1.161305  z = -2.386911 angstrom
           Maximum rank =  0   Radius =  0.325 angstrom
                   Q00  =   0.074685

C          x = -0.871610  y =  2.153675  z =  2.457335 angstrom
           Maximum rank =  0   Radius =  0.650 angstrom
                   Q00  =  -0.199709

C          x =  0.997390  y = -0.189325  z =  0.076335 angstrom
           Maximum rank =  0   Radius =  0.650 angstrom
                   Q00  =  -0.063660

C          x =  1.025390  y = -1.371325  z =  0.810335 angstrom
           Maximum rank =  0   Radius =  0.650 angstrom
                   Q00  =   0.318868

C          x =  0.387390  y =  0.954675  z =  0.600335 angstrom
           Maximum rank =  0   Radius =  0.650 angstrom
                   Q00  =  -0.055786

C          x = -0.186610  y =  0.931675  z =  1.875335 angstrom
           Maximum rank =  0   Radius =  0.650 angstrom
                   Q00  =  -0.141732

C          x =  0.468390  y = -1.404325  z =  2.079335 angstrom
           Maximum rank =  0   Radius =  0.650 angstrom
                   Q00  =  -0.176110

C          x = -0.149610  y = -0.265325  z =  2.600335 angstrom
           Maximum rank =  0   Radius =  0.650 angstrom
                   Q00  =   0.013680

O          x =  1.618390  y = -2.496325  z =  0.305335 angstrom
           Maximum rank =  0   Radius =  0.650 angstrom
                   Q00  =  -0.684298

H          x =  1.461390  y = -0.170325  z = -0.896665 angstrom
           Maximum rank =  0   Radius =  0.325 angstrom
                   Q00  =   0.081193

H          x =  0.367390  y =  1.866675  z =  0.020335 angstrom
           Maximum rank =  0   Radius =  0.325 angstrom
                   Q00  =   0.065503

H          x =  0.489390  y = -2.319325  z =  2.652335 angstrom
           Maximum rank =  0   Radius =  0.325 angstrom
                   Q00  =   0.070526

H          x =  1.615390  y = -3.222325  z =  0.938335 angstrom
           Maximum rank =  0   Radius =  0.325 angstrom
                   Q00  =   0.407289

H          x = -1.512610  y =  1.825675  z =  3.275335 angstrom
           Maximum rank =  0   Radius =  0.325 angstrom
                   Q00  =   0.095238

H          x = -1.528610  y =  2.584675  z =  1.700335 angstrom
           Maximum rank =  0   Radius =  0.325 angstrom
                   Q00  =   0.097630

H          x = -0.595610  y = -0.307325  z =  3.585335 angstrom
           Maximum rank =  0   Radius =  0.325 angstrom
                   Q00  =   0.070286

H          x = -0.191330  y =  2.928985  z =  2.839589 angstrom
           Maximum rank =  0   Radius =  0.325 angstrom
                   Q00  =   0.101855

Total multipoles referred to origin at
           x =   0.000000,  y =    0.000000,  z =    0.000000 angstrom
                   Q00  =  -0.000000

Finished at 23:42:32 on 26 Apr 2020

  DMA results are available in the Python driver through the
	  variable('DMA DISTRIBUTED MULTIPOLES')
  and
	  variable('DMA TOTAL MULTIPOLES')
  commands.

    Psi4 stopped on: Sunday, 26 April 2020 11:42PM
    Psi4 wall time for execution: 0:06:54.96

*** Psi4 exiting successfully. Buy a developer a beer!
