                               Psi4 1.3.2 release

  ==> Input File <==

--------------------------------------------------------------------------
import numpy as np
set {scf_type pk
basis cc-pvdz
d_convergence 10
gdma_switch   0
gdma_limit    0
gdma_origin   [ 0.0,  0.0,  0.0 ]
}
molecule test {
    units Angstrom
    -1 1
    --
    -1 1
    C                1.214373245580510    -2.282303549664371    -3.430409271654843
    C                0.854373245580510    -1.125303549664371    -2.492409271654842
    O                1.204373245580510    -1.208303549664371    -1.294409271654842
    O                0.246373245580510    -0.148303549664371    -2.955409271654843
    H                0.459373245580510    -3.065303549664371    -3.340409271654842
    H                2.163373245580510    -2.717303549664371    -3.108409271654842
    H                1.318353245580510    -1.983373549664371    -4.483889271654842
    C               -1.642626754419490     2.483696450335629     2.965590728345158
    C               -0.004626754419490    -0.544303549664371     1.725590728345158
    C               -0.583626754419490     1.395696450335629     0.860590728345158
    C               -0.957626754419490     1.406696450335629     2.160590728345158
    N               -0.006626754419490     0.168696450335629     0.613590728345158
    N               -0.586626754419490     0.170696450335629     2.690590728345158
    H                0.386373245580510    -0.154303549664371    -0.271409271654842
    H                0.393373245580510    -1.549303549664371     1.824590728345158
    H               -0.716626754419490     2.202696450335629     0.153590728345158
    H               -2.543626754419490     2.054696450335629     3.404590728345158
    H               -1.925626754419490     3.283696450335629     2.288590728345158
    H               -0.983696754419490     2.857356450335629     3.763205728345158

}
e, wfn = energy('scf', return_wfn=True)
gdma(wfn)
dmavals = variable('DMA DISTRIBUTED MULTIPOLES')
charges = np.array(dmavals)
print(charges)
np.save('SSI-024ASP-065HIE-1-dimer.npy', np.array(charges))--------------------------------------------------------------------------

*** tstart() called on ds3
*** at Mon Apr 27 19:06:17 2020

   => Loading Basis Set <=

    Name: CC-PVDZ
    Role: ORBITAL
    Keyword: BASIS
    atoms 1-2, 8-11  entry C          line   138 file /theoryfs2/ds/metcalf/miniconda2/envs/tf2gpu/share/psi4/basis/cc-pvdz.gbs
    atoms 3-4        entry O          line   198 file /theoryfs2/ds/metcalf/miniconda2/envs/tf2gpu/share/psi4/basis/cc-pvdz.gbs
    atoms 5-7, 14-19 entry H          line    22 file /theoryfs2/ds/metcalf/miniconda2/envs/tf2gpu/share/psi4/basis/cc-pvdz.gbs
    atoms 12-13      entry N          line   168 file /theoryfs2/ds/metcalf/miniconda2/envs/tf2gpu/share/psi4/basis/cc-pvdz.gbs

         ---------------------------------------------------------
                                   SCF
               by Justin Turney, Rob Parrish, Andy Simmonett
                          and Daniel G. A. Smith
                              RHF Reference
                        1 Threads,    500 MiB Core
         ---------------------------------------------------------

  ==> Geometry <==

    Molecular point group: c1
    Full point group: C1

    Geometry (in Angstrom), charge = -1, multiplicity = 1:

       Center              X                  Y                   Z               Mass
    ------------   -----------------  -----------------  -----------------  -----------------
         C            1.214373245581    -2.282303549664    -3.430409271655    12.000000000000
         C            0.854373245581    -1.125303549664    -2.492409271655    12.000000000000
         O            1.204373245581    -1.208303549664    -1.294409271655    15.994914619570
         O            0.246373245581    -0.148303549664    -2.955409271655    15.994914619570
         H            0.459373245581    -3.065303549664    -3.340409271655     1.007825032230
         H            2.163373245581    -2.717303549664    -3.108409271655     1.007825032230
         H            1.318353245581    -1.983373549664    -4.483889271655     1.007825032230
         C           -1.642626754419     2.483696450336     2.965590728345    12.000000000000
         C           -0.004626754419    -0.544303549664     1.725590728345    12.000000000000
         C           -0.583626754419     1.395696450336     0.860590728345    12.000000000000
         C           -0.957626754419     1.406696450336     2.160590728345    12.000000000000
         N           -0.006626754419     0.168696450336     0.613590728345    14.003074004430
         N           -0.586626754419     0.170696450336     2.690590728345    14.003074004430
         H            0.386373245581    -0.154303549664    -0.271409271655     1.007825032230
         H            0.393373245581    -1.549303549664     1.824590728345     1.007825032230
         H           -0.716626754419     2.202696450336     0.153590728345     1.007825032230
         H           -2.543626754419     2.054696450336     3.404590728345     1.007825032230
         H           -1.925626754419     3.283696450336     2.288590728345     1.007825032230
         H           -0.983696754419     2.857356450336     3.763205728345     1.007825032230

  Running in c1 symmetry.

  Rotational constants: A =      0.13903  B =      0.01592  C =      0.01450 [cm^-1]
  Rotational constants: A =   4168.06287  B =    477.37421  C =    434.78187 [MHz]
  Nuclear repulsion =  485.518101557091427

  Charge       = -1
  Multiplicity = 1
  Electrons    = 76
  Nalpha       = 38
  Nbeta        = 38

  ==> Algorithm <==

  SCF Algorithm Type is PK.
  DIIS enabled.
  MOM disabled.
  Fractional occupation disabled.
  Guess Type is SAD.
  Energy threshold   = 1.00e-06
  Density threshold  = 1.00e-10
  Integral threshold = 0.00e+00

  ==> Primary Basis <==

  Basis Set: CC-PVDZ
    Blend: CC-PVDZ
    Number of shells: 87
    Number of basis function: 185
    Number of Cartesian functions: 195
    Spherical Harmonics?: true
    Max angular momentum: 2

  ==> Pre-Iterations <==

   -------------------------------------------------------
    Irrep   Nso     Nmo     Nalpha   Nbeta   Ndocc  Nsocc
   -------------------------------------------------------
     A        185     185       0       0       0       0
   -------------------------------------------------------
    Total     185     185      38      38      38       0
   -------------------------------------------------------

  ==> Integral Setup <==

  Using integral reordering PK algorithm.
  Sizing the integral batches needed.
  Building batch lookup table.
   Calculation information:
      Number of atoms:                  19
      Number of AO shells:              87
      Number of primitives:            265
      Number of atomic orbitals:       195
      Number of basis functions:       185

      Integral cutoff                 1.00e-12
      Number of threads:                 1

	Batch   1 pq = [       0,    9405] index = [             0,44231715] size =     44231715
	Batch   2 pq = [    9405,   13301] index = [      44231715,88464951] size =     44233236
	Batch   3 pq = [   13301,   16290] index = [      88464951,132690195] size =     44225244
	Batch   4 pq = [   16290,   17205] index = [     132690195,148014615] size =     15324420
  Task number: 14
  Buffer size: 11059200
  Buffer per thread: 2
  We computed 5081667 shell quartets total.
  Whereas there are 7328706 unique shell quartets.

  ==> DiskJK: Disk-Based J/K Matrices <==

    J tasked:                  Yes
    K tasked:                  Yes
    wK tasked:                  No
    Memory [MiB]:              375
    Schwarz Cutoff:          1E-12

    OpenMP threads:              1

  Minimum eigenvalue in the overlap matrix is 1.2028183615E-03.
  Using Symmetric Orthogonalization.

  SCF Guess: Superposition of Atomic Densities via on-the-fly atomic UHF.

  ==> Iterations <==

                        Total Energy        Delta E     RMS |[F,P]|

   @RHF iter SAD:  -489.78266746024599   -4.89783e+02   0.00000e+00
   @RHF iter   1:  -490.86283767985378   -1.08017e+00   4.07769e-03 DIIS
   @RHF iter   2:  -491.08535849957462   -2.22521e-01   2.25054e-03 DIIS
   @RHF iter   3:  -491.14994503787784   -6.45865e-02   3.82611e-04 DIIS
   @RHF iter   4:  -491.15313586916068   -3.19083e-03   1.49393e-04 DIIS
   @RHF iter   5:  -491.15360672386839   -4.70855e-04   3.23206e-05 DIIS
   @RHF iter   6:  -491.15363114829029   -2.44244e-05   1.39556e-05 DIIS
   @RHF iter   7:  -491.15363602331968   -4.87503e-06   3.57811e-06 DIIS
   @RHF iter   8:  -491.15363681328392   -7.89964e-07   1.85691e-06 DIIS
   @RHF iter   9:  -491.15363701883990   -2.05556e-07   7.44406e-07 DIIS
   @RHF iter  10:  -491.15363705585219   -3.70123e-08   2.02446e-07 DIIS
   @RHF iter  11:  -491.15363705835443   -2.50225e-09   6.17644e-08 DIIS
   @RHF iter  12:  -491.15363705849404   -1.39607e-10   3.43773e-08 DIIS
   @RHF iter  13:  -491.15363705852576   -3.17186e-11   1.11022e-08 DIIS
   @RHF iter  14:  -491.15363705853383   -8.07177e-12   4.55040e-09 DIIS
   @RHF iter  15:  -491.15363705853758   -3.75167e-12   1.50337e-09 DIIS
   @RHF iter  16:  -491.15363705853645    1.13687e-12   6.35568e-10 DIIS
   @RHF iter  17:  -491.15363705853338    3.06954e-12   2.26682e-10 DIIS
   @RHF iter  18:  -491.15363705853702   -3.63798e-12   5.95571e-11 DIIS
  Energy and wave function converged.

  ==> Post-Iterations <==

    Orbital Energies [Eh]
    ---------------------

    Doubly Occupied:

       1A    -20.305308     2A    -20.296536     3A    -15.444270
       4A    -15.388677     5A    -11.154492     6A    -11.146546
       7A    -11.120404     8A    -11.109270     9A    -11.106942
      10A    -11.076526    11A     -1.197784    12A     -1.186073
      13A     -1.082030    14A     -0.997882    15A     -0.901744
      16A     -0.821947    17A     -0.814360    18A     -0.662367
      19A     -0.616994    20A     -0.599162    21A     -0.534528
      22A     -0.476187    23A     -0.471752    24A     -0.453598
      25A     -0.444876    26A     -0.439376    27A     -0.438712
      28A     -0.425088    29A     -0.413086    30A     -0.401810
      31A     -0.374975    32A     -0.344119    33A     -0.274556
      34A     -0.228392    35A     -0.224746    36A     -0.211690
      37A     -0.205491    38A     -0.174525

    Virtual:

      39A      0.301168    40A      0.333292    41A      0.339357
      42A      0.340022    43A      0.346336    44A      0.352915
      45A      0.374766    46A      0.387078    47A      0.396709
      48A      0.409363    49A      0.453525    50A      0.481182
      51A      0.494843    52A      0.531616    53A      0.546071
      54A      0.581371    55A      0.614835    56A      0.633212
      57A      0.684786    58A      0.720657    59A      0.740885
      60A      0.749551    61A      0.759354    62A      0.794320
      63A      0.800855    64A      0.832319    65A      0.840548
      66A      0.853848    67A      0.879577    68A      0.899553
      69A      0.910150    70A      0.917075    71A      0.940711
      72A      0.950384    73A      0.957336    74A      0.990447
      75A      0.991795    76A      1.009628    77A      1.011242
      78A      1.015004    79A      1.029609    80A      1.037556
      81A      1.056346    82A      1.083151    83A      1.092386
      84A      1.109835    85A      1.126257    86A      1.191203
      87A      1.201667    88A      1.224659    89A      1.226813
      90A      1.247701    91A      1.274710    92A      1.279352
      93A      1.301590    94A      1.314020    95A      1.331058
      96A      1.388986    97A      1.404498    98A      1.425581
      99A      1.446803   100A      1.475106   101A      1.491840
     102A      1.509757   103A      1.546685   104A      1.550028
     105A      1.569675   106A      1.583542   107A      1.602202
     108A      1.616148   109A      1.640727   110A      1.652074
     111A      1.720670   112A      1.722321   113A      1.747050
     114A      1.780736   115A      1.789192   116A      1.808420
     117A      1.822997   118A      1.837985   119A      1.875568
     120A      1.939634   121A      1.947454   122A      1.960656
     123A      1.994655   124A      2.014420   125A      2.025278
     126A      2.046734   127A      2.050259   128A      2.058736
     129A      2.067089   130A      2.111091   131A      2.114816
     132A      2.125730   133A      2.148315   134A      2.166742
     135A      2.189364   136A      2.207311   137A      2.218406
     138A      2.245842   139A      2.281127   140A      2.303948
     141A      2.326899   142A      2.360608   143A      2.372217
     144A      2.386843   145A      2.424616   146A      2.457095
     147A      2.467404   148A      2.513672   149A      2.531555
     150A      2.593966   151A      2.606728   152A      2.612218
     153A      2.672412   154A      2.681939   155A      2.742852
     156A      2.744495   157A      2.764402   158A      2.813071
     159A      2.863368   160A      2.876644   161A      2.886884
     162A      2.895041   163A      2.937591   164A      2.940163
     165A      2.951271   166A      2.967458   167A      3.005849
     168A      3.018020   169A      3.037748   170A      3.087249
     171A      3.204526   172A      3.213632   173A      3.245823
     174A      3.298188   175A      3.336351   176A      3.372231
     177A      3.486825   178A      3.600871   179A      3.622633
     180A      3.763538   181A      3.795518   182A      4.009688
     183A      4.039597   184A      4.064405   185A      4.183106

    Final Occupation by Irrep:
              A
    DOCC [    38 ]

  @RHF Final Energy:  -491.15363705853702

   => Energetics <=

    Nuclear Repulsion Energy =            485.5181015570914269
    One-Electron Energy =               -1646.2098410051428345
    Two-Electron Energy =                 669.5381023895145063
    Total Energy =                       -491.1536370585370150

Computation Completed

Properties will be evaluated at   0.000000,   0.000000,   0.000000 [a0]

Properties computed using the SCF density matrix

  Nuclear Dipole Moment: [e a0]
     X:    -1.3494      Y:     0.8633      Z:     0.1860

  Electronic Dipole Moment: [e a0]
     X:     0.8862      Y:    -0.4055      Z:     1.0425

  Dipole Moment: [e a0]
     X:    -0.4633      Y:     0.4577      Z:     1.2285     Total:     1.3905

  Dipole Moment: [D]
     X:    -1.1775      Y:     1.1634      Z:     3.1226     Total:     3.5342

*** tstop() called on ds3 at Mon Apr 27 19:07:46 2020
Module time:
	user time   =      45.42 seconds =       0.76 minutes
	system time =      22.83 seconds =       0.38 minutes
	total time  =         89 seconds =       1.48 minutes
Total time:
	user time   =      45.42 seconds =       0.76 minutes
	system time =      22.83 seconds =       0.38 minutes
	total time  =         89 seconds =       1.48 minutes
                                     G D M A

                                 by Anthony Stone

                           version 2.2.06, 22 June 2011

               Distributed Multipoles from Gaussian wavefunctions

Starting at 19:7:46 on 27 Apr 2020

Using SCF density matrix from file ./SSI/SSI-024ASP-065HIE-1-dimer.test.3498.fchk

                         Distributed Multipole Analysis

Standard DMA

Positions and radii in angstrom
Multipole moments in atomic units, ea_0^k for rank k

C          x =  1.214373  y = -2.282304  z = -3.430409 angstrom
           Maximum rank =  0   Radius =  0.650 angstrom
                   Q00  =  -0.262919

C          x =  0.854373  y = -1.125304  z = -2.492409 angstrom
           Maximum rank =  0   Radius =  0.650 angstrom
                   Q00  =   0.896640

O          x =  1.204373  y = -1.208304  z = -1.294409 angstrom
           Maximum rank =  0   Radius =  0.650 angstrom
                   Q00  =  -0.934433

O          x =  0.246373  y = -0.148304  z = -2.955409 angstrom
           Maximum rank =  0   Radius =  0.650 angstrom
                   Q00  =  -0.882864

H          x =  0.459373  y = -3.065304  z = -3.340409 angstrom
           Maximum rank =  0   Radius =  0.325 angstrom
                   Q00  =   0.086778

H          x =  2.163373  y = -2.717304  z = -3.108409 angstrom
           Maximum rank =  0   Radius =  0.325 angstrom
                   Q00  =   0.064411

H          x =  1.318353  y = -1.983374  z = -4.483889 angstrom
           Maximum rank =  0   Radius =  0.325 angstrom
                   Q00  =   0.064353

C          x = -1.642627  y =  2.483696  z =  2.965591 angstrom
           Maximum rank =  0   Radius =  0.650 angstrom
                   Q00  =  -0.182509

C          x = -0.004627  y = -0.544304  z =  1.725591 angstrom
           Maximum rank =  0   Radius =  0.650 angstrom
                   Q00  =   0.488038

C          x = -0.583627  y =  1.395696  z =  0.860591 angstrom
           Maximum rank =  0   Radius =  0.650 angstrom
                   Q00  =   0.061363

C          x = -0.957627  y =  1.406696  z =  2.160591 angstrom
           Maximum rank =  0   Radius =  0.650 angstrom
                   Q00  =   0.163334

N          x = -0.006627  y =  0.168696  z =  0.613591 angstrom
           Maximum rank =  0   Radius =  0.650 angstrom
                   Q00  =  -0.520418

N          x = -0.586627  y =  0.170696  z =  2.690591 angstrom
           Maximum rank =  0   Radius =  0.650 angstrom
                   Q00  =  -0.814529

H          x =  0.386373  y = -0.154304  z = -0.271409 angstrom
           Maximum rank =  0   Radius =  0.325 angstrom
                   Q00  =   0.336415

H          x =  0.393373  y = -1.549304  z =  1.824591 angstrom
           Maximum rank =  0   Radius =  0.325 angstrom
                   Q00  =   0.110064

H          x = -0.716627  y =  2.202696  z =  0.153591 angstrom
           Maximum rank =  0   Radius =  0.325 angstrom
                   Q00  =   0.073273

H          x = -2.543627  y =  2.054696  z =  3.404591 angstrom
           Maximum rank =  0   Radius =  0.325 angstrom
                   Q00  =   0.087989

H          x = -1.925627  y =  3.283696  z =  2.288591 angstrom
           Maximum rank =  0   Radius =  0.325 angstrom
                   Q00  =   0.081888

H          x = -0.983697  y =  2.857356  z =  3.763206 angstrom
           Maximum rank =  0   Radius =  0.325 angstrom
                   Q00  =   0.083126

Total multipoles referred to origin at
           x =   0.000000,  y =    0.000000,  z =    0.000000 angstrom
                   Q00  =  -1.000000

Finished at 19:7:46 on 27 Apr 2020

  DMA results are available in the Python driver through the
	  variable('DMA DISTRIBUTED MULTIPOLES')
  and
	  variable('DMA TOTAL MULTIPOLES')
  commands.

    Psi4 stopped on: Monday, 27 April 2020 07:07PM
    Psi4 wall time for execution: 0:01:29.14

*** Psi4 exiting successfully. Buy a developer a beer!
