                               Psi4 1.3.2 release

  ==> Input File <==

--------------------------------------------------------------------------
import numpy as np
set {scf_type pk
basis cc-pvdz
d_convergence 10
gdma_switch   0
gdma_limit    0
gdma_origin   [ 0.0,  0.0,  0.0 ]
}
molecule test {
    units Angstrom
    0 1
    --
    0 1
    C               -1.035984963163270    -0.183703471250499    -1.002536439535421
    C               -0.291984963163271     1.100296528749501    -1.362536439535421
    C               -2.029984963163271    -0.331703471250499    -2.148536439535421
    H               -1.574984963163271    -0.047703471250499    -0.063536439535421
    H               -0.361984963163271    -1.038703471250499    -0.939536439535421
    H                0.078015036836729     1.592296528749501    -0.461536439535421
    H                0.531015036836729     0.876296528749501    -2.043536439535421
    H               -2.894984963163270    -0.915703471250499    -1.829536439535421
    H               -1.566984963163271    -0.843703471250499    -2.982536439535421
    H               -1.054211963163270     1.706889628749501    -1.873476439535421
    H               -2.312123963163271     0.697781528749501    -2.414166439535421
    C                1.191015036836729    -0.292703471250499     1.607463560464579
    C                2.107015036836729    -0.307703471250499     2.841463560464579
    H                1.791015036836729    -0.313703471250499     0.696463560464579
    H                0.532015036836729    -1.162703471250499     1.622463560464579
    H                0.575015036836729     0.606296528749501     1.610463560464579
    H                1.486015036836729    -0.287703471250499     3.739463560464579
    H                2.791975036836730     0.553004528749501     2.844463560464579
    H                2.693725036836729    -1.237878471250499     2.864703560464579

}
e, wfn = energy('scf', return_wfn=True)
gdma(wfn)
dmavals = variable('DMA DISTRIBUTED MULTIPOLES')
charges = np.array(dmavals)
print(charges)
np.save('SSI-034PRO-065ALA-1-dimer.npy', np.array(charges))--------------------------------------------------------------------------

*** tstart() called on ds3
*** at Mon Apr 27 20:14:10 2020

   => Loading Basis Set <=

    Name: CC-PVDZ
    Role: ORBITAL
    Keyword: BASIS
    atoms 1-3, 12-13  entry C          line   138 file /theoryfs2/ds/metcalf/miniconda2/envs/tf2gpu/share/psi4/basis/cc-pvdz.gbs
    atoms 4-11, 14-19 entry H          line    22 file /theoryfs2/ds/metcalf/miniconda2/envs/tf2gpu/share/psi4/basis/cc-pvdz.gbs

         ---------------------------------------------------------
                                   SCF
               by Justin Turney, Rob Parrish, Andy Simmonett
                          and Daniel G. A. Smith
                              RHF Reference
                        1 Threads,    500 MiB Core
         ---------------------------------------------------------

  ==> Geometry <==

    Molecular point group: c1
    Full point group: C1

    Geometry (in Angstrom), charge = 0, multiplicity = 1:

       Center              X                  Y                   Z               Mass
    ------------   -----------------  -----------------  -----------------  -----------------
         C           -1.035984963163    -0.183703471250    -1.002536439535    12.000000000000
         C           -0.291984963163     1.100296528750    -1.362536439535    12.000000000000
         C           -2.029984963163    -0.331703471250    -2.148536439535    12.000000000000
         H           -1.574984963163    -0.047703471250    -0.063536439535     1.007825032230
         H           -0.361984963163    -1.038703471250    -0.939536439535     1.007825032230
         H            0.078015036837     1.592296528750    -0.461536439535     1.007825032230
         H            0.531015036837     0.876296528750    -2.043536439535     1.007825032230
         H           -2.894984963163    -0.915703471250    -1.829536439535     1.007825032230
         H           -1.566984963163    -0.843703471250    -2.982536439535     1.007825032230
         H           -1.054211963163     1.706889628750    -1.873476439535     1.007825032230
         H           -2.312123963163     0.697781528750    -2.414166439535     1.007825032230
         C            1.191015036837    -0.292703471250     1.607463560465    12.000000000000
         C            2.107015036837    -0.307703471250     2.841463560465    12.000000000000
         H            1.791015036837    -0.313703471250     0.696463560465     1.007825032230
         H            0.532015036837    -1.162703471250     1.622463560465     1.007825032230
         H            0.575015036837     0.606296528750     1.610463560465     1.007825032230
         H            1.486015036837    -0.287703471250     3.739463560465     1.007825032230
         H            2.791975036837     0.553004528750     2.844463560465     1.007825032230
         H            2.693725036837    -1.237878471250     2.864703560465     1.007825032230

  Running in c1 symmetry.

  Rotational constants: A =      0.37194  B =      0.03742  C =      0.03514 [cm^-1]
  Rotational constants: A =  11150.43786  B =   1121.71257  C =   1053.42172 [MHz]
  Nuclear repulsion =  180.478463066500211

  Charge       = 0
  Multiplicity = 1
  Electrons    = 44
  Nalpha       = 22
  Nbeta        = 22

  ==> Algorithm <==

  SCF Algorithm Type is PK.
  DIIS enabled.
  MOM disabled.
  Fractional occupation disabled.
  Guess Type is SAD.
  Energy threshold   = 1.00e-06
  Density threshold  = 1.00e-10
  Integral threshold = 0.00e+00

  ==> Primary Basis <==

  Basis Set: CC-PVDZ
    Blend: CC-PVDZ
    Number of shells: 72
    Number of basis function: 140
    Number of Cartesian functions: 145
    Spherical Harmonics?: true
    Max angular momentum: 2

  ==> Pre-Iterations <==

   -------------------------------------------------------
    Irrep   Nso     Nmo     Nalpha   Nbeta   Ndocc  Nsocc
   -------------------------------------------------------
     A        140     140       0       0       0       0
   -------------------------------------------------------
    Total     140     140      22      22      22       0
   -------------------------------------------------------

  ==> Integral Setup <==

  Using integral reordering PK algorithm.
  Sizing the integral batches needed.
  Building batch lookup table.
   Calculation information:
      Number of atoms:                  19
      Number of AO shells:              72
      Number of primitives:            180
      Number of atomic orbitals:       145
      Number of basis functions:       140

      Integral cutoff                 1.00e-12
      Number of threads:                 1

	Batch   1 pq = [       0,    9405] index = [             0,44231715] size =     44231715
	Batch   2 pq = [    9405,    9870] index = [      44231715,48713385] size =      4481670
  Task number: 5
  Buffer size: 11059200
  Buffer per thread: 2
  We computed 2833513 shell quartets total.
  Whereas there are 3454506 unique shell quartets.

  ==> DiskJK: Disk-Based J/K Matrices <==

    J tasked:                  Yes
    K tasked:                  Yes
    wK tasked:                  No
    Memory [MiB]:              375
    Schwarz Cutoff:          1E-12

    OpenMP threads:              1

  Minimum eigenvalue in the overlap matrix is 4.5574997691E-03.
  Using Symmetric Orthogonalization.

  SCF Guess: Superposition of Atomic Densities via on-the-fly atomic UHF.

  ==> Iterations <==

                        Total Energy        Delta E     RMS |[F,P]|

   @RHF iter SAD:  -196.48191427366086   -1.96482e+02   0.00000e+00
   @RHF iter   1:  -197.29242519405270   -8.10511e-01   3.83492e-03 DIIS
   @RHF iter   2:  -197.45386874674131   -1.61444e-01   1.66055e-03 DIIS
   @RHF iter   3:  -197.48288848759370   -2.90197e-02   3.28978e-04 DIIS
   @RHF iter   4:  -197.48510461226559   -2.21612e-03   4.93525e-05 DIIS
   @RHF iter   5:  -197.48514457165618   -3.99594e-05   1.51366e-05 DIIS
   @RHF iter   6:  -197.48514807275703   -3.50110e-06   2.65254e-06 DIIS
   @RHF iter   7:  -197.48514819805953   -1.25303e-07   4.69632e-07 DIIS
   @RHF iter   8:  -197.48514820273084   -4.67131e-09   1.00873e-07 DIIS
   @RHF iter   9:  -197.48514820294918   -2.18336e-10   3.36838e-08 DIIS
   @RHF iter  10:  -197.48514820297345   -2.42721e-11   7.97191e-09 DIIS
   @RHF iter  11:  -197.48514820297501   -1.56319e-12   1.49709e-09 DIIS
   @RHF iter  12:  -197.48514820297487    1.42109e-13   3.01438e-10 DIIS
   @RHF iter  13:  -197.48514820297498   -1.13687e-13   8.04099e-11 DIIS
  Energy and wave function converged.

  ==> Post-Iterations <==

    Orbital Energies [Eh]
    ---------------------

    Doubly Occupied:

       1A    -11.219837     2A    -11.217570     3A    -11.214909
       4A    -11.211585     5A    -11.211258     6A     -1.062916
       7A     -1.015698     8A     -0.912441     9A     -0.837837
      10A     -0.797609    11A     -0.636107    12A     -0.610688
      13A     -0.597366    14A     -0.594267    15A     -0.540164
      16A     -0.513873    17A     -0.498904    18A     -0.487900
      19A     -0.485864    20A     -0.479853    21A     -0.469006
      22A     -0.453336

    Virtual:

      23A      0.175461    24A      0.195809    25A      0.217959
      26A      0.223811    27A      0.228842    28A      0.248363
      29A      0.261976    30A      0.274465    31A      0.277428
      32A      0.286634    33A      0.293149    34A      0.314536
      35A      0.324488    36A      0.345008    37A      0.371272
      38A      0.398927    39A      0.443887    40A      0.561005
      41A      0.570235    42A      0.594774    43A      0.600272
      44A      0.614304    45A      0.636318    46A      0.654116
      47A      0.694358    48A      0.724862    49A      0.744844
      50A      0.800972    51A      0.815370    52A      0.841559
      53A      0.857360    54A      0.883148    55A      0.891398
      56A      0.893933    57A      0.894767    58A      0.898869
      59A      0.905441    60A      0.915047    61A      0.917810
      62A      0.927718    63A      0.932092    64A      0.945909
      65A      0.952687    66A      0.974855    67A      0.978709
      68A      1.056170    69A      1.087246    70A      1.118092
      71A      1.131170    72A      1.155431    73A      1.181004
      74A      1.295740    75A      1.421702    76A      1.457085
      77A      1.465952    78A      1.472481    79A      1.495069
      80A      1.584682    81A      1.620145    82A      1.623477
      83A      1.636076    84A      1.681949    85A      1.693629
      86A      1.728756    87A      1.746154    88A      1.797609
      89A      1.859597    90A      1.872814    91A      1.880195
      92A      1.885468    93A      1.914509    94A      1.922180
      95A      1.933591    96A      1.935208    97A      1.941684
      98A      1.946984    99A      1.953465   100A      1.958375
     101A      1.969509   102A      2.005601   103A      2.008376
     104A      2.020388   105A      2.040239   106A      2.089180
     107A      2.106802   108A      2.110863   109A      2.128829
     110A      2.149428   111A      2.196805   112A      2.243519
     113A      2.301555   114A      2.316453   115A      2.348014
     116A      2.401522   117A      2.442291   118A      2.461107
     119A      2.463240   120A      2.470149   121A      2.500437
     122A      2.552842   123A      2.557694   124A      2.567299
     125A      2.639930   126A      2.695748   127A      2.756726
     128A      2.765596   129A      2.790814   130A      2.794978
     131A      2.805473   132A      2.827143   133A      2.849998
     134A      2.856363   135A      2.879495   136A      2.930090
     137A      2.944319   138A      2.950368   139A      2.960480
     140A      3.047827

    Final Occupation by Irrep:
              A
    DOCC [    22 ]

  @RHF Final Energy:  -197.48514820297498

   => Energetics <=

    Nuclear Repulsion Energy =            180.4784630665002112
    One-Electron Energy =                -621.7892484967228484
    Two-Electron Energy =                 243.8256372272476256
    Total Energy =                       -197.4851482029749832

Computation Completed

Properties will be evaluated at   0.000000,   0.000000,   0.000000 [a0]

Properties computed using the SCF density matrix

  Nuclear Dipole Moment: [e a0]
     X:     0.6689      Y:     0.1732      Z:     0.7220

  Electronic Dipole Moment: [e a0]
     X:    -0.6605      Y:    -0.2140      Z:    -0.6903

  Dipole Moment: [e a0]
     X:     0.0084      Y:    -0.0408      Z:     0.0317     Total:     0.0524

  Dipole Moment: [D]
     X:     0.0214      Y:    -0.1038      Z:     0.0807     Total:     0.1332

*** tstop() called on ds3 at Mon Apr 27 20:14:29 2020
Module time:
	user time   =      13.87 seconds =       0.23 minutes
	system time =       5.69 seconds =       0.09 minutes
	total time  =         19 seconds =       0.32 minutes
Total time:
	user time   =      13.87 seconds =       0.23 minutes
	system time =       5.69 seconds =       0.09 minutes
	total time  =         19 seconds =       0.32 minutes
                                     G D M A

                                 by Anthony Stone

                           version 2.2.06, 22 June 2011

               Distributed Multipoles from Gaussian wavefunctions

Starting at 20:14:29 on 27 Apr 2020

Using SCF density matrix from file ./SSI/SSI-034PRO-065ALA-1-dimer.test.13934.fchk

                         Distributed Multipole Analysis

Standard DMA

Positions and radii in angstrom
Multipole moments in atomic units, ea_0^k for rank k

C          x = -1.035985  y = -0.183703  z = -1.002536 angstrom
           Maximum rank =  0   Radius =  0.650 angstrom
                   Q00  =  -0.101823

C          x = -0.291985  y =  1.100297  z = -1.362536 angstrom
           Maximum rank =  0   Radius =  0.650 angstrom
                   Q00  =  -0.227060

C          x = -2.029985  y = -0.331703  z = -2.148536 angstrom
           Maximum rank =  0   Radius =  0.650 angstrom
                   Q00  =  -0.212869

H          x = -1.574985  y = -0.047703  z = -0.063536 angstrom
           Maximum rank =  0   Radius =  0.325 angstrom
                   Q00  =   0.050098

H          x = -0.361985  y = -1.038703  z = -0.939536 angstrom
           Maximum rank =  0   Radius =  0.325 angstrom
                   Q00  =   0.057466

H          x =  0.078015  y =  1.592297  z = -0.461536 angstrom
           Maximum rank =  0   Radius =  0.325 angstrom
                   Q00  =   0.081348

H          x =  0.531015  y =  0.876297  z = -2.043536 angstrom
           Maximum rank =  0   Radius =  0.325 angstrom
                   Q00  =   0.079022

H          x = -2.894985  y = -0.915703  z = -1.829536 angstrom
           Maximum rank =  0   Radius =  0.325 angstrom
                   Q00  =   0.078532

H          x = -1.566985  y = -0.843703  z = -2.982536 angstrom
           Maximum rank =  0   Radius =  0.325 angstrom
                   Q00  =   0.080359

H          x = -1.054212  y =  1.706890  z = -1.873476 angstrom
           Maximum rank =  0   Radius =  0.325 angstrom
                   Q00  =   0.060249

H          x = -2.312124  y =  0.697782  z = -2.414166 angstrom
           Maximum rank =  0   Radius =  0.325 angstrom
                   Q00  =   0.054236

C          x =  1.191015  y = -0.292703  z =  1.607464 angstrom
           Maximum rank =  0   Radius =  0.650 angstrom
                   Q00  =  -0.244413

C          x =  2.107015  y = -0.307703  z =  2.841464 angstrom
           Maximum rank =  0   Radius =  0.650 angstrom
                   Q00  =  -0.233697

H          x =  1.791015  y = -0.313703  z =  0.696464 angstrom
           Maximum rank =  0   Radius =  0.325 angstrom
                   Q00  =   0.079364

H          x =  0.532015  y = -1.162703  z =  1.622464 angstrom
           Maximum rank =  0   Radius =  0.325 angstrom
                   Q00  =   0.080628

H          x =  0.575015  y =  0.606297  z =  1.610464 angstrom
           Maximum rank =  0   Radius =  0.325 angstrom
                   Q00  =   0.078198

H          x =  1.486015  y = -0.287703  z =  3.739464 angstrom
           Maximum rank =  0   Radius =  0.325 angstrom
                   Q00  =   0.079534

H          x =  2.791975  y =  0.553005  z =  2.844464 angstrom
           Maximum rank =  0   Radius =  0.325 angstrom
                   Q00  =   0.081892

H          x =  2.693725  y = -1.237878  z =  2.864704 angstrom
           Maximum rank =  0   Radius =  0.325 angstrom
                   Q00  =   0.078937

Total multipoles referred to origin at
           x =   0.000000,  y =    0.000000,  z =    0.000000 angstrom
                   Q00  =  -0.000000

Finished at 20:14:29 on 27 Apr 2020

  DMA results are available in the Python driver through the
	  variable('DMA DISTRIBUTED MULTIPOLES')
  and
	  variable('DMA TOTAL MULTIPOLES')
  commands.

    Psi4 stopped on: Monday, 27 April 2020 08:14PM
    Psi4 wall time for execution: 0:00:19.39

*** Psi4 exiting successfully. Buy a developer a beer!
