                               Psi4 1.3.2 release

  ==> Input File <==

--------------------------------------------------------------------------
import numpy as np
set {scf_type pk
basis cc-pvdz
d_convergence 10
gdma_switch   0
gdma_limit    0
gdma_origin   [ 0.0,  0.0,  0.0 ]
}
molecule test {
    units Angstrom
    0 1
    --
    0 1
    C                1.618916012671528    -0.096570985651732     2.557873077821822
    N                1.850916012671528    -0.251570985651732     1.115873077821822
    H                1.085916012671528     0.186429014348268     0.590873077821821
    H                2.714916012671528     0.192429014348268     0.831873077821822
    H                1.888916012671528    -1.223570985651732     0.840873077821822
    H                1.620916012671528     0.969429014348268     2.807873077821821
    H                2.423916012671528    -0.571570985651732     3.128873077821821
    H                0.654186012671528    -0.518320985651732     2.876343077821821
    C               -1.930083987328472     0.503429014348268    -1.932126922178178
    C               -0.908083987328472     0.078429014348268    -0.902126922178179
    O               -0.631083987328472    -1.136570985651732    -0.834126922178179
    O               -0.319083987328472     0.940429014348268    -0.216126922178179
    H               -2.384083987328472    -0.371570985651732    -2.403126922178179
    H               -1.388083987328472     1.045429014348268    -2.708126922178179
    H               -2.736593987328472     1.121419014348268    -1.510676922178179

}
e, wfn = energy('scf', return_wfn=True)
gdma(wfn)
dmavals = variable('DMA DISTRIBUTED MULTIPOLES')
charges = np.array(dmavals)
print(charges)
np.save('SSI-020LYS-040GLU-1-dimer.npy', np.array(charges))--------------------------------------------------------------------------

*** tstart() called on ds3
*** at Sun Apr 26 18:09:54 2020

   => Loading Basis Set <=

    Name: CC-PVDZ
    Role: ORBITAL
    Keyword: BASIS
    atoms 1, 9-10    entry C          line   138 file /theoryfs2/ds/metcalf/miniconda2/envs/tf2gpu/share/psi4/basis/cc-pvdz.gbs
    atoms 2          entry N          line   168 file /theoryfs2/ds/metcalf/miniconda2/envs/tf2gpu/share/psi4/basis/cc-pvdz.gbs
    atoms 3-8, 13-15 entry H          line    22 file /theoryfs2/ds/metcalf/miniconda2/envs/tf2gpu/share/psi4/basis/cc-pvdz.gbs
    atoms 11-12      entry O          line   198 file /theoryfs2/ds/metcalf/miniconda2/envs/tf2gpu/share/psi4/basis/cc-pvdz.gbs

         ---------------------------------------------------------
                                   SCF
               by Justin Turney, Rob Parrish, Andy Simmonett
                          and Daniel G. A. Smith
                              RHF Reference
                        1 Threads,    500 MiB Core
         ---------------------------------------------------------

  ==> Geometry <==

    Molecular point group: c1
    Full point group: C1

    Geometry (in Angstrom), charge = 0, multiplicity = 1:

       Center              X                  Y                   Z               Mass
    ------------   -----------------  -----------------  -----------------  -----------------
         C            1.618916012672    -0.096570985652     2.557873077822    12.000000000000
         N            1.850916012672    -0.251570985652     1.115873077822    14.003074004430
         H            1.085916012672     0.186429014348     0.590873077822     1.007825032230
         H            2.714916012672     0.192429014348     0.831873077822     1.007825032230
         H            1.888916012672    -1.223570985652     0.840873077822     1.007825032230
         H            1.620916012672     0.969429014348     2.807873077822     1.007825032230
         H            2.423916012672    -0.571570985652     3.128873077822     1.007825032230
         H            0.654186012672    -0.518320985652     2.876343077822     1.007825032230
         C           -1.930083987328     0.503429014348    -1.932126922178    12.000000000000
         C           -0.908083987328     0.078429014348    -0.902126922178    12.000000000000
         O           -0.631083987328    -1.136570985652    -0.834126922178    15.994914619570
         O           -0.319083987328     0.940429014348    -0.216126922178    15.994914619570
         H           -2.384083987328    -0.371570985652    -2.403126922178     1.007825032230
         H           -1.388083987328     1.045429014348    -2.708126922178     1.007825032230
         H           -2.736593987328     1.121419014348    -1.510676922178     1.007825032230

  Running in c1 symmetry.

  Rotational constants: A =      0.28333  B =      0.04384  C =      0.04076 [cm^-1]
  Rotational constants: A =   8494.00961  B =   1314.18653  C =   1221.93891 [MHz]
  Nuclear repulsion =  241.875264746091716

  Charge       = 0
  Multiplicity = 1
  Electrons    = 50
  Nalpha       = 25
  Nbeta        = 25

  ==> Algorithm <==

  SCF Algorithm Type is PK.
  DIIS enabled.
  MOM disabled.
  Fractional occupation disabled.
  Guess Type is SAD.
  Energy threshold   = 1.00e-06
  Density threshold  = 1.00e-10
  Integral threshold = 0.00e+00

  ==> Primary Basis <==

  Basis Set: CC-PVDZ
    Blend: CC-PVDZ
    Number of shells: 63
    Number of basis function: 129
    Number of Cartesian functions: 135
    Spherical Harmonics?: true
    Max angular momentum: 2

  ==> Pre-Iterations <==

   -------------------------------------------------------
    Irrep   Nso     Nmo     Nalpha   Nbeta   Ndocc  Nsocc
   -------------------------------------------------------
     A        129     129       0       0       0       0
   -------------------------------------------------------
    Total     129     129      25      25      25       0
   -------------------------------------------------------

  ==> Integral Setup <==

  Using integral reordering PK algorithm.
  Sizing the integral batches needed.
  Building batch lookup table.
   Calculation information:
      Number of atoms:                  15
      Number of AO shells:              63
      Number of primitives:            177
      Number of atomic orbitals:       135
      Number of basis functions:       129

      Integral cutoff                 1.00e-12
      Number of threads:                 1

	Batch   1 pq = [       0,    8385] index = [             0,35158305] size =     35158305
  Task number: 4
  Buffer size: 11059200
  Buffer per thread: 2
  We computed 1706321 shell quartets total.
  Whereas there are 2033136 unique shell quartets.

  ==> DiskJK: Disk-Based J/K Matrices <==

    J tasked:                  Yes
    K tasked:                  Yes
    wK tasked:                  No
    Memory [MiB]:              375
    Schwarz Cutoff:          1E-12

    OpenMP threads:              1

  Minimum eigenvalue in the overlap matrix is 4.8915421326E-03.
  Using Symmetric Orthogonalization.

  SCF Guess: Superposition of Atomic Densities via on-the-fly atomic UHF.

  ==> Iterations <==

                        Total Energy        Delta E     RMS |[F,P]|

   @RHF iter SAD:  -321.80695562198105   -3.21807e+02   0.00000e+00
   @RHF iter   1:  -322.80455176085115   -9.97596e-01   5.17877e-03 DIIS
   @RHF iter   2:  -322.97237104237320   -1.67819e-01   2.83546e-03 DIIS
   @RHF iter   3:  -323.01965870697143   -4.72877e-02   4.70691e-04 DIIS
   @RHF iter   4:  -323.02210738794832   -2.44868e-03   1.58492e-04 DIIS
   @RHF iter   5:  -323.02238305114429   -2.75663e-04   3.24679e-05 DIIS
   @RHF iter   6:  -323.02239606425530   -1.30131e-05   1.66664e-05 DIIS
   @RHF iter   7:  -323.02239843751204   -2.37326e-06   3.34475e-06 DIIS
   @RHF iter   8:  -323.02239875934151   -3.21829e-07   1.53906e-06 DIIS
   @RHF iter   9:  -323.02239882725564   -6.79141e-08   4.67650e-07 DIIS
   @RHF iter  10:  -323.02239883333624   -6.08060e-09   1.50265e-07 DIIS
   @RHF iter  11:  -323.02239883371635   -3.80112e-10   3.63708e-08 DIIS
   @RHF iter  12:  -323.02239883373983   -2.34763e-11   8.92341e-09 DIIS
   @RHF iter  13:  -323.02239883374313   -3.29692e-12   2.68160e-09 DIIS
   @RHF iter  14:  -323.02239883374216    9.66338e-13   1.03284e-09 DIIS
   @RHF iter  15:  -323.02239883374375   -1.59162e-12   3.07342e-10 DIIS
   @RHF iter  16:  -323.02239883374386   -1.13687e-13   1.39259e-10 DIIS
   @RHF iter  17:  -323.02239883374352    3.41061e-13   5.03114e-11 DIIS
  Energy and wave function converged.

  ==> Post-Iterations <==

    Orbital Energies [Eh]
    ---------------------

    Doubly Occupied:

       1A    -20.435958     2A    -20.417554     3A    -15.715584
       4A    -11.337324     5A    -11.271593     6A    -11.173265
       7A     -1.347436     8A     -1.319126     9A     -1.202196
      10A     -1.007255    11A     -0.926604    12A     -0.805827
      13A     -0.796229    14A     -0.702308    15A     -0.651091
      16A     -0.610411    17A     -0.609349    18A     -0.563449
      19A     -0.549357    20A     -0.547018    21A     -0.480987
      22A     -0.458616    23A     -0.352735    24A     -0.332121
      25A     -0.330642

    Virtual:

      26A      0.112007    27A      0.165758    28A      0.181344
      29A      0.207785    30A      0.226171    31A      0.246098
      32A      0.275553    33A      0.292935    34A      0.312023
      35A      0.343588    36A      0.379179    37A      0.452810
      38A      0.517548    39A      0.535337    40A      0.553576
      41A      0.584167    42A      0.601571    43A      0.670118
      44A      0.694428    45A      0.712346    46A      0.747894
      47A      0.789852    48A      0.803130    49A      0.810526
      50A      0.821835    51A      0.848534    52A      0.857984
      53A      0.890639    54A      0.908005    55A      0.919554
      56A      0.945117    57A      0.953559    58A      0.974939
      59A      0.998877    60A      1.009518    61A      1.074270
      62A      1.086799    63A      1.137642    64A      1.194641
      65A      1.209060    66A      1.219011    67A      1.324553
      68A      1.361680    69A      1.410057    70A      1.429933
      71A      1.450080    72A      1.465223    73A      1.496267
      74A      1.544876    75A      1.580013    76A      1.597085
      77A      1.609698    78A      1.687010    79A      1.715610
      80A      1.724956    81A      1.786106    82A      1.831472
      83A      1.844372    84A      1.877111    85A      1.888336
      86A      1.904092    87A      1.929257    88A      1.959536
      89A      1.977530    90A      1.984815    91A      2.085274
      92A      2.097137    93A      2.106823    94A      2.120396
      95A      2.128231    96A      2.148643    97A      2.152369
      98A      2.218496    99A      2.288143   100A      2.298083
     101A      2.336642   102A      2.392180   103A      2.421276
     104A      2.461142   105A      2.528210   106A      2.574479
     107A      2.612820   108A      2.627803   109A      2.651771
     110A      2.661202   111A      2.682190   112A      2.799001
     113A      2.833917   114A      2.872346   115A      2.894766
     116A      2.915526   117A      2.931583   118A      3.080135
     119A      3.126682   120A      3.141175   121A      3.183970
     122A      3.273849   123A      3.404389   124A      3.480214
     125A      3.632327   126A      3.677225   127A      3.912118
     128A      3.921718   129A      4.066068

    Final Occupation by Irrep:
              A
    DOCC [    25 ]

  @RHF Final Energy:  -323.02239883374352

   => Energetics <=

    Nuclear Repulsion Energy =            241.8752647460917160
    One-Electron Energy =                -921.9072602179923024
    Two-Electron Energy =                 357.0095966381570634
    Total Energy =                       -323.0223988337435230

Computation Completed

Properties will be evaluated at   0.000000,   0.000000,   0.000000 [a0]

Properties computed using the SCF density matrix

  Nuclear Dipole Moment: [e a0]
     X:     3.6274      Y:     0.7780      Z:     4.1679

  Electronic Dipole Moment: [e a0]
     X:    -0.4996      Y:    -0.8249      Z:    -1.7470

  Dipole Moment: [e a0]
     X:     3.1278      Y:    -0.0469      Z:     2.4210     Total:     3.9556

  Dipole Moment: [D]
     X:     7.9501      Y:    -0.1193      Z:     6.1535     Total:    10.0540

*** tstop() called on ds3 at Sun Apr 26 18:10:19 2020
Module time:
	user time   =      12.50 seconds =       0.21 minutes
	system time =       4.76 seconds =       0.08 minutes
	total time  =         25 seconds =       0.42 minutes
Total time:
	user time   =      12.50 seconds =       0.21 minutes
	system time =       4.76 seconds =       0.08 minutes
	total time  =         25 seconds =       0.42 minutes
                                     G D M A

                                 by Anthony Stone

                           version 2.2.06, 22 June 2011

               Distributed Multipoles from Gaussian wavefunctions

Starting at 18:10:19 on 26 Apr 2020

Using SCF density matrix from file ./SSI/SSI-020LYS-040GLU-1-dimer.test.3794.fchk

                         Distributed Multipole Analysis

Standard DMA

Positions and radii in angstrom
Multipole moments in atomic units, ea_0^k for rank k

C          x =  1.618916  y = -0.096571  z =  2.557873 angstrom
           Maximum rank =  0   Radius =  0.650 angstrom
                   Q00  =  -0.137863

N          x =  1.850916  y = -0.251571  z =  1.115873 angstrom
           Maximum rank =  0   Radius =  0.650 angstrom
                   Q00  =  -0.098780

H          x =  1.085916  y =  0.186429  z =  0.590873 angstrom
           Maximum rank =  0   Radius =  0.325 angstrom
                   Q00  =   0.333064

H          x =  2.714916  y =  0.192429  z =  0.831873 angstrom
           Maximum rank =  0   Radius =  0.325 angstrom
                   Q00  =   0.212832

H          x =  1.888916  y = -1.223571  z =  0.840873 angstrom
           Maximum rank =  0   Radius =  0.325 angstrom
                   Q00  =   0.239904

H          x =  1.620916  y =  0.969429  z =  2.807873 angstrom
           Maximum rank =  0   Radius =  0.325 angstrom
                   Q00  =   0.141227

H          x =  2.423916  y = -0.571571  z =  3.128873 angstrom
           Maximum rank =  0   Radius =  0.325 angstrom
                   Q00  =   0.115264

H          x =  0.654186  y = -0.518321  z =  2.876343 angstrom
           Maximum rank =  0   Radius =  0.325 angstrom
                   Q00  =   0.159606

C          x = -1.930084  y =  0.503429  z = -1.932127 angstrom
           Maximum rank =  0   Radius =  0.650 angstrom
                   Q00  =  -0.252345

C          x = -0.908084  y =  0.078429  z = -0.902127 angstrom
           Maximum rank =  0   Radius =  0.650 angstrom
                   Q00  =   0.877261

O          x = -0.631084  y = -1.136571  z = -0.834127 angstrom
           Maximum rank =  0   Radius =  0.650 angstrom
                   Q00  =  -0.903587

O          x = -0.319084  y =  0.940429  z = -0.216127 angstrom
           Maximum rank =  0   Radius =  0.650 angstrom
                   Q00  =  -0.956196

H          x = -2.384084  y = -0.371571  z = -2.403127 angstrom
           Maximum rank =  0   Radius =  0.325 angstrom
                   Q00  =   0.083491

H          x = -1.388084  y =  1.045429  z = -2.708127 angstrom
           Maximum rank =  0   Radius =  0.325 angstrom
                   Q00  =   0.095449

H          x = -2.736594  y =  1.121419  z = -1.510677 angstrom
           Maximum rank =  0   Radius =  0.325 angstrom
                   Q00  =   0.090674

Total multipoles referred to origin at
           x =   0.000000,  y =    0.000000,  z =    0.000000 angstrom
                   Q00  =  -0.000000

Finished at 18:10:19 on 26 Apr 2020

  DMA results are available in the Python driver through the
	  variable('DMA DISTRIBUTED MULTIPOLES')
  and
	  variable('DMA TOTAL MULTIPOLES')
  commands.

    Psi4 stopped on: Sunday, 26 April 2020 06:10PM
    Psi4 wall time for execution: 0:00:24.85

*** Psi4 exiting successfully. Buy a developer a beer!
