                               Psi4 1.3.2 release

  ==> Input File <==

--------------------------------------------------------------------------
import numpy as np
set {scf_type pk
basis cc-pvdz
d_convergence 10
gdma_switch   0
gdma_limit    0
gdma_origin   [ 0.0,  0.0,  0.0 ]
}
molecule test {
    units Angstrom
    0 1
    --
    0 1
    C               -2.538997354251171     1.647453702726202     1.282292674340176
    C               -2.795997354251171     2.683453702726202     2.379292674340176
    C               -3.625997354251172     0.572453702726202     1.358292674340176
    C               -2.525997354251171     2.286453702726202    -0.093707325659824
    H               -1.575997354251171     1.172453702726202     1.460292674340176
    H               -3.010997354251171     2.167453702726202     3.315292674340176
    H               -3.685997354251171     3.239453702726202     2.097292674340176
    H               -4.602997354251172     1.019453702726202     1.184292674340176
    H               -3.446997354251172    -0.182546297273798     0.595292674340176
    H               -3.610997354251171     0.097453702726202     2.337292674340176
    H               -1.702997354251171     2.991453702726202    -0.166707325659824
    H               -2.394997354251171     1.519453702726202    -0.855707325659824
    H               -3.467997354251172     2.803453702726202    -0.273707325659824
    H               -1.984640354251171     3.405463702726202     2.553672674340176
    C                4.105002645748828    -1.900546297273798    -1.261707325659824
    C                0.084002645748828    -0.569546297273798    -0.398707325659824
    C                1.175002645748829     0.006453702726202     0.265292674340176
    C                0.306002645748828    -1.571546297273798    -1.350707325659824
    C                2.475002645748828    -0.416546297273798    -0.023707325659824
    C                1.605002645748828    -1.988546297273798    -1.629707325659824
    C                2.701002645748829    -1.407546297273798    -0.983707325659824
    H               -0.923997354251172    -0.254546297273798    -0.178707325659824
    H                1.004002645748828     0.779453702726202     1.000292674340176
    H               -0.520997354251172    -2.030546297273798    -1.865707325659824
    H                3.309002645748829     0.030453702726202     0.498292674340176
    H                1.761002645748829    -2.772546297273798    -2.352707325659824
    H                4.060002645748829    -2.987546297273798    -1.318707325659824
    H                4.747002645748828    -1.656546297273798    -0.413707325659824
    H                4.570068645748828    -1.506919297273798    -2.177547325659824

}
e, wfn = energy('scf', return_wfn=True)
gdma(wfn)
dmavals = variable('DMA DISTRIBUTED MULTIPOLES')
charges = np.array(dmavals)
print(charges)
np.save('SSI-052LEU-141PHE-1-dimer.npy', np.array(charges))--------------------------------------------------------------------------

*** tstart() called on ds3
*** at Tue Apr 28 00:51:05 2020

   => Loading Basis Set <=

    Name: CC-PVDZ
    Role: ORBITAL
    Keyword: BASIS
    atoms 1-4, 15-21  entry C          line   138 file /theoryfs2/ds/metcalf/miniconda2/envs/tf2gpu/share/psi4/basis/cc-pvdz.gbs
    atoms 5-14, 22-29 entry H          line    22 file /theoryfs2/ds/metcalf/miniconda2/envs/tf2gpu/share/psi4/basis/cc-pvdz.gbs

         ---------------------------------------------------------
                                   SCF
               by Justin Turney, Rob Parrish, Andy Simmonett
                          and Daniel G. A. Smith
                              RHF Reference
                        1 Threads,    500 MiB Core
         ---------------------------------------------------------

  ==> Geometry <==

    Molecular point group: c1
    Full point group: C1

    Geometry (in Angstrom), charge = 0, multiplicity = 1:

       Center              X                  Y                   Z               Mass
    ------------   -----------------  -----------------  -----------------  -----------------
         C           -2.538997354251     1.647453702726     1.282292674340    12.000000000000
         C           -2.795997354251     2.683453702726     2.379292674340    12.000000000000
         C           -3.625997354251     0.572453702726     1.358292674340    12.000000000000
         C           -2.525997354251     2.286453702726    -0.093707325660    12.000000000000
         H           -1.575997354251     1.172453702726     1.460292674340     1.007825032230
         H           -3.010997354251     2.167453702726     3.315292674340     1.007825032230
         H           -3.685997354251     3.239453702726     2.097292674340     1.007825032230
         H           -4.602997354251     1.019453702726     1.184292674340     1.007825032230
         H           -3.446997354251    -0.182546297274     0.595292674340     1.007825032230
         H           -3.610997354251     0.097453702726     2.337292674340     1.007825032230
         H           -1.702997354251     2.991453702726    -0.166707325660     1.007825032230
         H           -2.394997354251     1.519453702726    -0.855707325660     1.007825032230
         H           -3.467997354251     2.803453702726    -0.273707325660     1.007825032230
         H           -1.984640354251     3.405463702726     2.553672674340     1.007825032230
         C            4.105002645749    -1.900546297274    -1.261707325660    12.000000000000
         C            0.084002645749    -0.569546297274    -0.398707325660    12.000000000000
         C            1.175002645749     0.006453702726     0.265292674340    12.000000000000
         C            0.306002645749    -1.571546297274    -1.350707325660    12.000000000000
         C            2.475002645749    -0.416546297274    -0.023707325660    12.000000000000
         C            1.605002645749    -1.988546297274    -1.629707325660    12.000000000000
         C            2.701002645749    -1.407546297274    -0.983707325660    12.000000000000
         H           -0.923997354251    -0.254546297274    -0.178707325660     1.007825032230
         H            1.004002645749     0.779453702726     1.000292674340     1.007825032230
         H           -0.520997354251    -2.030546297274    -1.865707325660     1.007825032230
         H            3.309002645749     0.030453702726     0.498292674340     1.007825032230
         H            1.761002645749    -2.772546297274    -2.352707325660     1.007825032230
         H            4.060002645749    -2.987546297274    -1.318707325660     1.007825032230
         H            4.747002645749    -1.656546297274    -0.413707325660     1.007825032230
         H            4.570068645749    -1.506919297274    -2.177547325660     1.007825032230

  Running in c1 symmetry.

  Rotational constants: A =      0.08543  B =      0.01122  C =      0.01056 [cm^-1]
  Rotational constants: A =   2560.98989  B =    336.27777  C =    316.48499 [MHz]
  Nuclear repulsion =  559.838507305564008

  Charge       = 0
  Multiplicity = 1
  Electrons    = 84
  Nalpha       = 42
  Nbeta        = 42

  ==> Algorithm <==

  SCF Algorithm Type is PK.
  DIIS enabled.
  MOM disabled.
  Fractional occupation disabled.
  Guess Type is SAD.
  Energy threshold   = 1.00e-06
  Density threshold  = 1.00e-10
  Integral threshold = 0.00e+00

  ==> Primary Basis <==

  Basis Set: CC-PVDZ
    Blend: CC-PVDZ
    Number of shells: 120
    Number of basis function: 244
    Number of Cartesian functions: 255
    Spherical Harmonics?: true
    Max angular momentum: 2

  ==> Pre-Iterations <==

   -------------------------------------------------------
    Irrep   Nso     Nmo     Nalpha   Nbeta   Ndocc  Nsocc
   -------------------------------------------------------
     A        244     244       0       0       0       0
   -------------------------------------------------------
    Total     244     244      42      42      42       0
   -------------------------------------------------------

  ==> Integral Setup <==

  Using integral reordering PK algorithm.
  Sizing the integral batches needed.
  Building batch lookup table.
   Calculation information:
      Number of atoms:                  29
      Number of AO shells:             120
      Number of primitives:            332
      Number of atomic orbitals:       255
      Number of basis functions:       244

      Integral cutoff                 1.00e-12
      Number of threads:                 1

	Batch   1 pq = [       0,    9405] index = [             0,44231715] size =     44231715
	Batch   2 pq = [    9405,   13301] index = [      44231715,88464951] size =     44233236
	Batch   3 pq = [   13301,   16290] index = [      88464951,132690195] size =     44225244
	Batch   4 pq = [   16290,   18810] index = [     132690195,176917455] size =     44227260
	Batch   5 pq = [   18810,   21030] index = [     176917455,221140965] size =     44223510
	Batch   6 pq = [   21030,   23037] index = [     221140965,265363203] size =     44222238
	Batch   7 pq = [   23037,   24883] index = [     265363203,309594286] size =     44231083
	Batch   8 pq = [   24883,   26601] index = [     309594286,353819901] size =     44225615
	Batch   9 pq = [   26601,   28214] index = [     353819901,398029005] size =     44209104
	Batch  10 pq = [   28214,   29740] index = [     398029005,442248670] size =     44219665
	Batch  11 pq = [   29740,   29890] index = [     442248670,446720995] size =      4472325
  Task number: 41
  Buffer size: 11059200
  Buffer per thread: 2
  We computed 21654137 shell quartets total.
  Whereas there are 26357430 unique shell quartets.

  ==> DiskJK: Disk-Based J/K Matrices <==

    J tasked:                  Yes
    K tasked:                  Yes
    wK tasked:                  No
    Memory [MiB]:              375
    Schwarz Cutoff:          1E-12

    OpenMP threads:              1

  Minimum eigenvalue in the overlap matrix is 3.0840041090E-04.
  Using Symmetric Orthogonalization.

  SCF Guess: Superposition of Atomic Densities via on-the-fly atomic UHF.

  ==> Iterations <==

                        Total Energy        Delta E     RMS |[F,P]|

   @RHF iter SAD:  -425.92998236254977   -4.25930e+02   0.00000e+00
   @RHF iter   1:  -426.77317532753153   -8.43193e-01   2.64321e-03 DIIS
   @RHF iter   2:  -427.02219841401296   -2.49023e-01   1.11134e-03 DIIS
   @RHF iter   3:  -427.06202763323870   -3.98292e-02   2.46036e-04 DIIS
   @RHF iter   4:  -427.06532860711070   -3.30097e-03   5.80186e-05 DIIS
   @RHF iter   5:  -427.06545746415566   -1.28857e-04   1.43562e-05 DIIS
   @RHF iter   6:  -427.06546577115915   -8.30700e-06   4.73557e-06 DIIS
   @RHF iter   7:  -427.06546671587711   -9.44718e-07   1.24063e-06 DIIS
   @RHF iter   8:  -427.06546679606589   -8.01888e-08   3.15787e-07 DIIS
   @RHF iter   9:  -427.06546680735835   -1.12925e-08   1.35855e-07 DIIS
   @RHF iter  10:  -427.06546680997866   -2.62031e-09   6.28663e-08 DIIS
   @RHF iter  11:  -427.06546681073735   -7.58689e-10   2.65924e-08 DIIS
   @RHF iter  12:  -427.06546681087161   -1.34264e-10   8.87779e-09 DIIS
   @RHF iter  13:  -427.06546681088622   -1.46088e-11   3.26760e-09 DIIS
   @RHF iter  14:  -427.06546681088497    1.25056e-12   1.13147e-09 DIIS
   @RHF iter  15:  -427.06546681088702   -2.04636e-12   4.22961e-10 DIIS
   @RHF iter  16:  -427.06546681088400    3.01270e-12   1.96133e-10 DIIS
   @RHF iter  17:  -427.06546681088577   -1.76215e-12   9.68931e-11 DIIS
  Energy and wave function converged.

  ==> Post-Iterations <==

    Orbital Energies [Eh]
    ---------------------

    Doubly Occupied:

       1A    -11.242472     2A    -11.237187     3A    -11.236027
       4A    -11.232640     5A    -11.232097     6A    -11.230663
       7A    -11.230053     8A    -11.223833     9A    -11.214660
      10A    -11.214427    11A    -11.212670    12A     -1.149104
      13A     -1.086110    14A     -1.041114    15A     -1.010583
      16A     -0.931047    17A     -0.929325    18A     -0.925777
      19A     -0.823435    20A     -0.796042    21A     -0.767219
      22A     -0.691024    23A     -0.635330    24A     -0.631438
      25A     -0.628349    26A     -0.595204    27A     -0.587762
      28A     -0.582537    29A     -0.576283    30A     -0.560195
      31A     -0.537501    32A     -0.533796    33A     -0.531694
      34A     -0.509529    35A     -0.484862    36A     -0.484478
      37A     -0.481731    38A     -0.463048    39A     -0.459833
      40A     -0.457062    41A     -0.331673    42A     -0.320486

    Virtual:

      43A      0.135055    44A      0.138758    45A      0.168454
      46A      0.190704    47A      0.201419    48A      0.207319
      49A      0.228705    50A      0.230804    51A      0.237316
      52A      0.248402    53A      0.255387    54A      0.261032
      55A      0.271407    56A      0.278579    57A      0.281976
      58A      0.305491    59A      0.307613    60A      0.320222
      61A      0.323926    62A      0.358067    63A      0.365521
      64A      0.368003    65A      0.380720    66A      0.409887
      67A      0.419406    68A      0.456283    69A      0.468695
      70A      0.481954    71A      0.499905    72A      0.554505
      73A      0.561309    74A      0.583350    75A      0.601515
      76A      0.609794    77A      0.623714    78A      0.636981
      79A      0.674524    80A      0.686001    81A      0.696883
      82A      0.710245    83A      0.722925    84A      0.735316
      85A      0.738094    86A      0.745241    87A      0.746453
      88A      0.758443    89A      0.760995    90A      0.767396
      91A      0.781805    92A      0.791700    93A      0.806203
      94A      0.830877    95A      0.837027    96A      0.852387
      97A      0.858031    98A      0.866394    99A      0.878474
     100A      0.884984   101A      0.887172   102A      0.891825
     103A      0.894513   104A      0.903458   105A      0.911457
     106A      0.913273   107A      0.919889   108A      0.924879
     109A      0.928423   110A      0.933974   111A      0.941818
     112A      0.949705   113A      0.961851   114A      0.966253
     115A      0.985972   116A      0.995448   117A      1.002793
     118A      1.017046   119A      1.048490   120A      1.085847
     121A      1.114095   122A      1.133337   123A      1.140349
     124A      1.149814   125A      1.157537   126A      1.177590
     127A      1.206580   128A      1.219939   129A      1.240636
     130A      1.248333   131A      1.258550   132A      1.285388
     133A      1.304600   134A      1.315673   135A      1.319515
     136A      1.330002   137A      1.374611   138A      1.406925
     139A      1.415225   140A      1.422477   141A      1.504274
     142A      1.519214   143A      1.537214   144A      1.563614
     145A      1.576575   146A      1.611719   147A      1.655847
     148A      1.663039   149A      1.675639   150A      1.694589
     151A      1.696293   152A      1.698220   153A      1.705713
     154A      1.720620   155A      1.733366   156A      1.739891
     157A      1.752698   158A      1.757449   159A      1.787691
     160A      1.808633   161A      1.838242   162A      1.853370
     163A      1.859690   164A      1.869718   165A      1.882633
     166A      1.895057   167A      1.906019   168A      1.912313
     169A      1.921497   170A      1.932156   171A      1.940526
     172A      1.947888   173A      1.954472   174A      1.959374
     175A      1.964656   176A      1.965164   177A      1.974902
     178A      1.980653   179A      1.991855   180A      2.002280
     181A      2.012413   182A      2.030756   183A      2.041167
     184A      2.049108   185A      2.056201   186A      2.072509
     187A      2.094614   188A      2.106518   189A      2.113637
     190A      2.126510   191A      2.141708   192A      2.153654
     193A      2.162473   194A      2.183653   195A      2.189680
     196A      2.192033   197A      2.241858   198A      2.251371
     199A      2.270050   200A      2.273204   201A      2.293478
     202A      2.294924   203A      2.302049   204A      2.310874
     205A      2.327736   206A      2.348722   207A      2.353610
     208A      2.378772   209A      2.396452   210A      2.459478
     211A      2.472538   212A      2.490178   213A      2.504923
     214A      2.533793   215A      2.574975   216A      2.609857
     217A      2.616911   218A      2.638239   219A      2.705556
     220A      2.724631   221A      2.741395   222A      2.757198
     223A      2.763352   224A      2.768161   225A      2.795072
     226A      2.799601   227A      2.803431   228A      2.810391
     229A      2.839572   230A      2.843177   231A      2.852459
     232A      2.856856   233A      2.871557   234A      2.872386
     235A      2.978052   236A      3.001480   237A      3.014408
     238A      3.025999   239A      3.031792   240A      3.144975
     241A      3.154417   242A      3.206143   243A      3.295381
     244A      3.951210

    Final Occupation by Irrep:
              A
    DOCC [    42 ]

  @RHF Final Energy:  -427.06546681088577

   => Energetics <=

    Nuclear Repulsion Energy =            559.8385073055640078
    One-Electron Energy =               -1685.7073502662819919
    Two-Electron Energy =                 698.8033761498322747
    Total Energy =                       -427.0654668108857095

Computation Completed

Properties will be evaluated at   0.000000,   0.000000,   0.000000 [a0]

Properties computed using the SCF density matrix

  Nuclear Dipole Moment: [e a0]
     X:   -10.7608      Y:     7.3449      Z:     5.0987

  Electronic Dipole Moment: [e a0]
     X:    10.9013      Y:    -7.4158      Z:    -5.1102

  Dipole Moment: [e a0]
     X:     0.1406      Y:    -0.0709      Z:    -0.0114     Total:     0.1578

  Dipole Moment: [D]
     X:     0.3573      Y:    -0.1802      Z:    -0.0291     Total:     0.4012

*** tstop() called on ds3 at Tue Apr 28 00:57:00 2020
Module time:
	user time   =     149.06 seconds =       2.48 minutes
	system time =      62.91 seconds =       1.05 minutes
	total time  =        355 seconds =       5.92 minutes
Total time:
	user time   =     149.06 seconds =       2.48 minutes
	system time =      62.91 seconds =       1.05 minutes
	total time  =        355 seconds =       5.92 minutes
                                     G D M A

                                 by Anthony Stone

                           version 2.2.06, 22 June 2011

               Distributed Multipoles from Gaussian wavefunctions

Starting at 0:57:0 on 28 Apr 2020

Using SCF density matrix from file ./SSI/SSI-052LEU-141PHE-1-dimer.test.2827.fchk

                         Distributed Multipole Analysis

Standard DMA

Positions and radii in angstrom
Multipole moments in atomic units, ea_0^k for rank k

C          x = -2.538997  y =  1.647454  z =  1.282293 angstrom
           Maximum rank =  0   Radius =  0.650 angstrom
                   Q00  =  -0.014986

C          x = -2.795997  y =  2.683454  z =  2.379293 angstrom
           Maximum rank =  0   Radius =  0.650 angstrom
                   Q00  =  -0.227732

C          x = -3.625997  y =  0.572454  z =  1.358293 angstrom
           Maximum rank =  0   Radius =  0.650 angstrom
                   Q00  =  -0.243730

C          x = -2.525997  y =  2.286454  z = -0.093707 angstrom
           Maximum rank =  0   Radius =  0.650 angstrom
                   Q00  =  -0.235528

H          x = -1.575997  y =  1.172454  z =  1.460293 angstrom
           Maximum rank =  0   Radius =  0.325 angstrom
                   Q00  =   0.011752

H          x = -3.010997  y =  2.167454  z =  3.315293 angstrom
           Maximum rank =  0   Radius =  0.325 angstrom
                   Q00  =   0.078577

H          x = -3.685997  y =  3.239454  z =  2.097293 angstrom
           Maximum rank =  0   Radius =  0.325 angstrom
                   Q00  =   0.073243

H          x = -4.602997  y =  1.019454  z =  1.184293 angstrom
           Maximum rank =  0   Radius =  0.325 angstrom
                   Q00  =   0.076896

H          x = -3.446997  y = -0.182546  z =  0.595293 angstrom
           Maximum rank =  0   Radius =  0.325 angstrom
                   Q00  =   0.078110

H          x = -3.610997  y =  0.097454  z =  2.337293 angstrom
           Maximum rank =  0   Radius =  0.325 angstrom
                   Q00  =   0.083359

H          x = -1.702997  y =  2.991454  z = -0.166707 angstrom
           Maximum rank =  0   Radius =  0.325 angstrom
                   Q00  =   0.083156

H          x = -2.394997  y =  1.519454  z = -0.855707 angstrom
           Maximum rank =  0   Radius =  0.325 angstrom
                   Q00  =   0.078247

H          x = -3.467997  y =  2.803454  z = -0.273707 angstrom
           Maximum rank =  0   Radius =  0.325 angstrom
                   Q00  =   0.076826

H          x = -1.984640  y =  3.405464  z =  2.553673 angstrom
           Maximum rank =  0   Radius =  0.325 angstrom
                   Q00  =   0.084677

C          x =  4.105003  y = -1.900546  z = -1.261707 angstrom
           Maximum rank =  0   Radius =  0.650 angstrom
                   Q00  =  -0.199561

C          x =  0.084003  y = -0.569546  z = -0.398707 angstrom
           Maximum rank =  0   Radius =  0.650 angstrom
                   Q00  =  -0.087182

C          x =  1.175003  y =  0.006454  z =  0.265293 angstrom
           Maximum rank =  0   Radius =  0.650 angstrom
                   Q00  =  -0.063771

C          x =  0.306003  y = -1.571546  z = -1.350707 angstrom
           Maximum rank =  0   Radius =  0.650 angstrom
                   Q00  =  -0.065609

C          x =  2.475003  y = -0.416546  z = -0.023707 angstrom
           Maximum rank =  0   Radius =  0.650 angstrom
                   Q00  =  -0.085353

C          x =  1.605003  y = -1.988546  z = -1.629707 angstrom
           Maximum rank =  0   Radius =  0.650 angstrom
                   Q00  =  -0.000237

C          x =  2.701003  y = -1.407546  z = -0.983707 angstrom
           Maximum rank =  0   Radius =  0.650 angstrom
                   Q00  =  -0.102866

H          x = -0.923997  y = -0.254546  z = -0.178707 angstrom
           Maximum rank =  0   Radius =  0.325 angstrom
                   Q00  =   0.058617

H          x =  1.004003  y =  0.779454  z =  1.000293 angstrom
           Maximum rank =  0   Radius =  0.325 angstrom
                   Q00  =   0.063300

H          x = -0.520997  y = -2.030546  z = -1.865707 angstrom
           Maximum rank =  0   Radius =  0.325 angstrom
                   Q00  =   0.063134

H          x =  3.309003  y =  0.030454  z =  0.498293 angstrom
           Maximum rank =  0   Radius =  0.325 angstrom
                   Q00  =   0.059488

H          x =  1.761003  y = -2.772546  z = -2.352707 angstrom
           Maximum rank =  0   Radius =  0.325 angstrom
                   Q00  =   0.056004

H          x =  4.060003  y = -2.987546  z = -1.318707 angstrom
           Maximum rank =  0   Radius =  0.325 angstrom
                   Q00  =   0.098091

H          x =  4.747003  y = -1.656546  z = -0.413707 angstrom
           Maximum rank =  0   Radius =  0.325 angstrom
                   Q00  =   0.097255

H          x =  4.570069  y = -1.506919  z = -2.177547 angstrom
           Maximum rank =  0   Radius =  0.325 angstrom
                   Q00  =   0.105822

Total multipoles referred to origin at
           x =   0.000000,  y =    0.000000,  z =    0.000000 angstrom
                   Q00  =  -0.000000

Finished at 0:57:0 on 28 Apr 2020

  DMA results are available in the Python driver through the
	  variable('DMA DISTRIBUTED MULTIPOLES')
  and
	  variable('DMA TOTAL MULTIPOLES')
  commands.

    Psi4 stopped on: Tuesday, 28 April 2020 12:57AM
    Psi4 wall time for execution: 0:05:55.23

*** Psi4 exiting successfully. Buy a developer a beer!
