                               Psi4 1.3.2 release

  ==> Input File <==

--------------------------------------------------------------------------
import numpy as np
set {scf_type pk
basis cc-pvdz
d_convergence 10
gdma_switch   0
gdma_limit    0
gdma_origin   [ 0.0,  0.0,  0.0 ]
}
molecule test {
    units Angstrom
    0 1
    --
    0 1
    C                0.410867259166644     0.131308618785276     0.952501592637341
    C                1.115867259166644    -0.043691381214724     2.275501592637341
    C                1.975867259166644    -1.712691381214724     0.783501592637341
    C               -0.523132740833356    -0.409691381214724    -1.839498407362659
    C                0.495867259166644    -1.293691381214724    -1.116498407362659
    O                0.951867259166644    -2.299691381214724    -1.672498407362659
    N                0.910867259166644    -0.968691381214724     0.121501592637341
    H               -0.669132740833356     0.075308618785276     1.089501592637341
    H                0.691867259166644     1.088308618785276     0.516501592637341
    H                0.514867259166644    -0.678691381214724     2.929501592637341
    H                1.314867259166644     0.915308618785276     2.755501592637341
    H                2.809867259166644    -1.891691381214724     0.107501592637341
    H               -0.876132740833356     0.388308618785276    -1.188498407362659
    H                2.046097259166644    -0.565261381214724     2.005971592637341
    H                2.275667259166644    -1.027541381214724     1.590151592637341
    H                1.649497259166644    -2.683811381214724     1.184011592637341
    H               -0.025272740833356     0.025658618785276    -2.718478407362659
    H               -1.398922740833356    -0.997681381214724    -2.151348407362659
    C               -2.209132740833356     2.748308618785276     0.710501592637341
    C               -2.991132740833356     3.622308618785276    -0.297498407362659
    H               -2.521132740833356     1.705308618785276     0.631501592637341
    H               -1.139132740833356     2.821308618785276     0.509501592637341
    H               -2.399132740833356     3.100308618785276     1.725501592637341
    H               -2.670132740833357     4.662308618785276    -0.197498407362659
    H               -4.073512740833356     3.550398618785276    -0.115078407362659
    H               -2.754522740833356     3.246778618785276    -1.303978407362659

}
e, wfn = energy('scf', return_wfn=True)
gdma(wfn)
dmavals = variable('DMA DISTRIBUTED MULTIPOLES')
charges = np.array(dmavals)
print(charges)
np.save('SSI-005PRO-196ALA-1-dimer.npy', np.array(charges))--------------------------------------------------------------------------

*** tstart() called on ds3
*** at Mon Apr 27 03:19:45 2020

   => Loading Basis Set <=

    Name: CC-PVDZ
    Role: ORBITAL
    Keyword: BASIS
    atoms 1-5, 19-20  entry C          line   138 file /theoryfs2/ds/metcalf/miniconda2/envs/tf2gpu/share/psi4/basis/cc-pvdz.gbs
    atoms 6           entry O          line   198 file /theoryfs2/ds/metcalf/miniconda2/envs/tf2gpu/share/psi4/basis/cc-pvdz.gbs
    atoms 7           entry N          line   168 file /theoryfs2/ds/metcalf/miniconda2/envs/tf2gpu/share/psi4/basis/cc-pvdz.gbs
    atoms 8-18, 21-26 entry H          line    22 file /theoryfs2/ds/metcalf/miniconda2/envs/tf2gpu/share/psi4/basis/cc-pvdz.gbs

         ---------------------------------------------------------
                                   SCF
               by Justin Turney, Rob Parrish, Andy Simmonett
                          and Daniel G. A. Smith
                              RHF Reference
                        1 Threads,    500 MiB Core
         ---------------------------------------------------------

  ==> Geometry <==

    Molecular point group: c1
    Full point group: C1

    Geometry (in Angstrom), charge = 0, multiplicity = 1:

       Center              X                  Y                   Z               Mass
    ------------   -----------------  -----------------  -----------------  -----------------
         C            0.410867259167     0.131308618785     0.952501592637    12.000000000000
         C            1.115867259167    -0.043691381215     2.275501592637    12.000000000000
         C            1.975867259167    -1.712691381215     0.783501592637    12.000000000000
         C           -0.523132740833    -0.409691381215    -1.839498407363    12.000000000000
         C            0.495867259167    -1.293691381215    -1.116498407363    12.000000000000
         O            0.951867259167    -2.299691381215    -1.672498407363    15.994914619570
         N            0.910867259167    -0.968691381215     0.121501592637    14.003074004430
         H           -0.669132740833     0.075308618785     1.089501592637     1.007825032230
         H            0.691867259167     1.088308618785     0.516501592637     1.007825032230
         H            0.514867259167    -0.678691381215     2.929501592637     1.007825032230
         H            1.314867259167     0.915308618785     2.755501592637     1.007825032230
         H            2.809867259167    -1.891691381215     0.107501592637     1.007825032230
         H           -0.876132740833     0.388308618785    -1.188498407363     1.007825032230
         H            2.046097259167    -0.565261381215     2.005971592637     1.007825032230
         H            2.275667259167    -1.027541381215     1.590151592637     1.007825032230
         H            1.649497259167    -2.683811381215     1.184011592637     1.007825032230
         H           -0.025272740833     0.025658618785    -2.718478407363     1.007825032230
         H           -1.398922740833    -0.997681381215    -2.151348407363     1.007825032230
         C           -2.209132740833     2.748308618785     0.710501592637    12.000000000000
         C           -2.991132740833     3.622308618785    -0.297498407363    12.000000000000
         H           -2.521132740833     1.705308618785     0.631501592637     1.007825032230
         H           -1.139132740833     2.821308618785     0.509501592637     1.007825032230
         H           -2.399132740833     3.100308618785     1.725501592637     1.007825032230
         H           -2.670132740833     4.662308618785    -0.197498407363     1.007825032230
         H           -4.073512740833     3.550398618785    -0.115078407363     1.007825032230
         H           -2.754522740833     3.246778618785    -1.303978407363     1.007825032230

  Running in c1 symmetry.

  Rotational constants: A =      0.06157  B =      0.02139  C =      0.01621 [cm^-1]
  Rotational constants: A =   1845.84518  B =    641.30085  C =    485.95626 [MHz]
  Nuclear repulsion =  468.899777425677769

  Charge       = 0
  Multiplicity = 1
  Electrons    = 74
  Nalpha       = 37
  Nbeta        = 37

  ==> Algorithm <==

  SCF Algorithm Type is PK.
  DIIS enabled.
  MOM disabled.
  Fractional occupation disabled.
  Guess Type is SAD.
  Energy threshold   = 1.00e-06
  Density threshold  = 1.00e-10
  Integral threshold = 0.00e+00

  ==> Primary Basis <==

  Basis Set: CC-PVDZ
    Blend: CC-PVDZ
    Number of shells: 105
    Number of basis function: 211
    Number of Cartesian functions: 220
    Spherical Harmonics?: true
    Max angular momentum: 2

  ==> Pre-Iterations <==

   -------------------------------------------------------
    Irrep   Nso     Nmo     Nalpha   Nbeta   Ndocc  Nsocc
   -------------------------------------------------------
     A        211     211       0       0       0       0
   -------------------------------------------------------
    Total     211     211      37      37      37       0
   -------------------------------------------------------

  ==> Integral Setup <==

  Using integral reordering PK algorithm.
  Sizing the integral batches needed.
  Building batch lookup table.
   Calculation information:
      Number of atoms:                  26
      Number of AO shells:             105
      Number of primitives:            283
      Number of atomic orbitals:       220
      Number of basis functions:       211

      Integral cutoff                 1.00e-12
      Number of threads:                 1

	Batch   1 pq = [       0,    9405] index = [             0,44231715] size =     44231715
	Batch   2 pq = [    9405,   13301] index = [      44231715,88464951] size =     44233236
	Batch   3 pq = [   13301,   16290] index = [      88464951,132690195] size =     44225244
	Batch   4 pq = [   16290,   18810] index = [     132690195,176917455] size =     44227260
	Batch   5 pq = [   18810,   21030] index = [     176917455,221140965] size =     44223510
	Batch   6 pq = [   21030,   22366] index = [     221140965,250130161] size =     28989196
  Task number: 23
  Buffer size: 11059200
  Buffer per thread: 2
  We computed 13161108 shell quartets total.
  Whereas there are 15487395 unique shell quartets.

  ==> DiskJK: Disk-Based J/K Matrices <==

    J tasked:                  Yes
    K tasked:                  Yes
    wK tasked:                  No
    Memory [MiB]:              375
    Schwarz Cutoff:          1E-12

    OpenMP threads:              1

  Minimum eigenvalue in the overlap matrix is 1.5002096785E-03.
  Using Symmetric Orthogonalization.

  SCF Guess: Superposition of Atomic Densities via on-the-fly atomic UHF.

  ==> Iterations <==

                        Total Energy        Delta E     RMS |[F,P]|

   @RHF iter SAD:  -403.34171594056272   -4.03342e+02   0.00000e+00
   @RHF iter   1:  -403.82596275716668   -4.84247e-01   3.32895e-03 DIIS
   @RHF iter   2:  -404.05148645436384   -2.25524e-01   1.86667e-03 DIIS
   @RHF iter   3:  -404.11242224727494   -6.09358e-02   4.44253e-04 DIIS
   @RHF iter   4:  -404.11774249961928   -5.32025e-03   1.71491e-04 DIIS
   @RHF iter   5:  -404.11858429538313   -8.41796e-04   3.04489e-05 DIIS
   @RHF iter   6:  -404.11863730617745   -5.30108e-05   1.57246e-05 DIIS
   @RHF iter   7:  -404.11864824734272   -1.09412e-05   5.74405e-06 DIIS
   @RHF iter   8:  -404.11865056356010   -2.31622e-06   2.26309e-06 DIIS
   @RHF iter   9:  -404.11865090996650   -3.46406e-07   6.09209e-07 DIIS
   @RHF iter  10:  -404.11865093029610   -2.03296e-08   1.78062e-07 DIIS
   @RHF iter  11:  -404.11865093204000   -1.74390e-09   5.41821e-08 DIIS
   @RHF iter  12:  -404.11865093218421   -1.44212e-10   1.72836e-08 DIIS
   @RHF iter  13:  -404.11865093219518   -1.09708e-11   5.19242e-09 DIIS
   @RHF iter  14:  -404.11865093219882   -3.63798e-12   1.37512e-09 DIIS
   @RHF iter  15:  -404.11865093219842    3.97904e-13   4.42276e-10 DIIS
   @RHF iter  16:  -404.11865093220291   -4.49063e-12   2.15970e-10 DIIS
   @RHF iter  17:  -404.11865093219819    4.71800e-12   9.27163e-11 DIIS
  Energy and wave function converged.

  ==> Post-Iterations <==

    Orbital Energies [Eh]
    ---------------------

    Doubly Occupied:

       1A    -20.493742     2A    -15.580947     3A    -11.340273
       4A    -11.275330     5A    -11.243087     6A    -11.239859
       7A    -11.229905     8A    -11.229272     9A    -11.221086
      10A     -1.357572    11A     -1.250186    12A     -1.066991
      13A     -1.024254    14A     -1.005009    15A     -0.970581
      16A     -0.853114    17A     -0.846064    18A     -0.754870
      19A     -0.728104    20A     -0.671534    21A     -0.651371
      22A     -0.613672    23A     -0.607385    24A     -0.605866
      25A     -0.597562    26A     -0.570888    27A     -0.549760
      28A     -0.537407    29A     -0.533558    30A     -0.522093
      31A     -0.503344    32A     -0.499012    33A     -0.494827
      34A     -0.480316    35A     -0.402182    36A     -0.394122
      37A     -0.355027

    Virtual:

      38A      0.156839    39A      0.174005    40A      0.183108
      41A      0.201584    42A      0.217888    43A      0.219823
      44A      0.238946    45A      0.243442    46A      0.252864
      47A      0.257116    48A      0.260463    49A      0.268495
      50A      0.278653    51A      0.295457    52A      0.297527
      53A      0.316930    54A      0.325587    55A      0.339306
      56A      0.362344    57A      0.386932    58A      0.398975
      59A      0.418821    60A      0.454313    61A      0.502449
      62A      0.519469    63A      0.541115    64A      0.579083
      65A      0.585409    66A      0.604637    67A      0.609119
      68A      0.636168    69A      0.642434    70A      0.654450
      71A      0.678967    72A      0.689365    73A      0.703076
      74A      0.714549    75A      0.746074    76A      0.749129
      77A      0.765305    78A      0.791545    79A      0.808288
      80A      0.842879    81A      0.856046    82A      0.863025
      83A      0.868430    84A      0.870725    85A      0.880916
      86A      0.884568    87A      0.888481    88A      0.895936
      89A      0.899010    90A      0.901658    91A      0.908120
      92A      0.914563    93A      0.924288    94A      0.947586
      95A      0.955931    96A      0.963783    97A      0.978547
      98A      0.998907    99A      1.022471   100A      1.056063
     101A      1.072878   102A      1.090430   103A      1.116969
     104A      1.126473   105A      1.147267   106A      1.160810
     107A      1.219571   108A      1.227335   109A      1.239680
     110A      1.258142   111A      1.358089   112A      1.375278
     113A      1.411336   114A      1.425546   115A      1.432191
     116A      1.457666   117A      1.469571   118A      1.476107
     119A      1.490231   120A      1.543079   121A      1.557892
     122A      1.586562   123A      1.600232   124A      1.612610
     125A      1.616853   126A      1.630110   127A      1.663993
     128A      1.667374   129A      1.682036   130A      1.689361
     131A      1.754050   132A      1.784851   133A      1.815331
     134A      1.833269   135A      1.851208   136A      1.857833
     137A      1.862575   138A      1.871873   139A      1.881474
     140A      1.890739   141A      1.909364   142A      1.916197
     143A      1.927248   144A      1.934177   145A      1.937676
     146A      1.941803   147A      1.952552   148A      1.961496
     149A      1.971443   150A      1.983442   151A      2.005606
     152A      2.020581   153A      2.037797   154A      2.058519
     155A      2.065992   156A      2.091507   157A      2.095447
     158A      2.105635   159A      2.117096   160A      2.127208
     161A      2.136514   162A      2.178495   163A      2.187178
     164A      2.220863   165A      2.243198   166A      2.273321
     167A      2.280938   168A      2.299539   169A      2.304592
     170A      2.346959   171A      2.376016   172A      2.432073
     173A      2.439136   174A      2.449446   175A      2.457208
     176A      2.470578   177A      2.505153   178A      2.520459
     179A      2.546958   180A      2.562349   181A      2.566616
     182A      2.632741   183A      2.641463   184A      2.698502
     185A      2.751641   186A      2.754128   187A      2.770669
     188A      2.772755   189A      2.782142   190A      2.787341
     191A      2.803767   192A      2.822555   193A      2.833420
     194A      2.842600   195A      2.850357   196A      2.855695
     197A      2.928462   198A      2.947930   199A      2.952101
     200A      2.978032   201A      3.045417   202A      3.089914
     203A      3.132493   204A      3.171784   205A      3.219931
     206A      3.322718   207A      3.349231   208A      3.513303
     209A      3.830236   210A      3.903816   211A      5.064931

    Final Occupation by Irrep:
              A
    DOCC [    37 ]

  @RHF Final Energy:  -404.11865093219819

   => Energetics <=

    Nuclear Repulsion Energy =            468.8997774256777689
    One-Electron Energy =               -1477.4365063966079106
    Two-Electron Energy =                 604.4180780387320056
    Total Energy =                       -404.1186509321981930

Computation Completed

Properties will be evaluated at   0.000000,   0.000000,   0.000000 [a0]

Properties computed using the SCF density matrix

  Nuclear Dipole Moment: [e a0]
     X:    -6.7706      Y:    12.8676      Z:     6.9010

  Electronic Dipole Moment: [e a0]
     X:     6.4532      Y:   -11.5517      Z:    -5.7602

  Dipole Moment: [e a0]
     X:    -0.3174      Y:     1.3158      Z:     1.1408     Total:     1.7702

  Dipole Moment: [D]
     X:    -0.8068      Y:     3.3445      Z:     2.8996     Total:     4.4994

*** tstop() called on ds3 at Mon Apr 27 03:21:39 2020
Module time:
	user time   =      80.71 seconds =       1.35 minutes
	system time =      36.83 seconds =       0.61 minutes
	total time  =        114 seconds =       1.90 minutes
Total time:
	user time   =      80.71 seconds =       1.35 minutes
	system time =      36.83 seconds =       0.61 minutes
	total time  =        114 seconds =       1.90 minutes
                                     G D M A

                                 by Anthony Stone

                           version 2.2.06, 22 June 2011

               Distributed Multipoles from Gaussian wavefunctions

Starting at 3:21:39 on 27 Apr 2020

Using SCF density matrix from file ./SSI/SSI-005PRO-196ALA-1-dimer.test.17694.fchk

                         Distributed Multipole Analysis

Standard DMA

Positions and radii in angstrom
Multipole moments in atomic units, ea_0^k for rank k

C          x =  0.410867  y =  0.131309  z =  0.952502 angstrom
           Maximum rank =  0   Radius =  0.650 angstrom
                   Q00  =   0.008988

C          x =  1.115867  y = -0.043691  z =  2.275502 angstrom
           Maximum rank =  0   Radius =  0.650 angstrom
                   Q00  =  -0.249455

C          x =  1.975867  y = -1.712691  z =  0.783502 angstrom
           Maximum rank =  0   Radius =  0.650 angstrom
                   Q00  =  -0.093937

C          x = -0.523133  y = -0.409691  z = -1.839498 angstrom
           Maximum rank =  0   Radius =  0.650 angstrom
                   Q00  =  -0.261878

C          x =  0.495867  y = -1.293691  z = -1.116498 angstrom
           Maximum rank =  0   Radius =  0.650 angstrom
                   Q00  =   0.739751

O          x =  0.951867  y = -2.299691  z = -1.672498 angstrom
           Maximum rank =  0   Radius =  0.650 angstrom
                   Q00  =  -0.788738

N          x =  0.910867  y = -0.968691  z =  0.121502 angstrom
           Maximum rank =  0   Radius =  0.650 angstrom
                   Q00  =  -0.459951

H          x = -0.669133  y =  0.075309  z =  1.089502 angstrom
           Maximum rank =  0   Radius =  0.325 angstrom
                   Q00  =   0.084337

H          x =  0.691867  y =  1.088309  z =  0.516502 angstrom
           Maximum rank =  0   Radius =  0.325 angstrom
                   Q00  =   0.062207

H          x =  0.514867  y = -0.678691  z =  2.929502 angstrom
           Maximum rank =  0   Radius =  0.325 angstrom
                   Q00  =   0.101256

H          x =  1.314867  y =  0.915309  z =  2.755502 angstrom
           Maximum rank =  0   Radius =  0.325 angstrom
                   Q00  =   0.090144

H          x =  2.809867  y = -1.891691  z =  0.107502 angstrom
           Maximum rank =  0   Radius =  0.325 angstrom
                   Q00  =   0.108895

H          x = -0.876133  y =  0.388309  z = -1.188498 angstrom
           Maximum rank =  0   Radius =  0.325 angstrom
                   Q00  =   0.088390

H          x =  2.046097  y = -0.565261  z =  2.005972 angstrom
           Maximum rank =  0   Radius =  0.325 angstrom
                   Q00  =   0.110415

H          x =  2.275667  y = -1.027541  z =  1.590152 angstrom
           Maximum rank =  0   Radius =  0.325 angstrom
                   Q00  =   0.098322

H          x =  1.649497  y = -2.683811  z =  1.184012 angstrom
           Maximum rank =  0   Radius =  0.325 angstrom
                   Q00  =   0.097547

H          x = -0.025273  y =  0.025659  z = -2.718478 angstrom
           Maximum rank =  0   Radius =  0.325 angstrom
                   Q00  =   0.132772

H          x = -1.398923  y = -0.997681  z = -2.151348 angstrom
           Maximum rank =  0   Radius =  0.325 angstrom
                   Q00  =   0.131016

C          x = -2.209133  y =  2.748309  z =  0.710502 angstrom
           Maximum rank =  0   Radius =  0.650 angstrom
                   Q00  =  -0.251318

C          x = -2.991133  y =  3.622309  z = -0.297498 angstrom
           Maximum rank =  0   Radius =  0.650 angstrom
                   Q00  =  -0.234779

H          x = -2.521133  y =  1.705309  z =  0.631502 angstrom
           Maximum rank =  0   Radius =  0.325 angstrom
                   Q00  =   0.077254

H          x = -1.139133  y =  2.821309  z =  0.509502 angstrom
           Maximum rank =  0   Radius =  0.325 angstrom
                   Q00  =   0.077027

H          x = -2.399133  y =  3.100309  z =  1.725502 angstrom
           Maximum rank =  0   Radius =  0.325 angstrom
                   Q00  =   0.083763

H          x = -2.670133  y =  4.662309  z = -0.197498 angstrom
           Maximum rank =  0   Radius =  0.325 angstrom
                   Q00  =   0.084762

H          x = -4.073513  y =  3.550399  z = -0.115078 angstrom
           Maximum rank =  0   Radius =  0.325 angstrom
                   Q00  =   0.085031

H          x = -2.754523  y =  3.246779  z = -1.303978 angstrom
           Maximum rank =  0   Radius =  0.325 angstrom
                   Q00  =   0.078179

Total multipoles referred to origin at
           x =   0.000000,  y =    0.000000,  z =    0.000000 angstrom
                   Q00  =  -0.000000

Finished at 3:21:39 on 27 Apr 2020

  DMA results are available in the Python driver through the
	  variable('DMA DISTRIBUTED MULTIPOLES')
  and
	  variable('DMA TOTAL MULTIPOLES')
  commands.

    Psi4 stopped on: Monday, 27 April 2020 03:21AM
    Psi4 wall time for execution: 0:01:53.57

*** Psi4 exiting successfully. Buy a developer a beer!
