                               Psi4 1.3.2 release

  ==> Input File <==

--------------------------------------------------------------------------
import numpy as np
set {scf_type pk
basis cc-pvdz
d_convergence 10
gdma_switch   0
gdma_limit    0
gdma_origin   [ 0.0,  0.0,  0.0 ]
}
molecule test {
    units Angstrom
    0 1
    --
    0 1
    C                0.774507062704795     1.714735853132043    -0.660642149121475
    C                0.347507062704795     1.147735853132043    -2.010642149121475
    C                0.793507062704795     3.242735853132042    -0.647642149121475
    H                0.085507062704795     1.373735853132043     0.110357850878525
    H                1.763507062704795     1.322735853132043    -0.427642149121475
    H                0.291507062704795     0.061735853132043    -1.923642149121475
    H                1.204507062704795     3.626735853132043    -1.578642149121475
    H               -0.234492937295205     3.605735853132042    -0.563642149121475
    H                1.096527062704795     1.398414853132043    -2.776228149121475
    H               -0.655412937295205     1.518973853132043    -2.268206149121475
    H                1.397877062704795     3.642982853132043     0.179728850878525
    C               -0.489492937295205    -1.663264146867957     0.704357850878525
    C                0.268507062704795    -1.830264146867957     2.009357850878525
    C               -1.679492937295205    -2.597264146867957     0.606357850878525
    H               -0.837492937295205    -0.635264146867957     0.613357850878525
    H                0.200507062704795    -1.872264146867957    -0.112642149121475
    H                0.558507062704795    -2.874264146867958     2.088357850878525
    H               -1.310492937295205    -3.624264146867958     0.647357850878525
    H               -2.318492937295205    -2.462264146867958     1.471357850878525
    H               -0.371392937295205    -1.571437146867957     2.865827850878525
    H                1.186537062704795    -1.224507146867957     1.992727850878525
    H               -2.236312937295204    -2.458424146867957    -0.332087149121475

}
e, wfn = energy('scf', return_wfn=True)
gdma(wfn)
dmavals = variable('DMA DISTRIBUTED MULTIPOLES')
charges = np.array(dmavals)
print(charges)
np.save('SSI-012GLU-017GLU-1-dimer.npy', np.array(charges))--------------------------------------------------------------------------

*** tstart() called on ds3
*** at Sun Apr 26 23:58:09 2020

   => Loading Basis Set <=

    Name: CC-PVDZ
    Role: ORBITAL
    Keyword: BASIS
    atoms 1-3, 12-14  entry C          line   138 file /theoryfs2/ds/metcalf/miniconda2/envs/tf2gpu/share/psi4/basis/cc-pvdz.gbs
    atoms 4-11, 15-22 entry H          line    22 file /theoryfs2/ds/metcalf/miniconda2/envs/tf2gpu/share/psi4/basis/cc-pvdz.gbs

         ---------------------------------------------------------
                                   SCF
               by Justin Turney, Rob Parrish, Andy Simmonett
                          and Daniel G. A. Smith
                              RHF Reference
                        1 Threads,    500 MiB Core
         ---------------------------------------------------------

  ==> Geometry <==

    Molecular point group: c1
    Full point group: C1

    Geometry (in Angstrom), charge = 0, multiplicity = 1:

       Center              X                  Y                   Z               Mass
    ------------   -----------------  -----------------  -----------------  -----------------
         C            0.774507062705     1.714735853132    -0.660642149121    12.000000000000
         C            0.347507062705     1.147735853132    -2.010642149121    12.000000000000
         C            0.793507062705     3.242735853132    -0.647642149121    12.000000000000
         H            0.085507062705     1.373735853132     0.110357850879     1.007825032230
         H            1.763507062705     1.322735853132    -0.427642149121     1.007825032230
         H            0.291507062705     0.061735853132    -1.923642149121     1.007825032230
         H            1.204507062705     3.626735853132    -1.578642149121     1.007825032230
         H           -0.234492937295     3.605735853132    -0.563642149121     1.007825032230
         H            1.096527062705     1.398414853132    -2.776228149121     1.007825032230
         H           -0.655412937295     1.518973853132    -2.268206149121     1.007825032230
         H            1.397877062705     3.642982853132     0.179728850879     1.007825032230
         C           -0.489492937295    -1.663264146868     0.704357850879    12.000000000000
         C            0.268507062705    -1.830264146868     2.009357850879    12.000000000000
         C           -1.679492937295    -2.597264146868     0.606357850879    12.000000000000
         H           -0.837492937295    -0.635264146868     0.613357850879     1.007825032230
         H            0.200507062705    -1.872264146868    -0.112642149121     1.007825032230
         H            0.558507062705    -2.874264146868     2.088357850879     1.007825032230
         H           -1.310492937295    -3.624264146868     0.647357850879     1.007825032230
         H           -2.318492937295    -2.462264146868     1.471357850879     1.007825032230
         H           -0.371392937295    -1.571437146868     2.865827850879     1.007825032230
         H            1.186537062705    -1.224507146868     1.992727850879     1.007825032230
         H           -2.236312937295    -2.458424146868    -0.332087149121     1.007825032230

  Running in c1 symmetry.

  Rotational constants: A =      0.15880  B =      0.02947  C =      0.02667 [cm^-1]
  Rotational constants: A =   4760.59465  B =    883.58733  C =    799.53123 [MHz]
  Nuclear repulsion =  238.646714085016782

  Charge       = 0
  Multiplicity = 1
  Electrons    = 52
  Nalpha       = 26
  Nbeta        = 26

  ==> Algorithm <==

  SCF Algorithm Type is PK.
  DIIS enabled.
  MOM disabled.
  Fractional occupation disabled.
  Guess Type is SAD.
  Energy threshold   = 1.00e-06
  Density threshold  = 1.00e-10
  Integral threshold = 0.00e+00

  ==> Primary Basis <==

  Basis Set: CC-PVDZ
    Blend: CC-PVDZ
    Number of shells: 84
    Number of basis function: 164
    Number of Cartesian functions: 170
    Spherical Harmonics?: true
    Max angular momentum: 2

  ==> Pre-Iterations <==

   -------------------------------------------------------
    Irrep   Nso     Nmo     Nalpha   Nbeta   Ndocc  Nsocc
   -------------------------------------------------------
     A        164     164       0       0       0       0
   -------------------------------------------------------
    Total     164     164      26      26      26       0
   -------------------------------------------------------

  ==> Integral Setup <==

  Using integral reordering PK algorithm.
  Sizing the integral batches needed.
  Building batch lookup table.
   Calculation information:
      Number of atoms:                  22
      Number of AO shells:              84
      Number of primitives:            212
      Number of atomic orbitals:       170
      Number of basis functions:       164

      Integral cutoff                 1.00e-12
      Number of threads:                 1

	Batch   1 pq = [       0,    9405] index = [             0,44231715] size =     44231715
	Batch   2 pq = [    9405,   13530] index = [      44231715,91537215] size =     47305500
  Task number: 9
  Buffer size: 11059200
  Buffer per thread: 2
  We computed 5353837 shell quartets total.
  Whereas there are 6374235 unique shell quartets.

  ==> DiskJK: Disk-Based J/K Matrices <==

    J tasked:                  Yes
    K tasked:                  Yes
    wK tasked:                  No
    Memory [MiB]:              375
    Schwarz Cutoff:          1E-12

    OpenMP threads:              1

  Minimum eigenvalue in the overlap matrix is 5.0674905976E-03.
  Using Symmetric Orthogonalization.

  SCF Guess: Superposition of Atomic Densities via on-the-fly atomic UHF.

  ==> Iterations <==

                        Total Energy        Delta E     RMS |[F,P]|

   @RHF iter SAD:  -235.42860210239368   -2.35429e+02   0.00000e+00
   @RHF iter   1:  -236.31299345339642   -8.84391e-01   3.52070e-03 DIIS
   @RHF iter   2:  -236.50153613398896   -1.88543e-01   1.53925e-03 DIIS
   @RHF iter   3:  -236.53576270968983   -3.42266e-02   3.07556e-04 DIIS
   @RHF iter   4:  -236.53840135694597   -2.63865e-03   4.96361e-05 DIIS
   @RHF iter   5:  -236.53845374633002   -5.23894e-05   1.37923e-05 DIIS
   @RHF iter   6:  -236.53845794807799   -4.20175e-06   2.27474e-06 DIIS
   @RHF iter   7:  -236.53845807448113   -1.26403e-07   4.26703e-07 DIIS
   @RHF iter   8:  -236.53845808031116   -5.83003e-09   8.10409e-08 DIIS
   @RHF iter   9:  -236.53845808056082   -2.49656e-10   1.87724e-08 DIIS
   @RHF iter  10:  -236.53845808057247   -1.16529e-11   5.88510e-09 DIIS
   @RHF iter  11:  -236.53845808057321   -7.38964e-13   1.28053e-09 DIIS
   @RHF iter  12:  -236.53845808057292    2.84217e-13   2.30762e-10 DIIS
   @RHF iter  13:  -236.53845808057306   -1.42109e-13   6.40024e-11 DIIS
  Energy and wave function converged.

  ==> Post-Iterations <==

    Orbital Energies [Eh]
    ---------------------

    Doubly Occupied:

       1A    -11.218038     2A    -11.217259     3A    -11.216645
       4A    -11.216368     5A    -11.215053     6A    -11.214826
       7A     -1.059289     8A     -1.053604     9A     -0.924529
      10A     -0.923298    11A     -0.797900    12A     -0.794001
      13A     -0.631725    14A     -0.626106    15A     -0.600669
      16A     -0.592342    17A     -0.550803    18A     -0.545148
      19A     -0.534351    20A     -0.529035    21A     -0.475996
      22A     -0.473386    23A     -0.472829    24A     -0.467536
      25A     -0.466657    26A     -0.460877

    Virtual:

      27A      0.168959    28A      0.193037    29A      0.212183
      30A      0.214401    31A      0.225340    32A      0.240955
      33A      0.243302    34A      0.264346    35A      0.267457
      36A      0.269124    37A      0.283146    38A      0.298181
      39A      0.306185    40A      0.311539    41A      0.332795
      42A      0.358960    43A      0.367760    44A      0.394804
      45A      0.411628    46A      0.440653    47A      0.571006
      48A      0.582246    49A      0.587745    50A      0.604211
      51A      0.605746    52A      0.612240    53A      0.614582
      54A      0.632060    55A      0.666171    56A      0.742555
      57A      0.787334    58A      0.791226    59A      0.800258
      60A      0.823018    61A      0.839277    62A      0.866246
      63A      0.878079    64A      0.879524    65A      0.887561
      66A      0.895581    67A      0.899097    68A      0.900582
      69A      0.903049    70A      0.906323    71A      0.910909
      72A      0.918886    73A      0.929859    74A      0.934409
      75A      0.950887    76A      0.957206    77A      0.967512
      78A      0.984508    79A      0.998998    80A      1.016031
      81A      1.123655    82A      1.125203    83A      1.131523
      84A      1.148274    85A      1.189840    86A      1.239304
      87A      1.369274    88A      1.398671    89A      1.467334
      90A      1.474348    91A      1.484421    92A      1.495197
      93A      1.526377    94A      1.562525    95A      1.616846
      96A      1.644334    97A      1.671173    98A      1.678656
      99A      1.685066   100A      1.688442   101A      1.706706
     102A      1.716440   103A      1.843078   104A      1.853309
     105A      1.867657   106A      1.874730   107A      1.884868
     108A      1.890844   109A      1.911304   110A      1.921651
     111A      1.928019   112A      1.942492   113A      1.945035
     114A      1.950869   115A      1.963651   116A      1.969367
     117A      1.978122   118A      1.986732   119A      1.990936
     120A      1.997870   121A      2.000022   122A      2.017438
     123A      2.025292   124A      2.033607   125A      2.039439
     126A      2.069011   127A      2.137764   128A      2.151211
     129A      2.162460   130A      2.175175   131A      2.281502
     132A      2.291728   133A      2.304173   134A      2.307417
     135A      2.317942   136A      2.337123   137A      2.346359
     138A      2.355546   139A      2.477999   140A      2.506311
     141A      2.533882   142A      2.536055   143A      2.561804
     144A      2.595202   145A      2.611925   146A      2.625140
     147A      2.631448   148A      2.645679   149A      2.753042
     150A      2.754175   151A      2.770275   152A      2.771044
     153A      2.785900   154A      2.792890   155A      2.818091
     156A      2.836229   157A      2.906591   158A      2.920553
     159A      2.962465   160A      2.964916   161A      2.968502
     162A      2.971582   163A      3.058500   164A      3.092630

    Final Occupation by Irrep:
              A
    DOCC [    26 ]

  @RHF Final Energy:  -236.53845808057306

   => Energetics <=

    Nuclear Repulsion Energy =            238.6467140850167823
    One-Electron Energy =                -789.8138026555840270
    Two-Electron Energy =                 314.6286304899941797
    Total Energy =                       -236.5384580805730366

Computation Completed

Properties will be evaluated at   0.000000,   0.000000,   0.000000 [a0]

Properties computed using the SCF density matrix

  Nuclear Dipole Moment: [e a0]
     X:    -0.1679      Y:    -0.1609      Z:    -0.0128

  Electronic Dipole Moment: [e a0]
     X:     0.1881      Y:     0.1354      Z:     0.0203

  Dipole Moment: [e a0]
     X:     0.0202      Y:    -0.0256      Z:     0.0075     Total:     0.0334

  Dipole Moment: [D]
     X:     0.0513      Y:    -0.0649      Z:     0.0190     Total:     0.0849

*** tstop() called on ds3 at Sun Apr 26 23:59:50 2020
Module time:
	user time   =      26.51 seconds =       0.44 minutes
	system time =      10.25 seconds =       0.17 minutes
	total time  =        101 seconds =       1.68 minutes
Total time:
	user time   =      26.51 seconds =       0.44 minutes
	system time =      10.25 seconds =       0.17 minutes
	total time  =        101 seconds =       1.68 minutes
                                     G D M A

                                 by Anthony Stone

                           version 2.2.06, 22 June 2011

               Distributed Multipoles from Gaussian wavefunctions

Starting at 23:59:50 on 26 Apr 2020

Using SCF density matrix from file ./SSI/SSI-012GLU-017GLU-1-dimer.test.6149.fchk

                         Distributed Multipole Analysis

Standard DMA

Positions and radii in angstrom
Multipole moments in atomic units, ea_0^k for rank k

C          x =  0.774507  y =  1.714736  z = -0.660642 angstrom
           Maximum rank =  0   Radius =  0.650 angstrom
                   Q00  =  -0.083469

C          x =  0.347507  y =  1.147736  z = -2.010642 angstrom
           Maximum rank =  0   Radius =  0.650 angstrom
                   Q00  =  -0.245012

C          x =  0.793507  y =  3.242736  z = -0.647642 angstrom
           Maximum rank =  0   Radius =  0.650 angstrom
                   Q00  =  -0.236002

H          x =  0.085507  y =  1.373736  z =  0.110358 angstrom
           Maximum rank =  0   Radius =  0.325 angstrom
                   Q00  =   0.045942

H          x =  1.763507  y =  1.322736  z = -0.427642 angstrom
           Maximum rank =  0   Radius =  0.325 angstrom
                   Q00  =   0.046154

H          x =  0.291507  y =  0.061736  z = -1.923642 angstrom
           Maximum rank =  0   Radius =  0.325 angstrom
                   Q00  =   0.084835

H          x =  1.204507  y =  3.626736  z = -1.578642 angstrom
           Maximum rank =  0   Radius =  0.325 angstrom
                   Q00  =   0.074296

H          x = -0.234493  y =  3.605736  z = -0.563642 angstrom
           Maximum rank =  0   Radius =  0.325 angstrom
                   Q00  =   0.076906

H          x =  1.096527  y =  1.398415  z = -2.776228 angstrom
           Maximum rank =  0   Radius =  0.325 angstrom
                   Q00  =   0.079103

H          x = -0.655413  y =  1.518974  z = -2.268206 angstrom
           Maximum rank =  0   Radius =  0.325 angstrom
                   Q00  =   0.074189

H          x =  1.397877  y =  3.642983  z =  0.179729 angstrom
           Maximum rank =  0   Radius =  0.325 angstrom
                   Q00  =   0.083683

C          x = -0.489493  y = -1.663264  z =  0.704358 angstrom
           Maximum rank =  0   Radius =  0.650 angstrom
                   Q00  =  -0.083549

C          x =  0.268507  y = -1.830264  z =  2.009358 angstrom
           Maximum rank =  0   Radius =  0.650 angstrom
                   Q00  =  -0.235225

C          x = -1.679493  y = -2.597264  z =  0.606358 angstrom
           Maximum rank =  0   Radius =  0.650 angstrom
                   Q00  =  -0.236229

H          x = -0.837493  y = -0.635264  z =  0.613358 angstrom
           Maximum rank =  0   Radius =  0.325 angstrom
                   Q00  =   0.043466

H          x =  0.200507  y = -1.872264  z = -0.112642 angstrom
           Maximum rank =  0   Radius =  0.325 angstrom
                   Q00  =   0.044200

H          x =  0.558507  y = -2.874264  z =  2.088358 angstrom
           Maximum rank =  0   Radius =  0.325 angstrom
                   Q00  =   0.073732

H          x = -1.310493  y = -3.624264  z =  0.647358 angstrom
           Maximum rank =  0   Radius =  0.325 angstrom
                   Q00  =   0.071351

H          x = -2.318493  y = -2.462264  z =  1.471358 angstrom
           Maximum rank =  0   Radius =  0.325 angstrom
                   Q00  =   0.076068

H          x = -0.371393  y = -1.571437  z =  2.865828 angstrom
           Maximum rank =  0   Radius =  0.325 angstrom
                   Q00  =   0.076099

H          x =  1.186537  y = -1.224507  z =  1.992728 angstrom
           Maximum rank =  0   Radius =  0.325 angstrom
                   Q00  =   0.084320

H          x = -2.236313  y = -2.458424  z = -0.332087 angstrom
           Maximum rank =  0   Radius =  0.325 angstrom
                   Q00  =   0.085142

Total multipoles referred to origin at
           x =   0.000000,  y =    0.000000,  z =    0.000000 angstrom
                   Q00  =  -0.000000

Finished at 23:59:50 on 26 Apr 2020

  DMA results are available in the Python driver through the
	  variable('DMA DISTRIBUTED MULTIPOLES')
  and
	  variable('DMA TOTAL MULTIPOLES')
  commands.

    Psi4 stopped on: Sunday, 26 April 2020 11:59PM
    Psi4 wall time for execution: 0:01:40.89

*** Psi4 exiting successfully. Buy a developer a beer!
