                               Psi4 1.3.2 release

  ==> Input File <==

--------------------------------------------------------------------------
import numpy as np
set {scf_type pk
basis cc-pvdz
d_convergence 10
gdma_switch   0
gdma_limit    0
gdma_origin   [ 0.0,  0.0,  0.0 ]
}
molecule test {
    units Angstrom
    0 1
    --
    0 1
    C                1.620315545312021    -1.424144828834930     0.012429148722817
    C                2.812315545312021    -2.365144828834930    -0.255570851277183
    H                1.680315545312021    -1.020144828834930     1.021429148722817
    H                1.649315545312021    -0.603144828834930    -0.701570851277183
    H                0.680315545312021    -1.963144828834930    -0.112570851277183
    H                2.673315545312021    -2.847144828834930    -1.219570851277183
    H                2.915185545312021    -3.139553828834930     0.518839148722817
    H                3.750385545312021    -1.792237828834930    -0.297980851277183
    C               -1.297684454687979     0.854855171165070     0.341429148722817
    C               -2.363684454687979     1.773855171165070     0.988429148722817
    C               -0.872684454687979     1.224855171165070    -1.066570851277183
    H               -0.401684454687979     0.920855171165070     0.960429148722817
    H               -1.585684454687979    -0.191144828834930     0.420429148722817
    H               -3.232684454687979     1.848855171165070     0.335429148722817
    H               -0.440684454687979     2.225855171165070    -1.079570851277183
    H               -0.119684454687979     0.515855171165070    -1.405570851277183
    H               -1.938964454687979     2.775947171165070     1.147889148722817
    H               -2.696134454687979     1.317633171165070     1.932539148722817
    H               -1.725694454687979     1.186193171165070    -1.760020851277183

}
e, wfn = energy('scf', return_wfn=True)
gdma(wfn)
dmavals = variable('DMA DISTRIBUTED MULTIPOLES')
charges = np.array(dmavals)
print(charges)
np.save('SSI-005LEU-032MET-1-dimer.npy', np.array(charges))--------------------------------------------------------------------------

*** tstart() called on ds3
*** at Tue Apr 28 13:38:39 2020

   => Loading Basis Set <=

    Name: CC-PVDZ
    Role: ORBITAL
    Keyword: BASIS
    atoms 1-2, 9-11  entry C          line   138 file /theoryfs2/ds/metcalf/miniconda2/envs/tf2gpu/share/psi4/basis/cc-pvdz.gbs
    atoms 3-8, 12-19 entry H          line    22 file /theoryfs2/ds/metcalf/miniconda2/envs/tf2gpu/share/psi4/basis/cc-pvdz.gbs

         ---------------------------------------------------------
                                   SCF
               by Justin Turney, Rob Parrish, Andy Simmonett
                          and Daniel G. A. Smith
                              RHF Reference
                        1 Threads,    500 MiB Core
         ---------------------------------------------------------

  ==> Geometry <==

    Molecular point group: c1
    Full point group: C1

    Geometry (in Angstrom), charge = 0, multiplicity = 1:

       Center              X                  Y                   Z               Mass
    ------------   -----------------  -----------------  -----------------  -----------------
         C            1.620315545312    -1.424144828835     0.012429148723    12.000000000000
         C            2.812315545312    -2.365144828835    -0.255570851277    12.000000000000
         H            1.680315545312    -1.020144828835     1.021429148723     1.007825032230
         H            1.649315545312    -0.603144828835    -0.701570851277     1.007825032230
         H            0.680315545312    -1.963144828835    -0.112570851277     1.007825032230
         H            2.673315545312    -2.847144828835    -1.219570851277     1.007825032230
         H            2.915185545312    -3.139553828835     0.518839148723     1.007825032230
         H            3.750385545312    -1.792237828835    -0.297980851277     1.007825032230
         C           -1.297684454688     0.854855171165     0.341429148723    12.000000000000
         C           -2.363684454688     1.773855171165     0.988429148723    12.000000000000
         C           -0.872684454688     1.224855171165    -1.066570851277    12.000000000000
         H           -0.401684454688     0.920855171165     0.960429148723     1.007825032230
         H           -1.585684454688    -0.191144828835     0.420429148723     1.007825032230
         H           -3.232684454688     1.848855171165     0.335429148723     1.007825032230
         H           -0.440684454688     2.225855171165    -1.079570851277     1.007825032230
         H           -0.119684454688     0.515855171165    -1.405570851277     1.007825032230
         H           -1.938964454688     2.775947171165     1.147889148723     1.007825032230
         H           -2.696134454688     1.317633171165     1.932539148723     1.007825032230
         H           -1.725694454688     1.186193171165    -1.760020851277     1.007825032230

  Running in c1 symmetry.

  Rotational constants: A =      0.33342  B =      0.03436  C =      0.03211 [cm^-1]
  Rotational constants: A =   9995.67042  B =   1029.95579  C =    962.67945 [MHz]
  Nuclear repulsion =  176.136821604006002

  Charge       = 0
  Multiplicity = 1
  Electrons    = 44
  Nalpha       = 22
  Nbeta        = 22

  ==> Algorithm <==

  SCF Algorithm Type is PK.
  DIIS enabled.
  MOM disabled.
  Fractional occupation disabled.
  Guess Type is SAD.
  Energy threshold   = 1.00e-06
  Density threshold  = 1.00e-10
  Integral threshold = 0.00e+00

  ==> Primary Basis <==

  Basis Set: CC-PVDZ
    Blend: CC-PVDZ
    Number of shells: 72
    Number of basis function: 140
    Number of Cartesian functions: 145
    Spherical Harmonics?: true
    Max angular momentum: 2

  ==> Pre-Iterations <==

   -------------------------------------------------------
    Irrep   Nso     Nmo     Nalpha   Nbeta   Ndocc  Nsocc
   -------------------------------------------------------
     A        140     140       0       0       0       0
   -------------------------------------------------------
    Total     140     140      22      22      22       0
   -------------------------------------------------------

  ==> Integral Setup <==

  Using integral reordering PK algorithm.
  Sizing the integral batches needed.
  Building batch lookup table.
   Calculation information:
      Number of atoms:                  19
      Number of AO shells:              72
      Number of primitives:            180
      Number of atomic orbitals:       145
      Number of basis functions:       140

      Integral cutoff                 1.00e-12
      Number of threads:                 1

	Batch   1 pq = [       0,    9405] index = [             0,44231715] size =     44231715
	Batch   2 pq = [    9405,    9870] index = [      44231715,48713385] size =      4481670
  Task number: 5
  Buffer size: 11059200
  Buffer per thread: 2
  We computed 2752015 shell quartets total.
  Whereas there are 3454506 unique shell quartets.

  ==> DiskJK: Disk-Based J/K Matrices <==

    J tasked:                  Yes
    K tasked:                  Yes
    wK tasked:                  No
    Memory [MiB]:              375
    Schwarz Cutoff:          1E-12

    OpenMP threads:              1

  Minimum eigenvalue in the overlap matrix is 5.3910321947E-03.
  Using Symmetric Orthogonalization.

  SCF Guess: Superposition of Atomic Densities via on-the-fly atomic UHF.

  ==> Iterations <==

                        Total Energy        Delta E     RMS |[F,P]|

   @RHF iter SAD:  -196.32527260992754   -1.96325e+02   0.00000e+00
   @RHF iter   1:  -197.31335299806474   -9.88080e-01   3.77100e-03 DIIS
   @RHF iter   2:  -197.47173989879084   -1.58387e-01   1.61606e-03 DIIS
   @RHF iter   3:  -197.49941002156572   -2.76701e-02   3.24958e-04 DIIS
   @RHF iter   4:  -197.50162088197126   -2.21086e-03   5.04067e-05 DIIS
   @RHF iter   5:  -197.50166170296097   -4.08210e-05   1.50877e-05 DIIS
   @RHF iter   6:  -197.50166521158505   -3.50862e-06   2.50279e-06 DIIS
   @RHF iter   7:  -197.50166532478303   -1.13198e-07   4.90083e-07 DIIS
   @RHF iter   8:  -197.50166532998963   -5.20660e-09   1.32659e-07 DIIS
   @RHF iter   9:  -197.50166533035119   -3.61553e-10   4.24467e-08 DIIS
   @RHF iter  10:  -197.50166533039462   -4.34284e-11   8.46470e-09 DIIS
   @RHF iter  11:  -197.50166533039567   -1.05160e-12   1.51547e-09 DIIS
   @RHF iter  12:  -197.50166533039607   -3.97904e-13   3.27470e-10 DIIS
   @RHF iter  13:  -197.50166533039697   -9.09495e-13   9.75358e-11 DIIS
  Energy and wave function converged.

  ==> Post-Iterations <==

    Orbital Energies [Eh]
    ---------------------

    Doubly Occupied:

       1A    -11.220079     2A    -11.218683     3A    -11.218613
       4A    -11.217830     5A    -11.214516     6A     -1.049587
       7A     -1.015459     8A     -0.925160     9A     -0.839882
      10A     -0.795713    11A     -0.620405    12A     -0.600217
      13A     -0.596183    14A     -0.590245    15A     -0.550518
      16A     -0.533476    17A     -0.498526    18A     -0.489712
      19A     -0.487131    20A     -0.475937    21A     -0.465257
      22A     -0.458853

    Virtual:

      23A      0.173636    24A      0.193353    25A      0.217566
      26A      0.225929    27A      0.227944    28A      0.252376
      29A      0.254427    30A      0.272412    31A      0.273808
      32A      0.284888    33A      0.299724    34A      0.305791
      35A      0.324756    36A      0.350326    37A      0.357980
      38A      0.400862    39A      0.434227    40A      0.571869
      41A      0.579911    42A      0.592162    43A      0.597574
      44A      0.602378    45A      0.627238    46A      0.628966
      47A      0.696848    48A      0.710471    49A      0.736963
      50A      0.777621    51A      0.806594    52A      0.826954
      53A      0.876253    54A      0.885380    55A      0.890625
      56A      0.894974    57A      0.895202    58A      0.897356
      59A      0.900842    60A      0.912398    61A      0.915763
      62A      0.923047    63A      0.936929    64A      0.946429
      65A      0.962229    66A      0.969291    67A      0.993630
      68A      1.020243    69A      1.122615    70A      1.125248
      71A      1.128836    72A      1.145820    73A      1.198556
      74A      1.266910    75A      1.377534    76A      1.464833
      77A      1.474070    78A      1.476156    79A      1.483566
      80A      1.533024    81A      1.587407    82A      1.633377
      83A      1.672225    84A      1.683774    85A      1.689100
      86A      1.693433    87A      1.700706    88A      1.849164
      89A      1.851956    90A      1.870095    91A      1.872923
      92A      1.883785    93A      1.906824    94A      1.915555
      95A      1.924912    96A      1.931638    97A      1.941619
      98A      1.944781    99A      1.948188   100A      1.957093
     101A      1.969520   102A      1.979125   103A      1.988698
     104A      1.998889   105A      2.023801   106A      2.037700
     107A      2.098176   108A      2.101057   109A      2.114767
     110A      2.148775   111A      2.156276   112A      2.281480
     113A      2.297532   114A      2.307350   115A      2.339123
     116A      2.345230   117A      2.404448   118A      2.452652
     119A      2.460220   120A      2.463585   121A      2.543321
     122A      2.559485   123A      2.571879   124A      2.583761
     125A      2.620042   126A      2.630243   127A      2.750781
     128A      2.759402   129A      2.764319   130A      2.780183
     131A      2.791153   132A      2.827423   133A      2.851196
     134A      2.861436   135A      2.926718   136A      2.945692
     137A      2.952059   138A      2.964161   139A      2.969928
     140A      3.075093

    Final Occupation by Irrep:
              A
    DOCC [    22 ]

  @RHF Final Energy:  -197.50166533039697

   => Energetics <=

    Nuclear Repulsion Energy =            176.1368216040060020
    One-Electron Energy =                -613.1130057417365151
    Two-Electron Energy =                 239.4745188073335385
    Total Energy =                       -197.5016653303969747

Computation Completed

Properties will be evaluated at   0.000000,   0.000000,   0.000000 [a0]

Properties computed using the SCF density matrix

  Nuclear Dipole Moment: [e a0]
     X:     1.1321      Y:    -0.7175      Z:    -0.2249

  Electronic Dipole Moment: [e a0]
     X:    -1.0965      Y:     0.6803      Z:     0.2354

  Dipole Moment: [e a0]
     X:     0.0356      Y:    -0.0372      Z:     0.0106     Total:     0.0526

  Dipole Moment: [D]
     X:     0.0905      Y:    -0.0945      Z:     0.0269     Total:     0.1336

*** tstop() called on ds3 at Tue Apr 28 13:39:08 2020
Module time:
	user time   =      14.74 seconds =       0.25 minutes
	system time =       6.13 seconds =       0.10 minutes
	total time  =         29 seconds =       0.48 minutes
Total time:
	user time   =      14.74 seconds =       0.25 minutes
	system time =       6.13 seconds =       0.10 minutes
	total time  =         29 seconds =       0.48 minutes
                                     G D M A

                                 by Anthony Stone

                           version 2.2.06, 22 June 2011

               Distributed Multipoles from Gaussian wavefunctions

Starting at 13:39:8 on 28 Apr 2020

Using SCF density matrix from file ./SSI/SSI-005LEU-032MET-1-dimer.test.16462.fchk

                         Distributed Multipole Analysis

Standard DMA

Positions and radii in angstrom
Multipole moments in atomic units, ea_0^k for rank k

C          x =  1.620316  y = -1.424145  z =  0.012429 angstrom
           Maximum rank =  0   Radius =  0.650 angstrom
                   Q00  =  -0.244650

C          x =  2.812316  y = -2.365145  z = -0.255571 angstrom
           Maximum rank =  0   Radius =  0.650 angstrom
                   Q00  =  -0.240944

H          x =  1.680316  y = -1.020145  z =  1.021429 angstrom
           Maximum rank =  0   Radius =  0.325 angstrom
                   Q00  =   0.082965

H          x =  1.649316  y = -0.603145  z = -0.701571 angstrom
           Maximum rank =  0   Radius =  0.325 angstrom
                   Q00  =   0.080859

H          x =  0.680316  y = -1.963145  z = -0.112571 angstrom
           Maximum rank =  0   Radius =  0.325 angstrom
                   Q00  =   0.080568

H          x =  2.673316  y = -2.847145  z = -1.219571 angstrom
           Maximum rank =  0   Radius =  0.325 angstrom
                   Q00  =   0.080743

H          x =  2.915186  y = -3.139554  z =  0.518839 angstrom
           Maximum rank =  0   Radius =  0.325 angstrom
                   Q00  =   0.081304

H          x =  3.750386  y = -1.792238  z = -0.297981 angstrom
           Maximum rank =  0   Radius =  0.325 angstrom
                   Q00  =   0.078988

C          x = -1.297684  y =  0.854855  z =  0.341429 angstrom
           Maximum rank =  0   Radius =  0.650 angstrom
                   Q00  =  -0.088949

C          x = -2.363684  y =  1.773855  z =  0.988429 angstrom
           Maximum rank =  0   Radius =  0.650 angstrom
                   Q00  =  -0.240398

C          x = -0.872684  y =  1.224855  z = -1.066571 angstrom
           Maximum rank =  0   Radius =  0.650 angstrom
                   Q00  =  -0.240893

H          x = -0.401684  y =  0.920855  z =  0.960429 angstrom
           Maximum rank =  0   Radius =  0.325 angstrom
                   Q00  =   0.038943

H          x = -1.585684  y = -0.191145  z =  0.420429 angstrom
           Maximum rank =  0   Radius =  0.325 angstrom
                   Q00  =   0.050263

H          x = -3.232684  y =  1.848855  z =  0.335429 angstrom
           Maximum rank =  0   Radius =  0.325 angstrom
                   Q00  =   0.077068

H          x = -0.440684  y =  2.225855  z = -1.079571 angstrom
           Maximum rank =  0   Radius =  0.325 angstrom
                   Q00  =   0.076707

H          x = -0.119684  y =  0.515855  z = -1.405571 angstrom
           Maximum rank =  0   Radius =  0.325 angstrom
                   Q00  =   0.088300

H          x = -1.938964  y =  2.775947  z =  1.147889 angstrom
           Maximum rank =  0   Radius =  0.325 angstrom
                   Q00  =   0.079841

H          x = -2.696134  y =  1.317633  z =  1.932539 angstrom
           Maximum rank =  0   Radius =  0.325 angstrom
                   Q00  =   0.086203

H          x = -1.725694  y =  1.186193  z = -1.760021 angstrom
           Maximum rank =  0   Radius =  0.325 angstrom
                   Q00  =   0.073081

Total multipoles referred to origin at
           x =   0.000000,  y =    0.000000,  z =    0.000000 angstrom
                   Q00  =  -0.000000

Finished at 13:39:8 on 28 Apr 2020

  DMA results are available in the Python driver through the
	  variable('DMA DISTRIBUTED MULTIPOLES')
  and
	  variable('DMA TOTAL MULTIPOLES')
  commands.

    Psi4 stopped on: Tuesday, 28 April 2020 01:39PM
    Psi4 wall time for execution: 0:00:28.84

*** Psi4 exiting successfully. Buy a developer a beer!
