                               Psi4 1.3.2 release

  ==> Input File <==

--------------------------------------------------------------------------
import numpy as np
set {scf_type pk
basis cc-pvdz
d_convergence 10
gdma_switch   0
gdma_limit    0
gdma_origin   [ 0.0,  0.0,  0.0 ]
}
molecule test {
    units Angstrom
    0 1
    --
    0 1
    C               -1.247535855341614    -1.316121564854983     3.559682704032379
    C               -2.306535855341614    -2.123121564854983     2.803682704032379
    H               -0.311535855341614    -1.870121564854983     3.616682704032379
    H               -1.072535855341614    -0.372121564854983     3.043682704032379
    H               -1.611535855341614    -1.112121564854983     4.565682704032379
    H               -1.932535855341614    -2.341121564854983     1.803682704032379
    H               -2.512132855341613    -3.062586564854983     3.337662704032379
    H               -3.214158855341613    -1.510561564854983     2.698822704032379
    C                0.538464144658386     2.115878435145017    -2.929317295967621
    C               -0.577535855341614     0.004878435145017     0.046682704032379
    C               -0.615535855341614     0.908878435145017    -1.062317295967621
    C                0.627464144658386    -0.631121564854983     0.411682704032379
    C                0.555464144658386     1.176878435145017    -1.766317295967621
    C                1.800464144658386    -0.364121564854983    -0.316317295967621
    C                1.740464144658386     0.518878435145017    -1.404317295967621
    H               -1.483535855341614    -0.197121564854983     0.598682704032379
    H               -1.545535855341614     1.387878435145017    -1.339317295967621
    H                0.652464144658386    -1.318121564854983     1.246682704032379
    H                2.732464144658386    -0.846121564854983    -0.049317295967621
    H               -0.470535855341614     2.133878435145017    -3.343317295967621
    H                1.173464144658386     1.783878435145017    -3.725317295967621
    H                2.647464144658386     0.710878435145017    -1.959317295967621
    H                0.814058244658386     3.149718435145017    -2.673927295967621

}
e, wfn = energy('scf', return_wfn=True)
gdma(wfn)
dmavals = variable('DMA DISTRIBUTED MULTIPOLES')
charges = np.array(dmavals)
print(charges)
np.save('SSI-129LEU-192PHE-1-dimer.npy', np.array(charges))--------------------------------------------------------------------------

*** tstart() called on ds3
*** at Mon Apr 27 10:03:48 2020

   => Loading Basis Set <=

    Name: CC-PVDZ
    Role: ORBITAL
    Keyword: BASIS
    atoms 1-2, 9-15  entry C          line   138 file /theoryfs2/ds/metcalf/miniconda2/envs/tf2gpu/share/psi4/basis/cc-pvdz.gbs
    atoms 3-8, 16-23 entry H          line    22 file /theoryfs2/ds/metcalf/miniconda2/envs/tf2gpu/share/psi4/basis/cc-pvdz.gbs

         ---------------------------------------------------------
                                   SCF
               by Justin Turney, Rob Parrish, Andy Simmonett
                          and Daniel G. A. Smith
                              RHF Reference
                        1 Threads,    500 MiB Core
         ---------------------------------------------------------

  ==> Geometry <==

    Molecular point group: c1
    Full point group: C1

    Geometry (in Angstrom), charge = 0, multiplicity = 1:

       Center              X                  Y                   Z               Mass
    ------------   -----------------  -----------------  -----------------  -----------------
         C           -1.247535855342    -1.316121564855     3.559682704032    12.000000000000
         C           -2.306535855342    -2.123121564855     2.803682704032    12.000000000000
         H           -0.311535855342    -1.870121564855     3.616682704032     1.007825032230
         H           -1.072535855342    -0.372121564855     3.043682704032     1.007825032230
         H           -1.611535855342    -1.112121564855     4.565682704032     1.007825032230
         H           -1.932535855342    -2.341121564855     1.803682704032     1.007825032230
         H           -2.512132855342    -3.062586564855     3.337662704032     1.007825032230
         H           -3.214158855342    -1.510561564855     2.698822704032     1.007825032230
         C            0.538464144658     2.115878435145    -2.929317295968    12.000000000000
         C           -0.577535855342     0.004878435145     0.046682704032    12.000000000000
         C           -0.615535855342     0.908878435145    -1.062317295968    12.000000000000
         C            0.627464144658    -0.631121564855     0.411682704032    12.000000000000
         C            0.555464144658     1.176878435145    -1.766317295968    12.000000000000
         C            1.800464144658    -0.364121564855    -0.316317295968    12.000000000000
         C            1.740464144658     0.518878435145    -1.404317295968    12.000000000000
         H           -1.483535855342    -0.197121564855     0.598682704032     1.007825032230
         H           -1.545535855342     1.387878435145    -1.339317295968     1.007825032230
         H            0.652464144658    -1.318121564855     1.246682704032     1.007825032230
         H            2.732464144658    -0.846121564855    -0.049317295968     1.007825032230
         H           -0.470535855342     2.133878435145    -3.343317295968     1.007825032230
         H            1.173464144658     1.783878435145    -3.725317295968     1.007825032230
         H            2.647464144658     0.710878435145    -1.959317295968     1.007825032230
         H            0.814058244658     3.149718435145    -2.673927295968     1.007825032230

  Running in c1 symmetry.

  Rotational constants: A =      0.11941  B =      0.01996  C =      0.01778 [cm^-1]
  Rotational constants: A =   3579.70059  B =    598.29652  C =    533.10224 [MHz]
  Nuclear repulsion =  401.859072598767170

  Charge       = 0
  Multiplicity = 1
  Electrons    = 68
  Nalpha       = 34
  Nbeta        = 34

  ==> Algorithm <==

  SCF Algorithm Type is PK.
  DIIS enabled.
  MOM disabled.
  Fractional occupation disabled.
  Guess Type is SAD.
  Energy threshold   = 1.00e-06
  Density threshold  = 1.00e-10
  Integral threshold = 0.00e+00

  ==> Primary Basis <==

  Basis Set: CC-PVDZ
    Blend: CC-PVDZ
    Number of shells: 96
    Number of basis function: 196
    Number of Cartesian functions: 205
    Spherical Harmonics?: true
    Max angular momentum: 2

  ==> Pre-Iterations <==

   -------------------------------------------------------
    Irrep   Nso     Nmo     Nalpha   Nbeta   Ndocc  Nsocc
   -------------------------------------------------------
     A        196     196       0       0       0       0
   -------------------------------------------------------
    Total     196     196      34      34      34       0
   -------------------------------------------------------

  ==> Integral Setup <==

  Using integral reordering PK algorithm.
  Sizing the integral batches needed.
  Building batch lookup table.
   Calculation information:
      Number of atoms:                  23
      Number of AO shells:              96
      Number of primitives:            268
      Number of atomic orbitals:       205
      Number of basis functions:       196

      Integral cutoff                 1.00e-12
      Number of threads:                 1

	Batch   1 pq = [       0,    9405] index = [             0,44231715] size =     44231715
	Batch   2 pq = [    9405,   13301] index = [      44231715,88464951] size =     44233236
	Batch   3 pq = [   13301,   16290] index = [      88464951,132690195] size =     44225244
	Batch   4 pq = [   16290,   18810] index = [     132690195,176917455] size =     44227260
	Batch   5 pq = [   18810,   19306] index = [     176917455,186370471] size =      9453016
  Task number: 17
  Buffer size: 11059200
  Buffer per thread: 2
  We computed 8712844 shell quartets total.
  Whereas there are 10841496 unique shell quartets.

  ==> DiskJK: Disk-Based J/K Matrices <==

    J tasked:                  Yes
    K tasked:                  Yes
    wK tasked:                  No
    Memory [MiB]:              375
    Schwarz Cutoff:          1E-12

    OpenMP threads:              1

  Minimum eigenvalue in the overlap matrix is 3.3613728118E-04.
  Using Symmetric Orthogonalization.

  SCF Guess: Superposition of Atomic Densities via on-the-fly atomic UHF.

  ==> Iterations <==

                        Total Energy        Delta E     RMS |[F,P]|

   @RHF iter SAD:  -347.75344718865506   -3.47753e+02   0.00000e+00
   @RHF iter   1:  -348.76870713570912   -1.01526e+00   2.85023e-03 DIIS
   @RHF iter   2:  -348.95801007059345   -1.89303e-01   1.16333e-03 DIIS
   @RHF iter   3:  -348.98662136776500   -2.86113e-02   2.59588e-04 DIIS
   @RHF iter   4:  -348.98908000086766   -2.45863e-03   6.31843e-05 DIIS
   @RHF iter   5:  -348.98917658468633   -9.65838e-05   2.05759e-05 DIIS
   @RHF iter   6:  -348.98918723919383   -1.06545e-05   5.00548e-06 DIIS
   @RHF iter   7:  -348.98918801781389   -7.78620e-07   1.26168e-06 DIIS
   @RHF iter   8:  -348.98918809885214   -8.10383e-08   4.44223e-07 DIIS
   @RHF iter   9:  -348.98918811856271   -1.97106e-08   2.25839e-07 DIIS
   @RHF iter  10:  -348.98918812460306   -6.04035e-09   1.02817e-07 DIIS
   @RHF iter  11:  -348.98918812619104   -1.58798e-09   3.53487e-08 DIIS
   @RHF iter  12:  -348.98918812630313   -1.12095e-10   1.46083e-08 DIIS
   @RHF iter  13:  -348.98918812631211   -8.98126e-12   4.26693e-09 DIIS
   @RHF iter  14:  -348.98918812631666   -4.54747e-12   1.23128e-09 DIIS
   @RHF iter  15:  -348.98918812631490    1.76215e-12   3.89874e-10 DIIS
   @RHF iter  16:  -348.98918812631689   -1.98952e-12   1.26673e-10 DIIS
   @RHF iter  17:  -348.98918812631547    1.42109e-12   6.26357e-11 DIIS
  Energy and wave function converged.

  ==> Post-Iterations <==

    Orbital Energies [Eh]
    ---------------------

    Doubly Occupied:

       1A    -11.242120     2A    -11.242017     3A    -11.239562
       4A    -11.236286     5A    -11.236189     6A    -11.232798
       7A    -11.226447     8A    -11.220869     9A    -11.217379
      10A     -1.144937    11A     -1.043611    12A     -1.020235
      13A     -1.003989    14A     -0.931283    15A     -0.837133
      16A     -0.824560    17A     -0.793053    18A     -0.688152
      19A     -0.635545    20A     -0.626735    21A     -0.602253
      22A     -0.600349    23A     -0.578845    24A     -0.576263
      25A     -0.563611    26A     -0.532581    27A     -0.498099
      28A     -0.490650    29A     -0.488462    30A     -0.486286
      31A     -0.481135    32A     -0.479091    33A     -0.327573
      34A     -0.320923

    Virtual:

      35A      0.129233    36A      0.138896    37A      0.174662
      38A      0.192645    39A      0.210084    40A      0.222168
      41A      0.231406    42A      0.245967    43A      0.254518
      44A      0.257621    45A      0.269885    46A      0.275698
      47A      0.283964    48A      0.287037    49A      0.325558
      50A      0.331242    51A      0.359259    52A      0.381227
      53A      0.391345    54A      0.444678    55A      0.463051
      56A      0.476947    57A      0.488167    58A      0.556680
      59A      0.593085    60A      0.603194    61A      0.608109
      62A      0.636615    63A      0.644546    64A      0.666033
      65A      0.677633    66A      0.694705    67A      0.710671
      68A      0.715260    69A      0.730921    70A      0.739862
      71A      0.744646    72A      0.748870    73A      0.763077
      74A      0.775811    75A      0.787012    76A      0.820952
      77A      0.835308    78A      0.846565    79A      0.854118
      80A      0.866333    81A      0.876532    82A      0.878883
      83A      0.881185    84A      0.898126    85A      0.902183
      86A      0.915627    87A      0.923205    88A      0.925964
      89A      0.928978    90A      0.947571    91A      0.954733
      92A      0.971670    93A      0.987240    94A      1.004042
      95A      1.028792    96A      1.055721    97A      1.102428
      98A      1.127145    99A      1.138127   100A      1.143507
     101A      1.156688   102A      1.173684   103A      1.198601
     104A      1.220770   105A      1.240846   106A      1.245934
     107A      1.249996   108A      1.277990   109A      1.298533
     110A      1.303833   111A      1.315790   112A      1.321941
     113A      1.412303   114A      1.472033   115A      1.487897
     116A      1.499437   117A      1.525536   118A      1.553812
     119A      1.583341   120A      1.613782   121A      1.679067
     122A      1.685072   123A      1.695610   124A      1.709977
     125A      1.732151   126A      1.747634   127A      1.751671
     128A      1.784644   129A      1.800523   130A      1.855955
     131A      1.867118   132A      1.872042   133A      1.873074
     134A      1.887174   135A      1.901434   136A      1.909273
     137A      1.914154   138A      1.930786   139A      1.939531
     140A      1.944652   141A      1.948417   142A      1.951160
     143A      1.959153   144A      1.968920   145A      1.978047
     146A      1.988575   147A      1.993342   148A      2.005149
     149A      2.024048   150A      2.051575   151A      2.061441
     152A      2.093817   153A      2.109429   154A      2.120228
     155A      2.146266   156A      2.154047   157A      2.172130
     158A      2.183358   159A      2.194499   160A      2.246870
     161A      2.265386   162A      2.284653   163A      2.291799
     164A      2.304871   165A      2.315633   166A      2.326058
     167A      2.348918   168A      2.452147   169A      2.459265
     170A      2.462825   171A      2.473851   172A      2.486940
     173A      2.535614   174A      2.579336   175A      2.586876
     176A      2.617765   177A      2.733184   178A      2.742145
     179A      2.763275   180A      2.772533   181A      2.782607
     182A      2.801582   183A      2.804336   184A      2.845783
     185A      2.847459   186A      2.859763   187A      2.885709
     188A      2.951526   189A      2.956309   190A      2.969620
     191A      3.003368   192A      3.010016   193A      3.145543
     194A      3.182801   195A      3.272032   196A      3.913689

    Final Occupation by Irrep:
              A
    DOCC [    34 ]

  @RHF Final Energy:  -348.98918812631547

   => Energetics <=

    Nuclear Repulsion Energy =            401.8590725987671703
    One-Electron Energy =               -1266.3584877881112334
    Two-Electron Energy =                 515.5102270630286512
    Total Energy =                       -348.9891881263154119

Computation Completed

Properties will be evaluated at   0.000000,   0.000000,   0.000000 [a0]

Properties computed using the SCF density matrix

  Nuclear Dipole Moment: [e a0]
     X:    -5.7506      Y:    -3.2472      Z:     7.3320

  Electronic Dipole Moment: [e a0]
     X:     5.7692      Y:     3.3345      Z:    -7.4422

  Dipole Moment: [e a0]
     X:     0.0187      Y:     0.0873      Z:    -0.1102     Total:     0.1419

  Dipole Moment: [D]
     X:     0.0475      Y:     0.2220      Z:    -0.2801     Total:     0.3606

*** tstop() called on ds3 at Mon Apr 27 10:08:04 2020
Module time:
	user time   =      61.59 seconds =       1.03 minutes
	system time =      24.85 seconds =       0.41 minutes
	total time  =        256 seconds =       4.27 minutes
Total time:
	user time   =      61.59 seconds =       1.03 minutes
	system time =      24.85 seconds =       0.41 minutes
	total time  =        256 seconds =       4.27 minutes
                                     G D M A

                                 by Anthony Stone

                           version 2.2.06, 22 June 2011

               Distributed Multipoles from Gaussian wavefunctions

Starting at 10:8:4 on 27 Apr 2020

Using SCF density matrix from file ./SSI/SSI-129LEU-192PHE-1-dimer.test.2295.fchk

                         Distributed Multipole Analysis

Standard DMA

Positions and radii in angstrom
Multipole moments in atomic units, ea_0^k for rank k

C          x = -1.247536  y = -1.316122  z =  3.559683 angstrom
           Maximum rank =  0   Radius =  0.650 angstrom
                   Q00  =  -0.237640

C          x = -2.306536  y = -2.123122  z =  2.803683 angstrom
           Maximum rank =  0   Radius =  0.650 angstrom
                   Q00  =  -0.240267

H          x = -0.311536  y = -1.870122  z =  3.616683 angstrom
           Maximum rank =  0   Radius =  0.325 angstrom
                   Q00  =   0.077854

H          x = -1.072536  y = -0.372122  z =  3.043683 angstrom
           Maximum rank =  0   Radius =  0.325 angstrom
                   Q00  =   0.081263

H          x = -1.611536  y = -1.112122  z =  4.565683 angstrom
           Maximum rank =  0   Radius =  0.325 angstrom
                   Q00  =   0.080510

H          x = -1.932536  y = -2.341122  z =  1.803683 angstrom
           Maximum rank =  0   Radius =  0.325 angstrom
                   Q00  =   0.077428

H          x = -2.512133  y = -3.062587  z =  3.337663 angstrom
           Maximum rank =  0   Radius =  0.325 angstrom
                   Q00  =   0.082561

H          x = -3.214159  y = -1.510562  z =  2.698823 angstrom
           Maximum rank =  0   Radius =  0.325 angstrom
                   Q00  =   0.077888

C          x =  0.538464  y =  2.115878  z = -2.929317 angstrom
           Maximum rank =  0   Radius =  0.650 angstrom
                   Q00  =  -0.205399

C          x = -0.577536  y =  0.004878  z =  0.046683 angstrom
           Maximum rank =  0   Radius =  0.650 angstrom
                   Q00  =  -0.082860

C          x = -0.615536  y =  0.908878  z = -1.062317 angstrom
           Maximum rank =  0   Radius =  0.650 angstrom
                   Q00  =  -0.084256

C          x =  0.627464  y = -0.631122  z =  0.411683 angstrom
           Maximum rank =  0   Radius =  0.650 angstrom
                   Q00  =  -0.091893

C          x =  0.555464  y =  1.176878  z = -1.766317 angstrom
           Maximum rank =  0   Radius =  0.650 angstrom
                   Q00  =  -0.094234

C          x =  1.800464  y = -0.364122  z = -0.316317 angstrom
           Maximum rank =  0   Radius =  0.650 angstrom
                   Q00  =  -0.074164

C          x =  1.740464  y =  0.518878  z = -1.404317 angstrom
           Maximum rank =  0   Radius =  0.650 angstrom
                   Q00  =   0.002410

H          x = -1.483536  y = -0.197122  z =  0.598683 angstrom
           Maximum rank =  0   Radius =  0.325 angstrom
                   Q00  =   0.070532

H          x = -1.545536  y =  1.387878  z = -1.339317 angstrom
           Maximum rank =  0   Radius =  0.325 angstrom
                   Q00  =   0.064608

H          x =  0.652464  y = -1.318122  z =  1.246683 angstrom
           Maximum rank =  0   Radius =  0.325 angstrom
                   Q00  =   0.067622

H          x =  2.732464  y = -0.846122  z = -0.049317 angstrom
           Maximum rank =  0   Radius =  0.325 angstrom
                   Q00  =   0.069148

H          x = -0.470536  y =  2.133878  z = -3.343317 angstrom
           Maximum rank =  0   Radius =  0.325 angstrom
                   Q00  =   0.094303

H          x =  1.173464  y =  1.783878  z = -3.725317 angstrom
           Maximum rank =  0   Radius =  0.325 angstrom
                   Q00  =   0.104162

H          x =  2.647464  y =  0.710878  z = -1.959317 angstrom
           Maximum rank =  0   Radius =  0.325 angstrom
                   Q00  =   0.056642

H          x =  0.814058  y =  3.149718  z = -2.673927 angstrom
           Maximum rank =  0   Radius =  0.325 angstrom
                   Q00  =   0.103783

Total multipoles referred to origin at
           x =   0.000000,  y =    0.000000,  z =    0.000000 angstrom
                   Q00  =  -0.000000

Finished at 10:8:4 on 27 Apr 2020

  DMA results are available in the Python driver through the
	  variable('DMA DISTRIBUTED MULTIPOLES')
  and
	  variable('DMA TOTAL MULTIPOLES')
  commands.

    Psi4 stopped on: Monday, 27 April 2020 10:08AM
    Psi4 wall time for execution: 0:04:15.61

*** Psi4 exiting successfully. Buy a developer a beer!
