                               Psi4 1.3.2 release

  ==> Input File <==

--------------------------------------------------------------------------
import numpy as np
set {scf_type pk
basis cc-pvdz
d_convergence 10
gdma_switch   0
gdma_limit    0
gdma_origin   [ 0.0,  0.0,  0.0 ]
}
molecule test {
    units Angstrom
    0 1
    --
    0 1
    C               -2.531137604050418    -0.755155782307211     1.319137705099205
    C               -1.717137604050418    -0.896155782307211     0.054137705099205
    O               -0.477137604050418    -0.946155782307211     0.119137705099205
    O               -2.322137604050418    -0.938155782307211    -1.033862294900795
    H               -3.552137604050418    -1.104155782307211     1.148137705099205
    H               -2.579137604050418     0.311844217692789     1.543137705099205
    H               -2.108877604050418    -1.298672382307211     2.177207705099205
    C                1.689862395949582     0.968844217692789    -0.089862294900795
    C                2.724862395949582     0.489844217692789     0.927137705099205
    N                2.311862395949582     1.828844217692789    -1.138862294900795
    H                1.252862395949582     0.091844217692789    -0.568862294900795
    H                0.896862395949582     1.513844217692789     0.430137705099205
    H                3.285862395949582     1.356844217692789     1.283137705099205
    H                3.420862395949582    -0.166155782307211     0.400137705099205
    H                3.037862395949582     1.333844217692789    -1.639862294900795
    H                1.621862395949582     2.122844217692789    -1.818862294900795
    H                2.719862395949582     2.664844217692789    -0.739862294900795
    H                2.326932395949582    -0.038605182307211     1.805997705099205

}
e, wfn = energy('scf', return_wfn=True)
gdma(wfn)
dmavals = variable('DMA DISTRIBUTED MULTIPOLES')
charges = np.array(dmavals)
print(charges)
np.save('SSI-020ASP-082LYS-1-dimer.npy', np.array(charges))--------------------------------------------------------------------------

*** tstart() called on ds3
*** at Mon Apr 27 06:44:53 2020

   => Loading Basis Set <=

    Name: CC-PVDZ
    Role: ORBITAL
    Keyword: BASIS
    atoms 1-2, 8-9   entry C          line   138 file /theoryfs2/ds/metcalf/miniconda2/envs/tf2gpu/share/psi4/basis/cc-pvdz.gbs
    atoms 3-4        entry O          line   198 file /theoryfs2/ds/metcalf/miniconda2/envs/tf2gpu/share/psi4/basis/cc-pvdz.gbs
    atoms 5-7, 11-18 entry H          line    22 file /theoryfs2/ds/metcalf/miniconda2/envs/tf2gpu/share/psi4/basis/cc-pvdz.gbs
    atoms 10         entry N          line   168 file /theoryfs2/ds/metcalf/miniconda2/envs/tf2gpu/share/psi4/basis/cc-pvdz.gbs

         ---------------------------------------------------------
                                   SCF
               by Justin Turney, Rob Parrish, Andy Simmonett
                          and Daniel G. A. Smith
                              RHF Reference
                        1 Threads,    500 MiB Core
         ---------------------------------------------------------

  ==> Geometry <==

    Molecular point group: c1
    Full point group: C1

    Geometry (in Angstrom), charge = 0, multiplicity = 1:

       Center              X                  Y                   Z               Mass
    ------------   -----------------  -----------------  -----------------  -----------------
         C           -2.531137604050    -0.755155782307     1.319137705099    12.000000000000
         C           -1.717137604050    -0.896155782307     0.054137705099    12.000000000000
         O           -0.477137604050    -0.946155782307     0.119137705099    15.994914619570
         O           -2.322137604050    -0.938155782307    -1.033862294901    15.994914619570
         H           -3.552137604050    -1.104155782307     1.148137705099     1.007825032230
         H           -2.579137604050     0.311844217693     1.543137705099     1.007825032230
         H           -2.108877604050    -1.298672382307     2.177207705099     1.007825032230
         C            1.689862395950     0.968844217693    -0.089862294901    12.000000000000
         C            2.724862395950     0.489844217693     0.927137705099    12.000000000000
         N            2.311862395950     1.828844217693    -1.138862294901    14.003074004430
         H            1.252862395950     0.091844217693    -0.568862294901     1.007825032230
         H            0.896862395950     1.513844217693     0.430137705099     1.007825032230
         H            3.285862395950     1.356844217693     1.283137705099     1.007825032230
         H            3.420862395950    -0.166155782307     0.400137705099     1.007825032230
         H            3.037862395950     1.333844217693    -1.639862294901     1.007825032230
         H            1.621862395950     2.122844217693    -1.818862294901     1.007825032230
         H            2.719862395950     2.664844217693    -0.739862294901     1.007825032230
         H            2.326932395950    -0.038605182307     1.805997705099     1.007825032230

  Running in c1 symmetry.

  Rotational constants: A =      0.14434  B =      0.02823  C =      0.02544 [cm^-1]
  Rotational constants: A =   4327.06289  B =    846.20657  C =    762.72472 [MHz]
  Nuclear repulsion =  300.475689914574843

  Charge       = 0
  Multiplicity = 1
  Electrons    = 58
  Nalpha       = 29
  Nbeta        = 29

  ==> Algorithm <==

  SCF Algorithm Type is PK.
  DIIS enabled.
  MOM disabled.
  Fractional occupation disabled.
  Guess Type is SAD.
  Energy threshold   = 1.00e-06
  Density threshold  = 1.00e-10
  Integral threshold = 0.00e+00

  ==> Primary Basis <==

  Basis Set: CC-PVDZ
    Blend: CC-PVDZ
    Number of shells: 75
    Number of basis function: 153
    Number of Cartesian functions: 160
    Spherical Harmonics?: true
    Max angular momentum: 2

  ==> Pre-Iterations <==

   -------------------------------------------------------
    Irrep   Nso     Nmo     Nalpha   Nbeta   Ndocc  Nsocc
   -------------------------------------------------------
     A        153     153       0       0       0       0
   -------------------------------------------------------
    Total     153     153      29      29      29       0
   -------------------------------------------------------

  ==> Integral Setup <==

  Using integral reordering PK algorithm.
  Sizing the integral batches needed.
  Building batch lookup table.
   Calculation information:
      Number of atoms:                  18
      Number of AO shells:              75
      Number of primitives:            209
      Number of atomic orbitals:       160
      Number of basis functions:       153

      Integral cutoff                 1.00e-12
      Number of threads:                 1

	Batch   1 pq = [       0,    9405] index = [             0,44231715] size =     44231715
	Batch   2 pq = [    9405,   11781] index = [      44231715,69401871] size =     25170156
  Task number: 7
  Buffer size: 11059200
  Buffer per thread: 2
  We computed 3244429 shell quartets total.
  Whereas there are 4062675 unique shell quartets.

  ==> DiskJK: Disk-Based J/K Matrices <==

    J tasked:                  Yes
    K tasked:                  Yes
    wK tasked:                  No
    Memory [MiB]:              375
    Schwarz Cutoff:          1E-12

    OpenMP threads:              1

  Minimum eigenvalue in the overlap matrix is 5.2848812184E-03.
  Using Symmetric Orthogonalization.

  SCF Guess: Superposition of Atomic Densities via on-the-fly atomic UHF.

  ==> Iterations <==

                        Total Energy        Delta E     RMS |[F,P]|

   @RHF iter SAD:  -360.73756137253963   -3.60738e+02   0.00000e+00
   @RHF iter   1:  -361.71459193469389   -9.77031e-01   4.79630e-03 DIIS
   @RHF iter   2:  -361.93419095757383   -2.19599e-01   2.57982e-03 DIIS
   @RHF iter   3:  -361.99085631415642   -5.66654e-02   4.52595e-04 DIIS
   @RHF iter   4:  -361.99409636706343   -3.24005e-03   1.51111e-04 DIIS
   @RHF iter   5:  -361.99446710260736   -3.70736e-04   2.85306e-05 DIIS
   @RHF iter   6:  -361.99448642852565   -1.93259e-05   1.06295e-05 DIIS
   @RHF iter   7:  -361.99448826880058   -1.84027e-06   3.97421e-06 DIIS
   @RHF iter   8:  -361.99448870581443   -4.37014e-07   1.80684e-06 DIIS
   @RHF iter   9:  -361.99448879894135   -9.31269e-08   5.26555e-07 DIIS
   @RHF iter  10:  -361.99448880971767   -1.07763e-08   1.88770e-07 DIIS
   @RHF iter  11:  -361.99448881085857   -1.14090e-09   4.81647e-08 DIIS
   @RHF iter  12:  -361.99448881092746   -6.88942e-11   1.10962e-08 DIIS
   @RHF iter  13:  -361.99448881092809   -6.25278e-13   3.61947e-09 DIIS
   @RHF iter  14:  -361.99448881092798    1.13687e-13   1.00644e-09 DIIS
   @RHF iter  15:  -361.99448881092871   -7.38964e-13   3.39964e-10 DIIS
   @RHF iter  16:  -361.99448881092786    8.52651e-13   1.76877e-10 DIIS
   @RHF iter  17:  -361.99448881092849   -6.25278e-13   7.55862e-11 DIIS
  Energy and wave function converged.

  ==> Post-Iterations <==

    Orbital Energies [Eh]
    ---------------------

    Doubly Occupied:

       1A    -20.378994     2A    -20.362252     3A    -15.783596
       4A    -11.330154     5A    -11.281606     6A    -11.223188
       7A    -11.146648     8A     -1.402697     9A     -1.267939
      10A     -1.149348    11A     -1.084660    12A     -0.926098
      13A     -0.897226    14A     -0.861677    15A     -0.847284
      16A     -0.722382    17A     -0.662045    18A     -0.609596
      19A     -0.600558    20A     -0.560293    21A     -0.552184
      22A     -0.517181    23A     -0.514095    24A     -0.507024
      25A     -0.446664    26A     -0.414957    27A     -0.298820
      28A     -0.279838    29A     -0.274885

    Virtual:

      30A      0.061051    31A      0.125951    32A      0.133665
      33A      0.170520    34A      0.207122    35A      0.229883
      36A      0.232890    37A      0.269466    38A      0.283759
      39A      0.303508    40A      0.306259    41A      0.331150
      42A      0.346278    43A      0.386240    44A      0.480019
      45A      0.497243    46A      0.520881    47A      0.547084
      48A      0.562128    49A      0.572970    50A      0.600538
      51A      0.663190    52A      0.718954    53A      0.722238
      54A      0.741110    55A      0.761763    56A      0.782593
      57A      0.791563    58A      0.822202    59A      0.835934
      60A      0.836610    61A      0.848912    62A      0.855492
      63A      0.877640    64A      0.893672    65A      0.910168
      66A      0.918745    67A      0.939442    68A      0.946555
      69A      0.959912    70A      0.965211    71A      0.988765
      72A      1.039230    73A      1.051474    74A      1.059952
      75A      1.122825    76A      1.159337    77A      1.240835
      78A      1.247841    79A      1.291198    80A      1.338179
      81A      1.400415    82A      1.416258    83A      1.444965
      84A      1.459470    85A      1.473794    86A      1.504749
      87A      1.522482    88A      1.576817    89A      1.587050
      90A      1.596067    91A      1.632065    92A      1.644699
      93A      1.656811    94A      1.745254    95A      1.747176
      96A      1.751494    97A      1.824652    98A      1.835830
      99A      1.852132   100A      1.886094   101A      1.904707
     102A      1.927196   103A      1.934365   104A      1.954941
     105A      1.967269   106A      1.984049   107A      1.995610
     108A      2.013957   109A      2.027845   110A      2.042149
     111A      2.064719   112A      2.099273   113A      2.114250
     114A      2.120336   115A      2.145011   116A      2.163255
     117A      2.250768   118A      2.270008   119A      2.273669
     120A      2.311964   121A      2.327691   122A      2.337207
     123A      2.436450   124A      2.450202   125A      2.462881
     126A      2.517676   127A      2.564317   128A      2.586118
     129A      2.601260   130A      2.660828   131A      2.675101
     132A      2.698028   133A      2.712221   134A      2.750459
     135A      2.802343   136A      2.819349   137A      2.870077
     138A      2.877144   139A      2.886644   140A      2.916969
     141A      2.995296   142A      3.129117   143A      3.168246
     144A      3.185089   145A      3.217417   146A      3.250536
     147A      3.253862   148A      3.537969   149A      3.679965
     150A      3.727686   151A      3.970031   152A      3.997581
     153A      4.108022

    Final Occupation by Irrep:
              A
    DOCC [    29 ]

  @RHF Final Energy:  -361.99448881092849

   => Energetics <=

    Nuclear Repulsion Energy =            300.4756899145748434
    One-Electron Energy =               -1091.1325764613134197
    Two-Electron Energy =                 428.6623977358101456
    Total Energy =                       -361.9944888109284875

Computation Completed

Properties will be evaluated at   0.000000,   0.000000,   0.000000 [a0]

Properties computed using the SCF density matrix

  Nuclear Dipole Moment: [e a0]
     X:     9.6572      Y:     6.3495      Z:     3.7680

  Electronic Dipole Moment: [e a0]
     X:    -3.7655      Y:    -1.9644      Z:    -4.2643

  Dipole Moment: [e a0]
     X:     5.8917      Y:     4.3850      Z:    -0.4963     Total:     7.3612

  Dipole Moment: [D]
     X:    14.9751      Y:    11.1456      Z:    -1.2615     Total:    18.7102

*** tstop() called on ds3 at Mon Apr 27 06:45:25 2020
Module time:
	user time   =      21.54 seconds =       0.36 minutes
	system time =      10.86 seconds =       0.18 minutes
	total time  =         32 seconds =       0.53 minutes
Total time:
	user time   =      21.54 seconds =       0.36 minutes
	system time =      10.86 seconds =       0.18 minutes
	total time  =         32 seconds =       0.53 minutes
                                     G D M A

                                 by Anthony Stone

                           version 2.2.06, 22 June 2011

               Distributed Multipoles from Gaussian wavefunctions

Starting at 6:45:25 on 27 Apr 2020

Using SCF density matrix from file ./SSI/SSI-020ASP-082LYS-1-dimer.test.5070.fchk

                         Distributed Multipole Analysis

Standard DMA

Positions and radii in angstrom
Multipole moments in atomic units, ea_0^k for rank k

C          x = -2.531138  y = -0.755156  z =  1.319138 angstrom
           Maximum rank =  0   Radius =  0.650 angstrom
                   Q00  =  -0.281451

C          x = -1.717138  y = -0.896156  z =  0.054138 angstrom
           Maximum rank =  0   Radius =  0.650 angstrom
                   Q00  =   0.960889

O          x = -0.477138  y = -0.946156  z =  0.119138 angstrom
           Maximum rank =  0   Radius =  0.650 angstrom
                   Q00  =  -0.955839

O          x = -2.322138  y = -0.938156  z = -1.033862 angstrom
           Maximum rank =  0   Radius =  0.650 angstrom
                   Q00  =  -0.913222

H          x = -3.552138  y = -1.104156  z =  1.148138 angstrom
           Maximum rank =  0   Radius =  0.325 angstrom
                   Q00  =   0.082157

H          x = -2.579138  y =  0.311844  z =  1.543138 angstrom
           Maximum rank =  0   Radius =  0.325 angstrom
                   Q00  =   0.077290

H          x = -2.108878  y = -1.298672  z =  2.177208 angstrom
           Maximum rank =  0   Radius =  0.325 angstrom
                   Q00  =   0.064661

C          x =  1.689862  y =  0.968844  z = -0.089862 angstrom
           Maximum rank =  0   Radius =  0.650 angstrom
                   Q00  =  -0.002982

C          x =  2.724862  y =  0.489844  z =  0.927138 angstrom
           Maximum rank =  0   Radius =  0.650 angstrom
                   Q00  =  -0.223809

N          x =  2.311862  y =  1.828844  z = -1.138862 angstrom
           Maximum rank =  0   Radius =  0.650 angstrom
                   Q00  =  -0.089726

H          x =  1.252862  y =  0.091844  z = -0.568862 angstrom
           Maximum rank =  0   Radius =  0.325 angstrom
                   Q00  =   0.138037

H          x =  0.896862  y =  1.513844  z =  0.430138 angstrom
           Maximum rank =  0   Radius =  0.325 angstrom
                   Q00  =   0.118969

H          x =  3.285862  y =  1.356844  z =  1.283138 angstrom
           Maximum rank =  0   Radius =  0.325 angstrom
                   Q00  =   0.051865

H          x =  3.420862  y = -0.166156  z =  0.400138 angstrom
           Maximum rank =  0   Radius =  0.325 angstrom
                   Q00  =   0.084481

H          x =  3.037862  y =  1.333844  z = -1.639862 angstrom
           Maximum rank =  0   Radius =  0.325 angstrom
                   Q00  =   0.241459

H          x =  1.621862  y =  2.122844  z = -1.818862 angstrom
           Maximum rank =  0   Radius =  0.325 angstrom
                   Q00  =   0.256830

H          x =  2.719862  y =  2.664844  z = -0.739862 angstrom
           Maximum rank =  0   Radius =  0.325 angstrom
                   Q00  =   0.228083

H          x =  2.326932  y = -0.038605  z =  1.805998 angstrom
           Maximum rank =  0   Radius =  0.325 angstrom
                   Q00  =   0.162307

Total multipoles referred to origin at
           x =   0.000000,  y =    0.000000,  z =    0.000000 angstrom
                   Q00  =  -0.000000

Finished at 6:45:25 on 27 Apr 2020

  DMA results are available in the Python driver through the
	  variable('DMA DISTRIBUTED MULTIPOLES')
  and
	  variable('DMA TOTAL MULTIPOLES')
  commands.

    Psi4 stopped on: Monday, 27 April 2020 06:45AM
    Psi4 wall time for execution: 0:00:32.08

*** Psi4 exiting successfully. Buy a developer a beer!
