                               Psi4 1.3.2 release

  ==> Input File <==

--------------------------------------------------------------------------
import numpy as np
set {scf_type pk
basis cc-pvdz
d_convergence 10
gdma_switch   0
gdma_limit    0
gdma_origin   [ 0.0,  0.0,  0.0 ]
}
molecule test {
    units Angstrom
    0 1
    --
    0 1
    C               -0.059607618463608     1.662702820761239     1.026451577314182
    C               -1.240607618463608     2.290702820761239     1.766451577314182
    H               -0.026607618463608     0.588702820761239     1.215451577314182
    H               -0.154607618463608     1.824702820761239    -0.046548422685818
    H                0.876392381536392     2.114702820761239     1.359451577314182
    H               -2.148607618463608     1.759702820761239     1.477451577314182
    H               -1.099724618463608     2.207032820761239     2.854181577314182
    H               -1.353585618463608     3.344432820761239     1.471691577314182
    C                0.530392381536392    -1.245297179238761    -1.212548422685818
    C                0.769392381536392    -2.709297179238761    -1.576548422685818
    H                1.036392381536392    -1.014297179238761    -0.273548422685818
    H                0.933392381536392    -0.595297179238761    -1.971548422685818
    H               -0.529607618463608    -1.037297179238761    -1.105548422685818
    H                0.196392381536392    -2.942297179238761    -2.473548422685818
    H                0.440291381536392    -3.364637179238761    -0.756658422685818
    H                1.835005381536392    -2.871297179238761    -1.796148422685818

}
e, wfn = energy('scf', return_wfn=True)
gdma(wfn)
dmavals = variable('DMA DISTRIBUTED MULTIPOLES')
charges = np.array(dmavals)
print(charges)
np.save('SSI-034VAL-072VAL-1-dimer.npy', np.array(charges))--------------------------------------------------------------------------

*** tstart() called on ds3
*** at Sun Apr 26 18:35:49 2020

   => Loading Basis Set <=

    Name: CC-PVDZ
    Role: ORBITAL
    Keyword: BASIS
    atoms 1-2, 9-10  entry C          line   138 file /theoryfs2/ds/metcalf/miniconda2/envs/tf2gpu/share/psi4/basis/cc-pvdz.gbs
    atoms 3-8, 11-16 entry H          line    22 file /theoryfs2/ds/metcalf/miniconda2/envs/tf2gpu/share/psi4/basis/cc-pvdz.gbs

         ---------------------------------------------------------
                                   SCF
               by Justin Turney, Rob Parrish, Andy Simmonett
                          and Daniel G. A. Smith
                              RHF Reference
                        1 Threads,    500 MiB Core
         ---------------------------------------------------------

  ==> Geometry <==

    Molecular point group: c1
    Full point group: C1

    Geometry (in Angstrom), charge = 0, multiplicity = 1:

       Center              X                  Y                   Z               Mass
    ------------   -----------------  -----------------  -----------------  -----------------
         C           -0.059607618464     1.662702820761     1.026451577314    12.000000000000
         C           -1.240607618464     2.290702820761     1.766451577314    12.000000000000
         H           -0.026607618464     0.588702820761     1.215451577314     1.007825032230
         H           -0.154607618464     1.824702820761    -0.046548422686     1.007825032230
         H            0.876392381536     2.114702820761     1.359451577314     1.007825032230
         H           -2.148607618464     1.759702820761     1.477451577314     1.007825032230
         H           -1.099724618464     2.207032820761     2.854181577314     1.007825032230
         H           -1.353585618464     3.344432820761     1.471691577314     1.007825032230
         C            0.530392381536    -1.245297179239    -1.212548422686    12.000000000000
         C            0.769392381536    -2.709297179239    -1.576548422686    12.000000000000
         H            1.036392381536    -1.014297179239    -0.273548422686     1.007825032230
         H            0.933392381536    -0.595297179239    -1.971548422686     1.007825032230
         H           -0.529607618464    -1.037297179239    -1.105548422686     1.007825032230
         H            0.196392381536    -2.942297179239    -2.473548422686     1.007825032230
         H            0.440291381536    -3.364637179239    -0.756658422686     1.007825032230
         H            1.835005381536    -2.871297179239    -1.796148422686     1.007825032230

  Running in c1 symmetry.

  Rotational constants: A =      0.76628  B =      0.04020  C =      0.03963 [cm^-1]
  Rotational constants: A =  22972.56101  B =   1205.08880  C =   1188.07390 [MHz]
  Nuclear repulsion =  119.980737309328916

  Charge       = 0
  Multiplicity = 1
  Electrons    = 36
  Nalpha       = 18
  Nbeta        = 18

  ==> Algorithm <==

  SCF Algorithm Type is PK.
  DIIS enabled.
  MOM disabled.
  Fractional occupation disabled.
  Guess Type is SAD.
  Energy threshold   = 1.00e-06
  Density threshold  = 1.00e-10
  Integral threshold = 0.00e+00

  ==> Primary Basis <==

  Basis Set: CC-PVDZ
    Blend: CC-PVDZ
    Number of shells: 60
    Number of basis function: 116
    Number of Cartesian functions: 120
    Spherical Harmonics?: true
    Max angular momentum: 2

  ==> Pre-Iterations <==

   -------------------------------------------------------
    Irrep   Nso     Nmo     Nalpha   Nbeta   Ndocc  Nsocc
   -------------------------------------------------------
     A        116     116       0       0       0       0
   -------------------------------------------------------
    Total     116     116      18      18      18       0
   -------------------------------------------------------

  ==> Integral Setup <==

  Using integral reordering PK algorithm.
  Sizing the integral batches needed.
  Building batch lookup table.
   Calculation information:
      Number of atoms:                  16
      Number of AO shells:              60
      Number of primitives:            148
      Number of atomic orbitals:       120
      Number of basis functions:       116

      Integral cutoff                 1.00e-12
      Number of threads:                 1

	Batch   1 pq = [       0,    6786] index = [             0,23028291] size =     23028291
  Task number: 3
  Buffer size: 11059200
  Buffer per thread: 2
  We computed 1337535 shell quartets total.
  Whereas there are 1675365 unique shell quartets.

  ==> DiskJK: Disk-Based J/K Matrices <==

    J tasked:                  Yes
    K tasked:                  Yes
    wK tasked:                  No
    Memory [MiB]:              375
    Schwarz Cutoff:          1E-12

    OpenMP threads:              1

  Minimum eigenvalue in the overlap matrix is 6.5218317837E-03.
  Using Symmetric Orthogonalization.

  SCF Guess: Superposition of Atomic Densities via on-the-fly atomic UHF.

  ==> Iterations <==

                        Total Energy        Delta E     RMS |[F,P]|

   @RHF iter SAD:  -157.35177217922552   -1.57352e+02   0.00000e+00
   @RHF iter   1:  -158.30764115420976   -9.55869e-01   4.21931e-03 DIIS
   @RHF iter   2:  -158.44134284288822   -1.33702e-01   1.79764e-03 DIIS
   @RHF iter   3:  -158.46478130508910   -2.34385e-02   3.50184e-04 DIIS
   @RHF iter   4:  -158.46661680559674   -1.83550e-03   3.91236e-05 DIIS
   @RHF iter   5:  -158.46664072748342   -2.39219e-05   6.89242e-06 DIIS
   @RHF iter   6:  -158.46664140171367   -6.74230e-07   1.30553e-06 DIIS
   @RHF iter   7:  -158.46664141734578   -1.56321e-08   3.17413e-07 DIIS
   @RHF iter   8:  -158.46664141829106   -9.45278e-10   3.68593e-08 DIIS
   @RHF iter   9:  -158.46664141831207   -2.10036e-11   6.73006e-09 DIIS
   @RHF iter  10:  -158.46664141831363   -1.56319e-12   1.96907e-09 DIIS
   @RHF iter  11:  -158.46664141831312    5.11591e-13   5.96283e-10 DIIS
   @RHF iter  12:  -158.46664141831317   -5.68434e-14   1.33809e-10 DIIS
   @RHF iter  13:  -158.46664141831258    5.96856e-13   2.04043e-11 DIIS
  Energy and wave function converged.

  ==> Post-Iterations <==

    Orbital Energies [Eh]
    ---------------------

    Doubly Occupied:

       1A    -11.218898     2A    -11.218863     3A    -11.215487
       4A    -11.214124     5A     -1.019146     6A     -1.016687
       7A     -0.839774     8A     -0.833349     9A     -0.600586
      10A     -0.598455    11A     -0.596716    12A     -0.594539
      13A     -0.505320    14A     -0.496253    15A     -0.489431
      16A     -0.486952    17A     -0.484040    18A     -0.478432

    Virtual:

      19A      0.176272    20A      0.194137    21A      0.223039
      22A      0.237456    23A      0.244091    24A      0.258784
      25A      0.263817    26A      0.277052    27A      0.283207
      28A      0.293206    29A      0.298727    30A      0.315732
      31A      0.387470    32A      0.410807    33A      0.568134
      34A      0.594651    35A      0.598548    36A      0.603339
      37A      0.605985    38A      0.641327    39A      0.676064
      40A      0.687979    41A      0.695438    42A      0.764239
      43A      0.838215    44A      0.885363    45A      0.888983
      46A      0.892198    47A      0.893674    48A      0.895264
      49A      0.900764    50A      0.908751    51A      0.915310
      52A      0.917177    53A      0.935227    54A      0.937041
      55A      0.962952    56A      0.988126    57A      1.123961
      58A      1.127468    59A      1.128828    60A      1.156169
      61A      1.219784    62A      1.251076    63A      1.468827
      64A      1.475313    65A      1.481198    66A      1.486348
      67A      1.576730    68A      1.578450    69A      1.679898
      70A      1.680611    71A      1.694516    72A      1.701917
      73A      1.853811    74A      1.858317    75A      1.867920
      76A      1.885307    77A      1.894298    78A      1.928012
      79A      1.938905    80A      1.941691    81A      1.945927
      82A      1.947688    83A      1.949662    84A      1.952868
      85A      1.962789    86A      1.966468    87A      1.983131
      88A      2.038572    89A      2.093544    90A      2.100910
      91A      2.116818    92A      2.121625    93A      2.293589
      94A      2.308903    95A      2.315985    96A      2.330581
      97A      2.449380    98A      2.456828    99A      2.465726
     100A      2.478435   101A      2.559720   102A      2.563883
     103A      2.574953   104A      2.579339   105A      2.759661
     106A      2.762247   107A      2.784778   108A      2.796975
     109A      2.843496   110A      2.854825   111A      2.859485
     112A      2.863428   113A      2.944268   114A      2.951632
     115A      2.964706   116A      2.968314

    Final Occupation by Irrep:
              A
    DOCC [    18 ]

  @RHF Final Energy:  -158.46664141831258

   => Energetics <=

    Nuclear Repulsion Energy =            119.9807373093289158
    One-Electron Energy =                -449.0806496599415141
    Two-Electron Energy =                 170.6332709323000358
    Total Energy =                       -158.4666414183125767

Computation Completed

Properties will be evaluated at   0.000000,   0.000000,   0.000000 [a0]

Properties computed using the SCF density matrix

  Nuclear Dipole Moment: [e a0]
     X:     0.0048      Y:     0.0133      Z:    -0.0425

  Electronic Dipole Moment: [e a0]
     X:    -0.0016      Y:    -0.0101      Z:     0.0245

  Dipole Moment: [e a0]
     X:     0.0032      Y:     0.0032      Z:    -0.0180     Total:     0.0185

  Dipole Moment: [D]
     X:     0.0081      Y:     0.0081      Z:    -0.0457     Total:     0.0471

*** tstop() called on ds3 at Sun Apr 26 18:35:59 2020
Module time:
	user time   =       7.27 seconds =       0.12 minutes
	system time =       3.19 seconds =       0.05 minutes
	total time  =         10 seconds =       0.17 minutes
Total time:
	user time   =       7.27 seconds =       0.12 minutes
	system time =       3.19 seconds =       0.05 minutes
	total time  =         10 seconds =       0.17 minutes
                                     G D M A

                                 by Anthony Stone

                           version 2.2.06, 22 June 2011

               Distributed Multipoles from Gaussian wavefunctions

Starting at 18:35:59 on 26 Apr 2020

Using SCF density matrix from file ./SSI/SSI-034VAL-072VAL-1-dimer.test.5791.fchk

                         Distributed Multipole Analysis

Standard DMA

Positions and radii in angstrom
Multipole moments in atomic units, ea_0^k for rank k

C          x = -0.059608  y =  1.662703  z =  1.026452 angstrom
           Maximum rank =  0   Radius =  0.650 angstrom
                   Q00  =  -0.231581

C          x = -1.240608  y =  2.290703  z =  1.766452 angstrom
           Maximum rank =  0   Radius =  0.650 angstrom
                   Q00  =  -0.240150

H          x = -0.026608  y =  0.588703  z =  1.215452 angstrom
           Maximum rank =  0   Radius =  0.325 angstrom
                   Q00  =   0.079775

H          x = -0.154608  y =  1.824703  z = -0.046548 angstrom
           Maximum rank =  0   Radius =  0.325 angstrom
                   Q00  =   0.079875

H          x =  0.876392  y =  2.114703  z =  1.359452 angstrom
           Maximum rank =  0   Radius =  0.325 angstrom
                   Q00  =   0.077299

H          x = -2.148608  y =  1.759703  z =  1.477452 angstrom
           Maximum rank =  0   Radius =  0.325 angstrom
                   Q00  =   0.077240

H          x = -1.099725  y =  2.207033  z =  2.854182 angstrom
           Maximum rank =  0   Radius =  0.325 angstrom
                   Q00  =   0.079870

H          x = -1.353586  y =  3.344433  z =  1.471692 angstrom
           Maximum rank =  0   Radius =  0.325 angstrom
                   Q00  =   0.078421

C          x =  0.530392  y = -1.245297  z = -1.212548 angstrom
           Maximum rank =  0   Radius =  0.650 angstrom
                   Q00  =  -0.238019

C          x =  0.769392  y = -2.709297  z = -1.576548 angstrom
           Maximum rank =  0   Radius =  0.650 angstrom
                   Q00  =  -0.235825

H          x =  1.036392  y = -1.014297  z = -0.273548 angstrom
           Maximum rank =  0   Radius =  0.325 angstrom
                   Q00  =   0.076772

H          x =  0.933392  y = -0.595297  z = -1.971548 angstrom
           Maximum rank =  0   Radius =  0.325 angstrom
                   Q00  =   0.081129

H          x = -0.529608  y = -1.037297  z = -1.105548 angstrom
           Maximum rank =  0   Radius =  0.325 angstrom
                   Q00  =   0.078309

H          x =  0.196392  y = -2.942297  z = -2.473548 angstrom
           Maximum rank =  0   Radius =  0.325 angstrom
                   Q00  =   0.077921

H          x =  0.440291  y = -3.364637  z = -0.756658 angstrom
           Maximum rank =  0   Radius =  0.325 angstrom
                   Q00  =   0.079591

H          x =  1.835005  y = -2.871297  z = -1.796148 angstrom
           Maximum rank =  0   Radius =  0.325 angstrom
                   Q00  =   0.079372

Total multipoles referred to origin at
           x =   0.000000,  y =    0.000000,  z =    0.000000 angstrom
                   Q00  =  -0.000000

Finished at 18:35:59 on 26 Apr 2020

  DMA results are available in the Python driver through the
	  variable('DMA DISTRIBUTED MULTIPOLES')
  and
	  variable('DMA TOTAL MULTIPOLES')
  commands.

    Psi4 stopped on: Sunday, 26 April 2020 06:35PM
    Psi4 wall time for execution: 0:00:10.29

*** Psi4 exiting successfully. Buy a developer a beer!
