                               Psi4 1.3.2 release

  ==> Input File <==

--------------------------------------------------------------------------
import numpy as np
set {scf_type pk
basis cc-pvdz
d_convergence 10
gdma_switch   0
gdma_limit    0
gdma_origin   [ 0.0,  0.0,  0.0 ]
}
molecule test {
    units Angstrom
    0 1
    --
    0 1
    C               -3.590718399567901     0.272510590015705     0.954514079421187
    C               -4.231718399567901     1.526510590015704     1.524514079421187
    H               -2.937718399567901    -0.182489409984295     1.700514079421187
    H               -4.359718399567901    -0.452489409984295     0.686514079421187
    H               -3.014718399567901     0.517510590015705     0.059514079421187
    H               -4.698718399567902     1.264510590015705     2.468514079421187
    H               -3.479268399567901     2.312810590015705     1.684364079421187
    H               -5.015618399567902     1.891080590015704     0.844374079421187
    C                2.214281600432098     1.954510590015705    -0.317485920578813
    C               -0.152718399567901    -0.973489409984295     0.133514079421187
    C                0.583281600432099    -2.009489409984296    -0.435485920578813
    C                0.372281600432099     0.316510590015704     0.157514079421187
    C                1.623281600432099     0.584510590015704    -0.402485920578813
    C                1.826281600432099    -1.749489409984296    -0.998485920578813
    C                2.351281600432099    -0.455489409984295    -0.981485920578813
    H               -1.120718399567901    -1.179489409984296     0.567514079421187
    H                0.187281600432099    -3.015489409984295    -0.445485920578813
    H               -0.198718399567901     1.114510590015704     0.607514079421187
    H                2.385281600432099    -2.552489409984295    -1.456485920578813
    H                1.435281600432099     2.689510590015705    -0.114485920578813
    H                2.649281600432098     2.194510590015704    -1.288485920578813
    H                3.321281600432099    -0.264489409984296    -1.420485920578813
    H                2.993131600432099     2.013650590015704     0.457044079421187

}
e, wfn = energy('scf', return_wfn=True)
gdma(wfn)
dmavals = variable('DMA DISTRIBUTED MULTIPOLES')
charges = np.array(dmavals)
print(charges)
np.save('SSI-145LEU-149PHE-1-dimer.npy', np.array(charges))--------------------------------------------------------------------------

*** tstart() called on ds3
*** at Mon Apr 27 18:33:46 2020

   => Loading Basis Set <=

    Name: CC-PVDZ
    Role: ORBITAL
    Keyword: BASIS
    atoms 1-2, 9-15  entry C          line   138 file /theoryfs2/ds/metcalf/miniconda2/envs/tf2gpu/share/psi4/basis/cc-pvdz.gbs
    atoms 3-8, 16-23 entry H          line    22 file /theoryfs2/ds/metcalf/miniconda2/envs/tf2gpu/share/psi4/basis/cc-pvdz.gbs

         ---------------------------------------------------------
                                   SCF
               by Justin Turney, Rob Parrish, Andy Simmonett
                          and Daniel G. A. Smith
                              RHF Reference
                        1 Threads,    500 MiB Core
         ---------------------------------------------------------

  ==> Geometry <==

    Molecular point group: c1
    Full point group: C1

    Geometry (in Angstrom), charge = 0, multiplicity = 1:

       Center              X                  Y                   Z               Mass
    ------------   -----------------  -----------------  -----------------  -----------------
         C           -3.590718399568     0.272510590016     0.954514079421    12.000000000000
         C           -4.231718399568     1.526510590016     1.524514079421    12.000000000000
         H           -2.937718399568    -0.182489409984     1.700514079421     1.007825032230
         H           -4.359718399568    -0.452489409984     0.686514079421     1.007825032230
         H           -3.014718399568     0.517510590016     0.059514079421     1.007825032230
         H           -4.698718399568     1.264510590016     2.468514079421     1.007825032230
         H           -3.479268399568     2.312810590016     1.684364079421     1.007825032230
         H           -5.015618399568     1.891080590016     0.844374079421     1.007825032230
         C            2.214281600432     1.954510590016    -0.317485920579    12.000000000000
         C           -0.152718399568    -0.973489409984     0.133514079421    12.000000000000
         C            0.583281600432    -2.009489409984    -0.435485920579    12.000000000000
         C            0.372281600432     0.316510590016     0.157514079421    12.000000000000
         C            1.623281600432     0.584510590016    -0.402485920579    12.000000000000
         C            1.826281600432    -1.749489409984    -0.998485920579    12.000000000000
         C            2.351281600432    -0.455489409984    -0.981485920579    12.000000000000
         H           -1.120718399568    -1.179489409984     0.567514079421     1.007825032230
         H            0.187281600432    -3.015489409984    -0.445485920579     1.007825032230
         H           -0.198718399568     1.114510590016     0.607514079421     1.007825032230
         H            2.385281600432    -2.552489409984    -1.456485920579     1.007825032230
         H            1.435281600432     2.689510590016    -0.114485920579     1.007825032230
         H            2.649281600432     2.194510590016    -1.288485920579     1.007825032230
         H            3.321281600432    -0.264489409984    -1.420485920579     1.007825032230
         H            2.993131600432     2.013650590016     0.457044079421     1.007825032230

  Running in c1 symmetry.

  Rotational constants: A =      0.07877  B =      0.02075  C =      0.01667 [cm^-1]
  Rotational constants: A =   2361.54563  B =    622.01569  C =    499.77097 [MHz]
  Nuclear repulsion =  398.362475205674400

  Charge       = 0
  Multiplicity = 1
  Electrons    = 68
  Nalpha       = 34
  Nbeta        = 34

  ==> Algorithm <==

  SCF Algorithm Type is PK.
  DIIS enabled.
  MOM disabled.
  Fractional occupation disabled.
  Guess Type is SAD.
  Energy threshold   = 1.00e-06
  Density threshold  = 1.00e-10
  Integral threshold = 0.00e+00

  ==> Primary Basis <==

  Basis Set: CC-PVDZ
    Blend: CC-PVDZ
    Number of shells: 96
    Number of basis function: 196
    Number of Cartesian functions: 205
    Spherical Harmonics?: true
    Max angular momentum: 2

  ==> Pre-Iterations <==

   -------------------------------------------------------
    Irrep   Nso     Nmo     Nalpha   Nbeta   Ndocc  Nsocc
   -------------------------------------------------------
     A        196     196       0       0       0       0
   -------------------------------------------------------
    Total     196     196      34      34      34       0
   -------------------------------------------------------

  ==> Integral Setup <==

  Using integral reordering PK algorithm.
  Sizing the integral batches needed.
  Building batch lookup table.
   Calculation information:
      Number of atoms:                  23
      Number of AO shells:              96
      Number of primitives:            268
      Number of atomic orbitals:       205
      Number of basis functions:       196

      Integral cutoff                 1.00e-12
      Number of threads:                 1

	Batch   1 pq = [       0,    9405] index = [             0,44231715] size =     44231715
	Batch   2 pq = [    9405,   13301] index = [      44231715,88464951] size =     44233236
	Batch   3 pq = [   13301,   16290] index = [      88464951,132690195] size =     44225244
	Batch   4 pq = [   16290,   18810] index = [     132690195,176917455] size =     44227260
	Batch   5 pq = [   18810,   19306] index = [     176917455,186370471] size =      9453016
  Task number: 17
  Buffer size: 11059200
  Buffer per thread: 2
  We computed 8495415 shell quartets total.
  Whereas there are 10841496 unique shell quartets.

  ==> DiskJK: Disk-Based J/K Matrices <==

    J tasked:                  Yes
    K tasked:                  Yes
    wK tasked:                  No
    Memory [MiB]:              375
    Schwarz Cutoff:          1E-12

    OpenMP threads:              1

  Minimum eigenvalue in the overlap matrix is 3.0830333247E-04.
  Using Symmetric Orthogonalization.

  SCF Guess: Superposition of Atomic Densities via on-the-fly atomic UHF.

  ==> Iterations <==

                        Total Energy        Delta E     RMS |[F,P]|

   @RHF iter SAD:  -347.89456233307516   -3.47895e+02   0.00000e+00
   @RHF iter   1:  -348.76621630556406   -8.71654e-01   2.90304e-03 DIIS
   @RHF iter   2:  -348.95995265125794   -1.93736e-01   1.20409e-03 DIIS
   @RHF iter   3:  -348.99031178632470   -3.03591e-02   2.60209e-04 DIIS
   @RHF iter   4:  -348.99281159636740   -2.49981e-03   5.55037e-05 DIIS
   @RHF iter   5:  -348.99289048936191   -7.88930e-05   1.88902e-05 DIIS
   @RHF iter   6:  -348.99289915509200   -8.66573e-06   4.91752e-06 DIIS
   @RHF iter   7:  -348.99289985135937   -6.96267e-07   1.23889e-06 DIIS
   @RHF iter   8:  -348.99289989953769   -4.81783e-08   2.95908e-07 DIIS
   @RHF iter   9:  -348.99289990418129   -4.64360e-09   1.14256e-07 DIIS
   @RHF iter  10:  -348.99289990508584   -9.04549e-10   5.53466e-08 DIIS
   @RHF iter  11:  -348.99289990539643   -3.10592e-10   2.16719e-08 DIIS
   @RHF iter  12:  -348.99289990545117   -5.47402e-11   9.10341e-09 DIIS
   @RHF iter  13:  -348.99289990545822   -7.04858e-12   4.02039e-09 DIIS
   @RHF iter  14:  -348.99289990546026   -2.04636e-12   9.58701e-10 DIIS
   @RHF iter  15:  -348.99289990545827    1.98952e-12   4.01902e-10 DIIS
   @RHF iter  16:  -348.99289990545947   -1.19371e-12   1.30939e-10 DIIS
   @RHF iter  17:  -348.99289990545867    7.95808e-13   5.64696e-11 DIIS
  Energy and wave function converged.

  ==> Post-Iterations <==

    Orbital Energies [Eh]
    ---------------------

    Doubly Occupied:

       1A    -11.239092     2A    -11.234533     3A    -11.233396
       4A    -11.229782     5A    -11.229171     6A    -11.228938
       7A    -11.227785     8A    -11.220046     9A    -11.218446
      10A     -1.150970    11A     -1.044805    12A     -1.023143
      13A     -1.009616    14A     -0.929951    15A     -0.838398
      16A     -0.823850    17A     -0.792705    18A     -0.689245
      19A     -0.630604    20A     -0.629382    21A     -0.602886
      22A     -0.601016    23A     -0.580813    24A     -0.578052
      25A     -0.561332    26A     -0.534590    27A     -0.504469
      28A     -0.488961    29A     -0.487754    30A     -0.484546
      31A     -0.481544    32A     -0.479085    33A     -0.330514
      34A     -0.320047

    Virtual:

      35A      0.135474    36A      0.142242    37A      0.169695
      38A      0.193951    39A      0.203122    40A      0.222691
      41A      0.230184    42A      0.243392    43A      0.250343
      44A      0.261312    45A      0.265254    46A      0.278618
      47A      0.281856    48A      0.283166    49A      0.313455
      50A      0.325582    51A      0.365894    52A      0.380901
      53A      0.406189    54A      0.454525    55A      0.461048
      56A      0.482065    57A      0.494697    58A      0.558135
      59A      0.593184    60A      0.599285    61A      0.613334
      62A      0.632715    63A      0.637212    64A      0.672279
      65A      0.679942    66A      0.695593    67A      0.700316
      68A      0.711739    69A      0.724007    70A      0.740064
      71A      0.743613    72A      0.748822    73A      0.762050
      74A      0.776461    75A      0.783705    76A      0.807483
      77A      0.831553    78A      0.843274    79A      0.859765
      80A      0.867688    81A      0.882051    82A      0.886020
      83A      0.888856    84A      0.892415    85A      0.897334
      86A      0.904049    87A      0.911702    88A      0.925691
      89A      0.930943    90A      0.939116    91A      0.943827
      92A      0.956352    93A      0.977255    94A      1.004398
      95A      1.033899    96A      1.053103    97A      1.105771
      98A      1.120777    99A      1.134217   100A      1.149115
     101A      1.159303   102A      1.171490   103A      1.212983
     104A      1.231496   105A      1.244370   106A      1.250881
     107A      1.254512   108A      1.271862   109A      1.306877
     110A      1.316980   111A      1.321932   112A      1.326649
     113A      1.415780   114A      1.481295   115A      1.486696
     116A      1.512592   117A      1.522393   118A      1.568666
     119A      1.584076   120A      1.615604   121A      1.673148
     122A      1.678494   123A      1.690341   124A      1.699305
     125A      1.735966   126A      1.740408   127A      1.760525
     128A      1.790688   129A      1.811988   130A      1.857643
     131A      1.859392   132A      1.870220   133A      1.892900
     134A      1.896499   135A      1.903934   136A      1.912979
     137A      1.916855   138A      1.927344   139A      1.941308
     140A      1.945124   141A      1.946817   142A      1.947247
     143A      1.961321   144A      1.965295   145A      1.979115
     146A      1.989468   147A      1.999514   148A      2.005425
     149A      2.037145   150A      2.060748   151A      2.077138
     152A      2.098304   153A      2.110427   154A      2.125996
     155A      2.140756   156A      2.168450   157A      2.170628
     158A      2.180583   159A      2.198270   160A      2.249567
     161A      2.277105   162A      2.292497   163A      2.301434
     164A      2.306279   165A      2.323766   166A      2.327862
     167A      2.340057   168A      2.447190   169A      2.460933
     170A      2.472325   171A      2.487156   172A      2.515812
     173A      2.537573   174A      2.564415   175A      2.577862
     176A      2.631063   177A      2.745210   178A      2.754014
     179A      2.763366   180A      2.773188   181A      2.787634
     182A      2.790617   183A      2.823365   184A      2.841303
     185A      2.850076   186A      2.855511   187A      2.875271
     188A      2.949331   189A      2.959325   190A      2.978863
     191A      3.011638   192A      3.029203   193A      3.157259
     194A      3.204757   195A      3.302122   196A      3.970664

    Final Occupation by Irrep:
              A
    DOCC [    34 ]

  @RHF Final Energy:  -348.99289990545867

   => Energetics <=

    Nuclear Repulsion Energy =            398.3624752056744001
    One-Electron Energy =               -1259.3918134529424151
    Two-Electron Energy =                 512.0364383418093439
    Total Energy =                       -348.9928999054586711

Computation Completed

Properties will be evaluated at   0.000000,   0.000000,   0.000000 [a0]

Properties computed using the SCF density matrix

  Nuclear Dipole Moment: [e a0]
     X:   -11.1124      Y:     5.9540      Z:     4.0784

  Electronic Dipole Moment: [e a0]
     X:    11.1430      Y:    -5.8557      Z:    -4.0638

  Dipole Moment: [e a0]
     X:     0.0305      Y:     0.0984      Z:     0.0146     Total:     0.1040

  Dipole Moment: [D]
     X:     0.0776      Y:     0.2500      Z:     0.0371     Total:     0.2644

*** tstop() called on ds3 at Mon Apr 27 18:35:10 2020
Module time:
	user time   =      56.69 seconds =       0.94 minutes
	system time =      29.53 seconds =       0.49 minutes
	total time  =         84 seconds =       1.40 minutes
Total time:
	user time   =      56.69 seconds =       0.94 minutes
	system time =      29.53 seconds =       0.49 minutes
	total time  =         84 seconds =       1.40 minutes
                                     G D M A

                                 by Anthony Stone

                           version 2.2.06, 22 June 2011

               Distributed Multipoles from Gaussian wavefunctions

Starting at 18:35:10 on 27 Apr 2020

Using SCF density matrix from file ./SSI/SSI-145LEU-149PHE-1-dimer.test.24231.fchk

                         Distributed Multipole Analysis

Standard DMA

Positions and radii in angstrom
Multipole moments in atomic units, ea_0^k for rank k

C          x = -3.590718  y =  0.272511  z =  0.954514 angstrom
           Maximum rank =  0   Radius =  0.650 angstrom
                   Q00  =  -0.238084

C          x = -4.231718  y =  1.526511  z =  1.524514 angstrom
           Maximum rank =  0   Radius =  0.650 angstrom
                   Q00  =  -0.232202

H          x = -2.937718  y = -0.182489  z =  1.700514 angstrom
           Maximum rank =  0   Radius =  0.325 angstrom
                   Q00  =   0.072923

H          x = -4.359718  y = -0.452489  z =  0.686514 angstrom
           Maximum rank =  0   Radius =  0.325 angstrom
                   Q00  =   0.081302

H          x = -3.014718  y =  0.517511  z =  0.059514 angstrom
           Maximum rank =  0   Radius =  0.325 angstrom
                   Q00  =   0.080234

H          x = -4.698718  y =  1.264511  z =  2.468514 angstrom
           Maximum rank =  0   Radius =  0.325 angstrom
                   Q00  =   0.079159

H          x = -3.479268  y =  2.312811  z =  1.684364 angstrom
           Maximum rank =  0   Radius =  0.325 angstrom
                   Q00  =   0.078018

H          x = -5.015618  y =  1.891081  z =  0.844374 angstrom
           Maximum rank =  0   Radius =  0.325 angstrom
                   Q00  =   0.079085

C          x =  2.214282  y =  1.954511  z = -0.317486 angstrom
           Maximum rank =  0   Radius =  0.650 angstrom
                   Q00  =  -0.194187

C          x = -0.152718  y = -0.973489  z =  0.133514 angstrom
           Maximum rank =  0   Radius =  0.650 angstrom
                   Q00  =  -0.076201

C          x =  0.583282  y = -2.009489  z = -0.435486 angstrom
           Maximum rank =  0   Radius =  0.650 angstrom
                   Q00  =  -0.079643

C          x =  0.372282  y =  0.316511  z =  0.157514 angstrom
           Maximum rank =  0   Radius =  0.650 angstrom
                   Q00  =   0.002830

C          x =  1.623282  y =  0.584511  z = -0.402486 angstrom
           Maximum rank =  0   Radius =  0.650 angstrom
                   Q00  =  -0.098393

C          x =  1.826282  y = -1.749489  z = -0.998486 angstrom
           Maximum rank =  0   Radius =  0.650 angstrom
                   Q00  =  -0.059194

C          x =  2.351282  y = -0.455489  z = -0.981486 angstrom
           Maximum rank =  0   Radius =  0.650 angstrom
                   Q00  =  -0.098368

H          x = -1.120718  y = -1.179489  z =  0.567514 angstrom
           Maximum rank =  0   Radius =  0.325 angstrom
                   Q00  =   0.068729

H          x =  0.187282  y = -3.015489  z = -0.445486 angstrom
           Maximum rank =  0   Radius =  0.325 angstrom
                   Q00  =   0.059480

H          x = -0.198718  y =  1.114511  z =  0.607514 angstrom
           Maximum rank =  0   Radius =  0.325 angstrom
                   Q00  =   0.055863

H          x =  2.385282  y = -2.552489  z = -1.456486 angstrom
           Maximum rank =  0   Radius =  0.325 angstrom
                   Q00  =   0.064098

H          x =  1.435282  y =  2.689511  z = -0.114486 angstrom
           Maximum rank =  0   Radius =  0.325 angstrom
                   Q00  =   0.097244

H          x =  2.649282  y =  2.194511  z = -1.288486 angstrom
           Maximum rank =  0   Radius =  0.325 angstrom
                   Q00  =   0.097049

H          x =  3.321282  y = -0.264489  z = -1.420486 angstrom
           Maximum rank =  0   Radius =  0.325 angstrom
                   Q00  =   0.056443

H          x =  2.993132  y =  2.013651  z =  0.457044 angstrom
           Maximum rank =  0   Radius =  0.325 angstrom
                   Q00  =   0.103814

Total multipoles referred to origin at
           x =   0.000000,  y =    0.000000,  z =    0.000000 angstrom
                   Q00  =  -0.000000

Finished at 18:35:10 on 27 Apr 2020

  DMA results are available in the Python driver through the
	  variable('DMA DISTRIBUTED MULTIPOLES')
  and
	  variable('DMA TOTAL MULTIPOLES')
  commands.

    Psi4 stopped on: Monday, 27 April 2020 06:35PM
    Psi4 wall time for execution: 0:01:23.51

*** Psi4 exiting successfully. Buy a developer a beer!
