                               Psi4 1.3.2 release

  ==> Input File <==

--------------------------------------------------------------------------
import numpy as np
set {scf_type pk
basis cc-pvdz
d_convergence 10
gdma_switch   0
gdma_limit    0
gdma_origin   [ 0.0,  0.0,  0.0 ]
}
molecule test {
    units Angstrom
    0 1
    --
    0 1
    C                0.630068485287649    -1.883885227144320     2.004019114485921
    C                1.034068485287649    -3.282885227144320     2.492019114485921
    C               -0.586931514712351    -1.839885227144320     1.073019114485921
    C               -0.454931514712351    -2.143885227144320    -0.307980885514079
    C               -1.850931514712351    -1.487885227144320     1.570019114485921
    C               -1.554931514712351    -2.098885227144320    -1.185980885514079
    C               -2.960931514712351    -1.427885227144320     0.703019114485921
    C               -2.800931514712351    -1.733885227144320    -0.668980885514079
    O               -3.866931514712351    -1.661885227144320    -1.528980885514079
    H                0.430068485287649    -1.290885227144320     2.899019114485921
    H                1.490068485287649    -1.454885227144320     1.486019114485921
    H                1.860068485287649    -3.183885227144320     3.198019114485921
    H                0.521068485287649    -2.417885227144320    -0.688980885514079
    H               -1.967931514712351    -1.261885227144320     2.621019114485921
    H               -1.468931514712351    -2.349885227144320    -2.235980885514079
    H               -3.933931514712351    -1.144885227144320     1.084019114485921
    H               -3.634931514712351    -1.874885227144320    -2.439980885514079
    H                1.354920485287649    -3.896655227144320     1.637419114485921
    H                0.216943485287649    -3.742655227144320     3.067279114485921
    C                3.214068485287649     3.887114772855680    -2.139980885514079
    C                0.764068485287649     1.639114772855680     0.570019114485921
    C                1.286068485287649     1.013114772855680    -0.567980885514079
    C                1.065068485287649     3.000114772855680     0.836019114485921
    C                2.098068485287649     1.751114772855680    -1.429980885514079
    C                1.893068485287649     3.718114772855680    -0.035980885514079
    C                2.400068485287649     3.093114772855680    -1.172980885514079
    H                0.130068485287649     1.076114772855680     1.246019114485921
    H                1.062068485287649    -0.023885227144320    -0.775980885514079
    H                0.660068485287649     3.494114772855680     1.711019114485921
    H                2.504068485287649     1.286114772855680    -2.315980885514079
    H                2.135068485287649     4.752114772855681     0.167019114485921
    H                3.954068485287649     3.211114772855680    -2.559980885514079
    H                3.721068485287649     4.660114772855680    -1.563980885514079
    H                2.625783485287649     4.310484772855681    -2.967430885514079

}
e, wfn = energy('scf', return_wfn=True)
gdma(wfn)
dmavals = variable('DMA DISTRIBUTED MULTIPOLES')
charges = np.array(dmavals)
print(charges)
np.save('SSI-021TYR-088PHE-1-dimer.npy', np.array(charges))--------------------------------------------------------------------------

*** tstart() called on ds3
*** at Mon Apr 27 13:23:42 2020

   => Loading Basis Set <=

    Name: CC-PVDZ
    Role: ORBITAL
    Keyword: BASIS
    atoms 1-8, 20-26   entry C          line   138 file /theoryfs2/ds/metcalf/miniconda2/envs/tf2gpu/share/psi4/basis/cc-pvdz.gbs
    atoms 9            entry O          line   198 file /theoryfs2/ds/metcalf/miniconda2/envs/tf2gpu/share/psi4/basis/cc-pvdz.gbs
    atoms 10-19, 27-34 entry H          line    22 file /theoryfs2/ds/metcalf/miniconda2/envs/tf2gpu/share/psi4/basis/cc-pvdz.gbs

         ---------------------------------------------------------
                                   SCF
               by Justin Turney, Rob Parrish, Andy Simmonett
                          and Daniel G. A. Smith
                              RHF Reference
                        1 Threads,    500 MiB Core
         ---------------------------------------------------------

  ==> Geometry <==

    Molecular point group: c1
    Full point group: C1

    Geometry (in Angstrom), charge = 0, multiplicity = 1:

       Center              X                  Y                   Z               Mass
    ------------   -----------------  -----------------  -----------------  -----------------
         C            0.630068485288    -1.883885227144     2.004019114486    12.000000000000
         C            1.034068485288    -3.282885227144     2.492019114486    12.000000000000
         C           -0.586931514712    -1.839885227144     1.073019114486    12.000000000000
         C           -0.454931514712    -2.143885227144    -0.307980885514    12.000000000000
         C           -1.850931514712    -1.487885227144     1.570019114486    12.000000000000
         C           -1.554931514712    -2.098885227144    -1.185980885514    12.000000000000
         C           -2.960931514712    -1.427885227144     0.703019114486    12.000000000000
         C           -2.800931514712    -1.733885227144    -0.668980885514    12.000000000000
         O           -3.866931514712    -1.661885227144    -1.528980885514    15.994914619570
         H            0.430068485288    -1.290885227144     2.899019114486     1.007825032230
         H            1.490068485288    -1.454885227144     1.486019114486     1.007825032230
         H            1.860068485288    -3.183885227144     3.198019114486     1.007825032230
         H            0.521068485288    -2.417885227144    -0.688980885514     1.007825032230
         H           -1.967931514712    -1.261885227144     2.621019114486     1.007825032230
         H           -1.468931514712    -2.349885227144    -2.235980885514     1.007825032230
         H           -3.933931514712    -1.144885227144     1.084019114486     1.007825032230
         H           -3.634931514712    -1.874885227144    -2.439980885514     1.007825032230
         H            1.354920485288    -3.896655227144     1.637419114486     1.007825032230
         H            0.216943485288    -3.742655227144     3.067279114486     1.007825032230
         C            3.214068485288     3.887114772856    -2.139980885514    12.000000000000
         C            0.764068485288     1.639114772856     0.570019114486    12.000000000000
         C            1.286068485288     1.013114772856    -0.567980885514    12.000000000000
         C            1.065068485288     3.000114772856     0.836019114486    12.000000000000
         C            2.098068485288     1.751114772856    -1.429980885514    12.000000000000
         C            1.893068485288     3.718114772856    -0.035980885514    12.000000000000
         C            2.400068485288     3.093114772856    -1.172980885514    12.000000000000
         H            0.130068485288     1.076114772856     1.246019114486     1.007825032230
         H            1.062068485288    -0.023885227144    -0.775980885514     1.007825032230
         H            0.660068485288     3.494114772856     1.711019114486     1.007825032230
         H            2.504068485288     1.286114772856    -2.315980885514     1.007825032230
         H            2.135068485288     4.752114772856     0.167019114486     1.007825032230
         H            3.954068485288     3.211114772856    -2.559980885514     1.007825032230
         H            3.721068485288     4.660114772856    -1.563980885514     1.007825032230
         H            2.625783485288     4.310484772856    -2.967430885514     1.007825032230

  Running in c1 symmetry.

  Rotational constants: A =      0.02343  B =      0.00798  C =      0.00692 [cm^-1]
  Rotational constants: A =    702.28421  B =    239.17199  C =    207.46970 [MHz]
  Nuclear repulsion =  980.160542737963965

  Charge       = 0
  Multiplicity = 1
  Electrons    = 116
  Nalpha       = 58
  Nbeta        = 58

  ==> Algorithm <==

  SCF Algorithm Type is PK.
  DIIS enabled.
  MOM disabled.
  Fractional occupation disabled.
  Guess Type is SAD.
  Energy threshold   = 1.00e-06
  Density threshold  = 1.00e-10
  Integral threshold = 0.00e+00

  ==> Primary Basis <==

  Basis Set: CC-PVDZ
    Blend: CC-PVDZ
    Number of shells: 150
    Number of basis function: 314
    Number of Cartesian functions: 330
    Spherical Harmonics?: true
    Max angular momentum: 2

  ==> Pre-Iterations <==

   -------------------------------------------------------
    Irrep   Nso     Nmo     Nalpha   Nbeta   Ndocc  Nsocc
   -------------------------------------------------------
     A        314     314       0       0       0       0
   -------------------------------------------------------
    Total     314     314      58      58      58       0
   -------------------------------------------------------

  ==> Integral Setup <==

  Using integral reordering PK algorithm.
  Sizing the integral batches needed.
  Building batch lookup table.
   Calculation information:
      Number of atoms:                  34
      Number of AO shells:             150
      Number of primitives:            442
      Number of atomic orbitals:       330
      Number of basis functions:       314

      Integral cutoff                 1.00e-12
      Number of threads:                 1

	Batch   1 pq = [       0,    9405] index = [             0,44231715] size =     44231715
	Batch   2 pq = [    9405,   13301] index = [      44231715,88464951] size =     44233236
	Batch   3 pq = [   13301,   16290] index = [      88464951,132690195] size =     44225244
	Batch   4 pq = [   16290,   18810] index = [     132690195,176917455] size =     44227260
	Batch   5 pq = [   18810,   21030] index = [     176917455,221140965] size =     44223510
	Batch   6 pq = [   21030,   23037] index = [     221140965,265363203] size =     44222238
	Batch   7 pq = [   23037,   24883] index = [     265363203,309594286] size =     44231083
	Batch   8 pq = [   24883,   26601] index = [     309594286,353819901] size =     44225615
	Batch   9 pq = [   26601,   28214] index = [     353819901,398029005] size =     44209104
	Batch  10 pq = [   28214,   29740] index = [     398029005,442248670] size =     44219665
	Batch  11 pq = [   29740,   31191] index = [     442248670,486454836] size =     44206166
	Batch  12 pq = [   31191,   32578] index = [     486454836,530679331] size =     44224495
	Batch  13 pq = [   32578,   33908] index = [     530679331,574893186] size =     44213855
	Batch  14 pq = [   33908,   35188] index = [     574893186,619115266] size =     44222080
	Batch  15 pq = [   35188,   36423] index = [     619115266,663335676] size =     44220410
	Batch  16 pq = [   36423,   37617] index = [     663335676,707538153] size =     44202477
	Batch  17 pq = [   37617,   38775] index = [     707538153,751769700] size =     44231547
	Batch  18 pq = [   38775,   39899] index = [     751769700,795985050] size =     44215350
	Batch  19 pq = [   39899,   40992] index = [     795985050,840192528] size =     44207478
	Batch  20 pq = [   40992,   42057] index = [     840192528,884416653] size =     44224125
	Batch  21 pq = [   42057,   43095] index = [     884416653,928611060] size =     44194407
	Batch  22 pq = [   43095,   44109] index = [     928611060,972823995] size =     44212935
	Batch  23 pq = [   44109,   45100] index = [     972823995,1017027550] size =     44203555
	Batch  24 pq = [   45100,   46070] index = [    1017027550,1061245485] size =     44217935
	Batch  25 pq = [   46070,   47020] index = [    1061245485,1105463710] size =     44218225
	Batch  26 pq = [   47020,   47951] index = [    1105463710,1149673176] size =     44209466
	Batch  27 pq = [   47951,   48864] index = [    1149673176,1193869680] size =     44196504
	Batch  28 pq = [   48864,   49455] index = [    1193869680,1222923240] size =     29053560
  Task number: 111
  Buffer size: 11059200
  Buffer per thread: 2
  We computed 60560044 shell quartets total.
  Whereas there are 64133475 unique shell quartets.

  ==> DiskJK: Disk-Based J/K Matrices <==

    J tasked:                  Yes
    K tasked:                  Yes
    wK tasked:                  No
    Memory [MiB]:              375
    Schwarz Cutoff:          1E-12

    OpenMP threads:              1

  Minimum eigenvalue in the overlap matrix is 3.1146977254E-04.
  Using Symmetric Orthogonalization.

  SCF Guess: Superposition of Atomic Densities via on-the-fly atomic UHF.

  ==> Iterations <==

                        Total Energy        Delta E     RMS |[F,P]|

   @RHF iter SAD:  -651.91555825829789   -6.51916e+02   0.00000e+00
   @RHF iter   1:  -653.06987355052104   -1.15432e+00   2.24921e-03 DIIS
   @RHF iter   2:  -653.36292694004737   -2.93053e-01   9.28077e-04 DIIS
   @RHF iter   3:  -653.40661805313812   -4.36911e-02   2.24909e-04 DIIS
   @RHF iter   4:  -653.41054259901614   -3.92455e-03   8.51884e-05 DIIS
   @RHF iter   5:  -653.41095663959959   -4.14041e-04   1.67519e-05 DIIS
   @RHF iter   6:  -653.41097986617365   -2.32266e-05   5.36744e-06 DIIS
   @RHF iter   7:  -653.41098223966753   -2.37349e-06   1.67591e-06 DIIS
   @RHF iter   8:  -653.41098255035342   -3.10686e-07   6.61697e-07 DIIS
   @RHF iter   9:  -653.41098260108106   -5.07276e-08   2.42796e-07 DIIS
   @RHF iter  10:  -653.41098260977105   -8.68999e-09   1.03361e-07 DIIS
   @RHF iter  11:  -653.41098261215495   -2.38390e-09   5.11948e-08 DIIS
   @RHF iter  12:  -653.41098261282480   -6.69843e-10   2.57485e-08 DIIS
   @RHF iter  13:  -653.41098261299578   -1.70985e-10   7.89375e-09 DIIS
   @RHF iter  14:  -653.41098261300624   -1.04592e-11   2.27282e-09 DIIS
   @RHF iter  15:  -653.41098261301283   -6.59384e-12   6.33876e-10 DIIS
   @RHF iter  16:  -653.41098261300749    5.34328e-12   2.79094e-10 DIIS
   @RHF iter  17:  -653.41098261301204   -4.54747e-12   8.90532e-11 DIIS
  Energy and wave function converged.

  ==> Post-Iterations <==

    Orbital Energies [Eh]
    ---------------------

    Doubly Occupied:

       1A    -20.583043     2A    -11.306847     3A    -11.248509
       4A    -11.245858     5A    -11.240613     6A    -11.239984
       7A    -11.238550     8A    -11.235409     9A    -11.234759
      10A    -11.232670    11A    -11.231459    12A    -11.229340
      13A    -11.227358    14A    -11.226444    15A    -11.224687
      16A    -11.223543    17A     -1.396026    18A     -1.145067
      19A     -1.143662    20A     -1.053500    21A     -1.038988
      22A     -1.015985    23A     -1.005322    24A     -0.976148
      25A     -0.924548    26A     -0.858102    27A     -0.844105
      28A     -0.819346    29A     -0.791316    30A     -0.788692
      31A     -0.730387    32A     -0.682832    33A     -0.669524
      34A     -0.646309    35A     -0.627493    36A     -0.625622
      37A     -0.615347    38A     -0.598306    39A     -0.588992
      40A     -0.582547    41A     -0.578720    42A     -0.576094
      43A     -0.567207    44A     -0.553379    45A     -0.545511
      46A     -0.532853    47A     -0.514995    48A     -0.499216
      49A     -0.484026    50A     -0.480698    51A     -0.479494
      52A     -0.474260    53A     -0.471243    54A     -0.460572
      55A     -0.339016    56A     -0.327410    57A     -0.313190
      58A     -0.301385

    Virtual:

      59A      0.121805    60A      0.136491    61A      0.143535
      62A      0.146511    63A      0.176479    64A      0.178940
      65A      0.192291    66A      0.203989    67A      0.212498
      68A      0.215708    69A      0.228464    70A      0.245678
      71A      0.251925    72A      0.254809    73A      0.255578
      74A      0.274181    75A      0.281904    76A      0.283810
      77A      0.294195    78A      0.298589    79A      0.302395
      80A      0.335424    81A      0.343802    82A      0.368196
      83A      0.373265    84A      0.381589    85A      0.411524
      86A      0.424421    87A      0.450511    88A      0.460761
      89A      0.466810    90A      0.479062    91A      0.482189
      92A      0.488119    93A      0.492728    94A      0.508399
      95A      0.566304    96A      0.587034    97A      0.602546
      98A      0.605281    99A      0.634545   100A      0.640757
     101A      0.645344   102A      0.656328   103A      0.668070
     104A      0.674126   105A      0.683327   106A      0.699776
     107A      0.704970   108A      0.711066   109A      0.715766
     110A      0.718784   111A      0.726120   112A      0.736916
     113A      0.740709   114A      0.741917   115A      0.751858
     116A      0.753212   117A      0.755227   118A      0.770467
     119A      0.771193   120A      0.780420   121A      0.784792
     122A      0.810714   123A      0.815720   124A      0.835121
     125A      0.842676   126A      0.852110   127A      0.861699
     128A      0.866104   129A      0.873471   130A      0.878384
     131A      0.883032   132A      0.886311   133A      0.891517
     134A      0.892001   135A      0.898828   136A      0.904558
     137A      0.906851   138A      0.923679   139A      0.925167
     140A      0.929614   141A      0.940575   142A      0.940986
     143A      0.950230   144A      0.952302   145A      0.963825
     146A      0.971410   147A      0.989272   148A      0.996068
     149A      1.011015   150A      1.021289   151A      1.022554
     152A      1.055572   153A      1.078150   154A      1.085271
     155A      1.103913   156A      1.122652   157A      1.136639
     158A      1.144174   159A      1.145228   160A      1.160568
     161A      1.179192   162A      1.187442   163A      1.203311
     164A      1.207917   165A      1.224310   166A      1.240143
     167A      1.245277   168A      1.249835   169A      1.253143
     170A      1.268391   171A      1.280341   172A      1.283732
     173A      1.291679   174A      1.302600   175A      1.306752
     176A      1.312854   177A      1.320952   178A      1.326173
     179A      1.343387   180A      1.347541   181A      1.356145
     182A      1.372758   183A      1.416197   184A      1.425443
     185A      1.438855   186A      1.482649   187A      1.503420
     188A      1.517905   189A      1.528542   190A      1.554266
     191A      1.572201   192A      1.589727   193A      1.616987
     194A      1.622849   195A      1.627671   196A      1.678653
     197A      1.679944   198A      1.684379   199A      1.706649
     200A      1.728111   201A      1.732012   202A      1.736563
     203A      1.748013   204A      1.756794   205A      1.768055
     206A      1.784919   207A      1.791351   208A      1.810570
     209A      1.823992   210A      1.843513   211A      1.854520
     212A      1.864186   213A      1.870125   214A      1.879958
     215A      1.885545   216A      1.887425   217A      1.891094
     218A      1.898920   219A      1.910902   220A      1.913152
     221A      1.916682   222A      1.920844   223A      1.930074
     224A      1.940287   225A      1.942160   226A      1.948252
     227A      1.955292   228A      1.968335   229A      1.977604
     230A      1.985597   231A      1.992023   232A      1.998104
     233A      2.001312   234A      2.010297   235A      2.025629
     236A      2.035985   237A      2.041502   238A      2.051091
     239A      2.059849   240A      2.064281   241A      2.071158
     242A      2.075397   243A      2.093782   244A      2.111152
     245A      2.118679   246A      2.129357   247A      2.141305
     248A      2.150922   249A      2.157395   250A      2.167988
     251A      2.180277   252A      2.193555   253A      2.216070
     254A      2.236398   255A      2.243473   256A      2.255152
     257A      2.265695   258A      2.279391   259A      2.287785
     260A      2.301586   261A      2.304793   262A      2.312957
     263A      2.318234   264A      2.350112   265A      2.356292
     266A      2.365476   267A      2.436919   268A      2.445293
     269A      2.456373   270A      2.464994   271A      2.475674
     272A      2.484214   273A      2.489736   274A      2.505208
     275A      2.523462   276A      2.541943   277A      2.546302
     278A      2.550416   279A      2.618840   280A      2.626806
     281A      2.640991   282A      2.738641   283A      2.743324
     284A      2.757205   285A      2.767246   286A      2.772571
     287A      2.781846   288A      2.787941   289A      2.796855
     290A      2.818683   291A      2.848392   292A      2.852612
     293A      2.854352   294A      2.884715   295A      2.911015
     296A      2.929834   297A      2.955193   298A      2.964513
     299A      2.986751   300A      3.016684   301A      3.025846
     302A      3.053444   303A      3.139417   304A      3.150370
     305A      3.196715   306A      3.237144   307A      3.254031
     308A      3.294000   309A      3.341441   310A      3.552963
     311A      3.629645   312A      3.946719   313A      3.949753
     314A      4.174184

    Final Occupation by Irrep:
              A
    DOCC [    58 ]

  @RHF Final Energy:  -653.41098261301204

   => Energetics <=

    Nuclear Repulsion Energy =            980.1605427379639650
    One-Electron Energy =               -2831.4700290224232049
    Two-Electron Energy =                1197.8985036714470880
    Total Energy =                       -653.4109826130120382

Computation Completed

Properties will be evaluated at   0.000000,   0.000000,   0.000000 [a0]

Properties computed using the SCF density matrix

  Nuclear Dipole Moment: [e a0]
     X:    10.9120      Y:     0.1307      Z:     3.3381

  Electronic Dipole Moment: [e a0]
     X:   -10.4974      Y:    -0.2977      Z:    -3.6802

  Dipole Moment: [e a0]
     X:     0.4146      Y:    -0.1670      Z:    -0.3421     Total:     0.5629

  Dipole Moment: [D]
     X:     1.0539      Y:    -0.4246      Z:    -0.8696     Total:     1.4308

*** tstop() called on ds3 at Mon Apr 27 13:41:09 2020
Module time:
	user time   =     601.65 seconds =      10.03 minutes
	system time =     206.62 seconds =       3.44 minutes
	total time  =       1047 seconds =      17.45 minutes
Total time:
	user time   =     601.65 seconds =      10.03 minutes
	system time =     206.62 seconds =       3.44 minutes
	total time  =       1047 seconds =      17.45 minutes
                                     G D M A

                                 by Anthony Stone

                           version 2.2.06, 22 June 2011

               Distributed Multipoles from Gaussian wavefunctions

Starting at 13:41:9 on 27 Apr 2020

Using SCF density matrix from file ./SSI/SSI-021TYR-088PHE-1-dimer.test.6437.fchk

                         Distributed Multipole Analysis

Standard DMA

Positions and radii in angstrom
Multipole moments in atomic units, ea_0^k for rank k

C          x =  0.630068  y = -1.883885  z =  2.004019 angstrom
           Maximum rank =  0   Radius =  0.650 angstrom
                   Q00  =  -0.018736

C          x =  1.034068  y = -3.282885  z =  2.492019 angstrom
           Maximum rank =  0   Radius =  0.650 angstrom
                   Q00  =  -0.237449

C          x = -0.586932  y = -1.839885  z =  1.073019 angstrom
           Maximum rank =  0   Radius =  0.650 angstrom
                   Q00  =  -0.166648

C          x = -0.454932  y = -2.143885  z = -0.307981 angstrom
           Maximum rank =  0   Radius =  0.650 angstrom
                   Q00  =   0.007378

C          x = -1.850932  y = -1.487885  z =  1.570019 angstrom
           Maximum rank =  0   Radius =  0.650 angstrom
                   Q00  =  -0.036743

C          x = -1.554932  y = -2.098885  z = -1.185981 angstrom
           Maximum rank =  0   Radius =  0.650 angstrom
                   Q00  =  -0.176782

C          x = -2.960932  y = -1.427885  z =  0.703019 angstrom
           Maximum rank =  0   Radius =  0.650 angstrom
                   Q00  =  -0.131521

C          x = -2.800932  y = -1.733885  z = -0.668981 angstrom
           Maximum rank =  0   Radius =  0.650 angstrom
                   Q00  =   0.319764

O          x = -3.866932  y = -1.661885  z = -1.528981 angstrom
           Maximum rank =  0   Radius =  0.650 angstrom
                   Q00  =  -0.645199

H          x =  0.430068  y = -1.290885  z =  2.899019 angstrom
           Maximum rank =  0   Radius =  0.325 angstrom
                   Q00  =   0.063174

H          x =  1.490068  y = -1.454885  z =  1.486019 angstrom
           Maximum rank =  0   Radius =  0.325 angstrom
                   Q00  =   0.068565

H          x =  1.860068  y = -3.183885  z =  3.198019 angstrom
           Maximum rank =  0   Radius =  0.325 angstrom
                   Q00  =   0.082529

H          x =  0.521068  y = -2.417885  z = -0.688981 angstrom
           Maximum rank =  0   Radius =  0.325 angstrom
                   Q00  =   0.070265

H          x = -1.967932  y = -1.261885  z =  2.621019 angstrom
           Maximum rank =  0   Radius =  0.325 angstrom
                   Q00  =   0.069396

H          x = -1.468932  y = -2.349885  z = -2.235981 angstrom
           Maximum rank =  0   Radius =  0.325 angstrom
                   Q00  =   0.075340

H          x = -3.933932  y = -1.144885  z =  1.084019 angstrom
           Maximum rank =  0   Radius =  0.325 angstrom
                   Q00  =   0.085439

H          x = -3.634932  y = -1.874885  z = -2.439981 angstrom
           Maximum rank =  0   Radius =  0.325 angstrom
                   Q00  =   0.409540

H          x =  1.354920  y = -3.896655  z =  1.637419 angstrom
           Maximum rank =  0   Radius =  0.325 angstrom
                   Q00  =   0.081756

H          x =  0.216943  y = -3.742655  z =  3.067279 angstrom
           Maximum rank =  0   Radius =  0.325 angstrom
                   Q00  =   0.082997

C          x =  3.214068  y =  3.887115  z = -2.139981 angstrom
           Maximum rank =  0   Radius =  0.650 angstrom
                   Q00  =  -0.183505

C          x =  0.764068  y =  1.639115  z =  0.570019 angstrom
           Maximum rank =  0   Radius =  0.650 angstrom
                   Q00  =  -0.102454

C          x =  1.286068  y =  1.013115  z = -0.567981 angstrom
           Maximum rank =  0   Radius =  0.650 angstrom
                   Q00  =  -0.063093

C          x =  1.065068  y =  3.000115  z =  0.836019 angstrom
           Maximum rank =  0   Radius =  0.650 angstrom
                   Q00  =  -0.063595

C          x =  2.098068  y =  1.751115  z = -1.429981 angstrom
           Maximum rank =  0   Radius =  0.650 angstrom
                   Q00  =   0.002702

C          x =  1.893068  y =  3.718115  z = -0.035981 angstrom
           Maximum rank =  0   Radius =  0.650 angstrom
                   Q00  =  -0.083349

C          x =  2.400068  y =  3.093115  z = -1.172981 angstrom
           Maximum rank =  0   Radius =  0.650 angstrom
                   Q00  =  -0.110988

H          x =  0.130068  y =  1.076115  z =  1.246019 angstrom
           Maximum rank =  0   Radius =  0.325 angstrom
                   Q00  =   0.068970

H          x =  1.062068  y = -0.023885  z = -0.775981 angstrom
           Maximum rank =  0   Radius =  0.325 angstrom
                   Q00  =   0.067186

H          x =  0.660068  y =  3.494115  z =  1.711019 angstrom
           Maximum rank =  0   Radius =  0.325 angstrom
                   Q00  =   0.065759

H          x =  2.504068  y =  1.286115  z = -2.315981 angstrom
           Maximum rank =  0   Radius =  0.325 angstrom
                   Q00  =   0.049753

H          x =  2.135068  y =  4.752115  z =  0.167019 angstrom
           Maximum rank =  0   Radius =  0.325 angstrom
                   Q00  =   0.057789

H          x =  3.954068  y =  3.211115  z = -2.559981 angstrom
           Maximum rank =  0   Radius =  0.325 angstrom
                   Q00  =   0.093235

H          x =  3.721068  y =  4.660115  z = -1.563981 angstrom
           Maximum rank =  0   Radius =  0.325 angstrom
                   Q00  =   0.094282

H          x =  2.625783  y =  4.310485  z = -2.967431 angstrom
           Maximum rank =  0   Radius =  0.325 angstrom
                   Q00  =   0.104242

Total multipoles referred to origin at
           x =   0.000000,  y =    0.000000,  z =    0.000000 angstrom
                   Q00  =  -0.000000

Finished at 13:41:9 on 27 Apr 2020

  DMA results are available in the Python driver through the
	  variable('DMA DISTRIBUTED MULTIPOLES')
  and
	  variable('DMA TOTAL MULTIPOLES')
  commands.

    Psi4 stopped on: Monday, 27 April 2020 01:41PM
    Psi4 wall time for execution: 0:17:27.77

*** Psi4 exiting successfully. Buy a developer a beer!
