                               Psi4 1.3.2 release

  ==> Input File <==

--------------------------------------------------------------------------
import numpy as np
set {scf_type pk
basis cc-pvdz
d_convergence 10
gdma_switch   0
gdma_limit    0
gdma_origin   [ 0.0,  0.0,  0.0 ]
}
molecule test {
    units Angstrom
    1 1
    --
    1 1
    C               -1.783364264634865    -1.528014977342904    -2.205896334562079
    C               -1.382364264634865    -0.123014977342904    -2.359896334562079
    O               -0.568364264634865     0.475985022657096    -1.664896334562079
    N               -1.903364264634865     0.637985022657096    -3.158896334562080
    H               -2.791364264634865    -1.678014977342905    -2.594896334562080
    H               -1.771364264634865    -1.757014977342904    -1.144896334562080
    H               -1.581364264634865     1.591985022657096    -3.162896334562080
    H               -2.624364264634865     0.318985022657096    -3.788896334562080
    H               -1.063711264634865    -2.156454977342904    -2.751023334562079
    C                3.017635735365135     0.694985022657096     2.040103665437921
    C                0.668635735365135    -0.043014977342904     1.840103665437920
    N               -0.174364264634865    -0.877014977342904     1.247103665437920
    N                1.946635735365135    -0.160014977342904     1.549103665437920
    N                0.229635735365135     0.845985022657096     2.710103665437920
    H                0.219635735365135    -1.606014977342904     0.646103665437921
    H               -1.164364264634865    -0.892014977342904     1.425103665437921
    H                2.198635735365135    -0.863014977342904     0.852103665437920
    H                0.879635735365135     1.432985022657095     3.219103665437920
    H               -0.758364264634865     0.966985022657096     2.849103665437920
    H                2.634635735365135     1.698985022657096     2.224103665437920
    H                3.772635735365135     0.781985022657096     1.256103665437921
    H                3.502865735365135     0.292085022657096     2.941341665437920

}
e, wfn = energy('scf', return_wfn=True)
gdma(wfn)
dmavals = variable('DMA DISTRIBUTED MULTIPOLES')
charges = np.array(dmavals)
print(charges)
np.save('SSI-052GLN-069ARG-1-dimer.npy', np.array(charges))--------------------------------------------------------------------------

*** tstart() called on ds3
*** at Tue Apr 28 00:35:55 2020

   => Loading Basis Set <=

    Name: CC-PVDZ
    Role: ORBITAL
    Keyword: BASIS
    atoms 1-2, 10-11 entry C          line   138 file /theoryfs2/ds/metcalf/miniconda2/envs/tf2gpu/share/psi4/basis/cc-pvdz.gbs
    atoms 3          entry O          line   198 file /theoryfs2/ds/metcalf/miniconda2/envs/tf2gpu/share/psi4/basis/cc-pvdz.gbs
    atoms 4, 12-14   entry N          line   168 file /theoryfs2/ds/metcalf/miniconda2/envs/tf2gpu/share/psi4/basis/cc-pvdz.gbs
    atoms 5-9, 15-22 entry H          line    22 file /theoryfs2/ds/metcalf/miniconda2/envs/tf2gpu/share/psi4/basis/cc-pvdz.gbs

         ---------------------------------------------------------
                                   SCF
               by Justin Turney, Rob Parrish, Andy Simmonett
                          and Daniel G. A. Smith
                              RHF Reference
                        1 Threads,    500 MiB Core
         ---------------------------------------------------------

  ==> Geometry <==

    Molecular point group: c1
    Full point group: C1

    Geometry (in Angstrom), charge = 1, multiplicity = 1:

       Center              X                  Y                   Z               Mass
    ------------   -----------------  -----------------  -----------------  -----------------
         C           -1.783364264635    -1.528014977343    -2.205896334562    12.000000000000
         C           -1.382364264635    -0.123014977343    -2.359896334562    12.000000000000
         O           -0.568364264635     0.475985022657    -1.664896334562    15.994914619570
         N           -1.903364264635     0.637985022657    -3.158896334562    14.003074004430
         H           -2.791364264635    -1.678014977343    -2.594896334562     1.007825032230
         H           -1.771364264635    -1.757014977343    -1.144896334562     1.007825032230
         H           -1.581364264635     1.591985022657    -3.162896334562     1.007825032230
         H           -2.624364264635     0.318985022657    -3.788896334562     1.007825032230
         H           -1.063711264635    -2.156454977343    -2.751023334562     1.007825032230
         C            3.017635735365     0.694985022657     2.040103665438    12.000000000000
         C            0.668635735365    -0.043014977343     1.840103665438    12.000000000000
         N           -0.174364264635    -0.877014977343     1.247103665438    14.003074004430
         N            1.946635735365    -0.160014977343     1.549103665438    14.003074004430
         N            0.229635735365     0.845985022657     2.710103665438    14.003074004430
         H            0.219635735365    -1.606014977343     0.646103665438     1.007825032230
         H           -1.164364264635    -0.892014977343     1.425103665438     1.007825032230
         H            2.198635735365    -0.863014977343     0.852103665438     1.007825032230
         H            0.879635735365     1.432985022657     3.219103665438     1.007825032230
         H           -0.758364264635     0.966985022657     2.849103665438     1.007825032230
         H            2.634635735365     1.698985022657     2.224103665438     1.007825032230
         H            3.772635735365     0.781985022657     1.256103665438     1.007825032230
         H            3.502865735365     0.292085022657     2.941341665438     1.007825032230

  Running in c1 symmetry.

  Rotational constants: A =      0.09564  B =      0.01743  C =      0.01682 [cm^-1]
  Rotational constants: A =   2867.15644  B =    522.44092  C =    504.28773 [MHz]
  Nuclear repulsion =  458.858035856220056

  Charge       = 1
  Multiplicity = 1
  Electrons    = 72
  Nalpha       = 36
  Nbeta        = 36

  ==> Algorithm <==

  SCF Algorithm Type is PK.
  DIIS enabled.
  MOM disabled.
  Fractional occupation disabled.
  Guess Type is SAD.
  Energy threshold   = 1.00e-06
  Density threshold  = 1.00e-10
  Integral threshold = 0.00e+00

  ==> Primary Basis <==

  Basis Set: CC-PVDZ
    Blend: CC-PVDZ
    Number of shells: 93
    Number of basis function: 191
    Number of Cartesian functions: 200
    Spherical Harmonics?: true
    Max angular momentum: 2

  ==> Pre-Iterations <==

   -------------------------------------------------------
    Irrep   Nso     Nmo     Nalpha   Nbeta   Ndocc  Nsocc
   -------------------------------------------------------
     A        191     191       0       0       0       0
   -------------------------------------------------------
    Total     191     191      36      36      36       0
   -------------------------------------------------------

  ==> Integral Setup <==

  Using integral reordering PK algorithm.
  Sizing the integral batches needed.
  Building batch lookup table.
   Calculation information:
      Number of atoms:                  22
      Number of AO shells:              93
      Number of primitives:            263
      Number of atomic orbitals:       200
      Number of basis functions:       191

      Integral cutoff                 1.00e-12
      Number of threads:                 1

	Batch   1 pq = [       0,    9405] index = [             0,44231715] size =     44231715
	Batch   2 pq = [    9405,   13301] index = [      44231715,88464951] size =     44233236
	Batch   3 pq = [   13301,   16290] index = [      88464951,132690195] size =     44225244
	Batch   4 pq = [   16290,   18336] index = [     132690195,168113616] size =     35423421
  Task number: 16
  Buffer size: 11059200
  Buffer per thread: 2
  We computed 7041581 shell quartets total.
  Whereas there are 9555006 unique shell quartets.

  ==> DiskJK: Disk-Based J/K Matrices <==

    J tasked:                  Yes
    K tasked:                  Yes
    wK tasked:                  No
    Memory [MiB]:              375
    Schwarz Cutoff:          1E-12

    OpenMP threads:              1

  Minimum eigenvalue in the overlap matrix is 3.6553691876E-03.
  Using Symmetric Orthogonalization.

  SCF Guess: Superposition of Atomic Densities via on-the-fly atomic UHF.

  ==> Iterations <==

                        Total Energy        Delta E     RMS |[F,P]|

   @RHF iter SAD:  -451.06634141601785   -4.51066e+02   0.00000e+00
   @RHF iter   1:  -451.28324746112099   -2.16906e-01   3.76560e-03 DIIS
   @RHF iter   2:  -451.50100525055956   -2.17758e-01   1.90243e-03 DIIS
   @RHF iter   3:  -451.55067508273964   -4.96698e-02   4.36591e-04 DIIS
   @RHF iter   4:  -451.55456504942845   -3.88997e-03   1.63490e-04 DIIS
   @RHF iter   5:  -451.55510158247472   -5.36533e-04   2.67248e-05 DIIS
   @RHF iter   6:  -451.55513046156841   -2.88791e-05   1.04589e-05 DIIS
   @RHF iter   7:  -451.55513396027914   -3.49871e-06   3.25818e-06 DIIS
   @RHF iter   8:  -451.55513450565803   -5.45379e-07   1.08694e-06 DIIS
   @RHF iter   9:  -451.55513456703153   -6.13735e-08   3.57577e-07 DIIS
   @RHF iter  10:  -451.55513457340612   -6.37459e-09   1.39326e-07 DIIS
   @RHF iter  11:  -451.55513457428162   -8.75502e-10   3.14668e-08 DIIS
   @RHF iter  12:  -451.55513457432755   -4.59295e-11   1.11016e-08 DIIS
   @RHF iter  13:  -451.55513457433216   -4.60432e-12   2.87508e-09 DIIS
   @RHF iter  14:  -451.55513457433369   -1.53477e-12   7.44119e-10 DIIS
   @RHF iter  15:  -451.55513457432960    4.09273e-12   2.87611e-10 DIIS
   @RHF iter  16:  -451.55513457433182   -2.21689e-12   1.16616e-10 DIIS
   @RHF iter  17:  -451.55513457433130    5.11591e-13   4.57633e-11 DIIS
  Energy and wave function converged.

  ==> Post-Iterations <==

    Orbital Energies [Eh]
    ---------------------

    Doubly Occupied:

       1A    -20.576646     2A    -15.773405     3A    -15.769663
       4A    -15.764475     5A    -15.676734     6A    -11.571455
       7A    -11.427052     8A    -11.426672     9A    -11.349391
      10A     -1.527375    11A     -1.492631    12A     -1.386130
      13A     -1.370343    14A     -1.319251    15A     -1.128550
      16A     -1.121690    17A     -1.020002    18A     -0.957787
      19A     -0.922347    20A     -0.909462    21A     -0.845518
      22A     -0.839200    23A     -0.832994    24A     -0.807981
      25A     -0.779259    26A     -0.756944    27A     -0.733515
      28A     -0.727115    29A     -0.707933    30A     -0.673033
      31A     -0.654341    32A     -0.638487    33A     -0.598372
      34A     -0.566721    35A     -0.502683    36A     -0.488205

    Virtual:

      37A      0.005131    38A      0.038189    39A      0.043049
      40A      0.045970    41A      0.064796    42A      0.091368
      43A      0.093296    44A      0.108240    45A      0.125793
      46A      0.132745    47A      0.137265    48A      0.145667
      49A      0.152530    50A      0.179727    51A      0.195570
      52A      0.209593    53A      0.285834    54A      0.301899
      55A      0.346138    56A      0.352504    57A      0.367012
      58A      0.432795    59A      0.455364    60A      0.471892
      61A      0.526708    62A      0.537547    63A      0.542796
      64A      0.552404    65A      0.557903    66A      0.558960
      67A      0.586122    68A      0.598101    69A      0.614892
      70A      0.627796    71A      0.638327    72A      0.683334
      73A      0.694998    74A      0.707614    75A      0.718201
      76A      0.721947    77A      0.733669    78A      0.750975
      79A      0.763859    80A      0.769482    81A      0.791573
      82A      0.797662    83A      0.813774    84A      0.833303
      85A      0.856689    86A      0.864755    87A      0.884652
      88A      0.908013    89A      0.912055    90A      0.924166
      91A      0.934963    92A      0.953233    93A      1.001682
      94A      1.013248    95A      1.041952    96A      1.073616
      97A      1.076096    98A      1.125369    99A      1.145747
     100A      1.162593   101A      1.214985   102A      1.221417
     103A      1.225458   104A      1.240442   105A      1.267472
     106A      1.287690   107A      1.298156   108A      1.312189
     109A      1.362351   110A      1.408617   111A      1.415354
     112A      1.461579   113A      1.473675   114A      1.501778
     115A      1.536532   116A      1.540423   117A      1.552138
     118A      1.562819   119A      1.577898   120A      1.621035
     121A      1.637104   122A      1.678611   123A      1.713151
     124A      1.721065   125A      1.735688   126A      1.746297
     127A      1.751024   128A      1.754414   129A      1.766284
     130A      1.776777   131A      1.795745   132A      1.811347
     133A      1.820601   134A      1.829228   135A      1.834124
     136A      1.860147   137A      1.885095   138A      1.891961
     139A      1.907392   140A      1.973156   141A      2.002381
     142A      2.015185   143A      2.035041   144A      2.038113
     145A      2.077589   146A      2.138050   147A      2.148278
     148A      2.161801   149A      2.185840   150A      2.196164
     151A      2.233617   152A      2.288872   153A      2.306412
     154A      2.316545   155A      2.318984   156A      2.344823
     157A      2.366435   158A      2.380734   159A      2.382683
     160A      2.437980   161A      2.480041   162A      2.486891
     163A      2.511313   164A      2.554118   165A      2.577905
     166A      2.598130   167A      2.608813   168A      2.640531
     169A      2.649267   170A      2.677306   171A      2.701160
     172A      2.735106   173A      2.774349   174A      2.803782
     175A      2.811911   176A      2.840781   177A      2.847452
     178A      2.909702   179A      2.979793   180A      3.061536
     181A      3.069073   182A      3.085941   183A      3.097448
     184A      3.124085   185A      3.255621   186A      3.407036
     187A      3.446649   188A      3.592715   189A      3.653364
     190A      3.809830   191A      3.935504

    Final Occupation by Irrep:
              A
    DOCC [    36 ]

  @RHF Final Energy:  -451.55513457433130

   => Energetics <=

    Nuclear Repulsion Energy =            458.8580358562200558
    One-Electron Energy =               -1513.5396132575647243
    Two-Electron Energy =                 603.1264428270133067
    Total Energy =                       -451.5551345743313050

Computation Completed

Properties will be evaluated at   0.000000,   0.000000,   0.000000 [a0]

Properties computed using the SCF density matrix

  Nuclear Dipole Moment: [e a0]
     X:     1.3593      Y:    -1.7507      Z:     1.8324

  Electronic Dipole Moment: [e a0]
     X:    -1.1642      Y:     1.3255      Z:     0.0699

  Dipole Moment: [e a0]
     X:     0.1950      Y:    -0.4252      Z:     1.9023     Total:     1.9590

  Dipole Moment: [D]
     X:     0.4957      Y:    -1.0808      Z:     4.8351     Total:     4.9792

*** tstop() called on ds3 at Tue Apr 28 00:38:10 2020
Module time:
	user time   =      47.70 seconds =       0.80 minutes
	system time =      22.72 seconds =       0.38 minutes
	total time  =        135 seconds =       2.25 minutes
Total time:
	user time   =      47.70 seconds =       0.80 minutes
	system time =      22.72 seconds =       0.38 minutes
	total time  =        135 seconds =       2.25 minutes
                                     G D M A

                                 by Anthony Stone

                           version 2.2.06, 22 June 2011

               Distributed Multipoles from Gaussian wavefunctions

Starting at 0:38:10 on 28 Apr 2020

Using SCF density matrix from file ./SSI/SSI-052GLN-069ARG-1-dimer.test.5460.fchk

                         Distributed Multipole Analysis

Standard DMA

Positions and radii in angstrom
Multipole moments in atomic units, ea_0^k for rank k

C          x = -1.783364  y = -1.528015  z = -2.205896 angstrom
           Maximum rank =  0   Radius =  0.650 angstrom
                   Q00  =  -0.274075

C          x = -1.382364  y = -0.123015  z = -2.359896 angstrom
           Maximum rank =  0   Radius =  0.650 angstrom
                   Q00  =   0.901234

O          x = -0.568364  y =  0.475985  z = -1.664896 angstrom
           Maximum rank =  0   Radius =  0.650 angstrom
                   Q00  =  -0.927687

N          x = -1.903364  y =  0.637985  z = -3.158896 angstrom
           Maximum rank =  0   Radius =  0.650 angstrom
                   Q00  =  -0.494759

H          x = -2.791364  y = -1.678015  z = -2.594896 angstrom
           Maximum rank =  0   Radius =  0.325 angstrom
                   Q00  =   0.113182

H          x = -1.771364  y = -1.757015  z = -1.144896 angstrom
           Maximum rank =  0   Radius =  0.325 angstrom
                   Q00  =   0.097646

H          x = -1.581364  y =  1.591985  z = -3.162896 angstrom
           Maximum rank =  0   Radius =  0.325 angstrom
                   Q00  =   0.246849

H          x = -2.624364  y =  0.318985  z = -3.788896 angstrom
           Maximum rank =  0   Radius =  0.325 angstrom
                   Q00  =   0.197590

H          x = -1.063711  y = -2.156455  z = -2.751023 angstrom
           Maximum rank =  0   Radius =  0.325 angstrom
                   Q00  =   0.142934

C          x =  3.017636  y =  0.694985  z =  2.040104 angstrom
           Maximum rank =  0   Radius =  0.650 angstrom
                   Q00  =  -0.129177

C          x =  0.668636  y = -0.043015  z =  1.840104 angstrom
           Maximum rank =  0   Radius =  0.650 angstrom
                   Q00  =   1.072549

N          x = -0.174364  y = -0.877015  z =  1.247104 angstrom
           Maximum rank =  0   Radius =  0.650 angstrom
                   Q00  =  -0.571298

N          x =  1.946636  y = -0.160015  z =  1.549104 angstrom
           Maximum rank =  0   Radius =  0.650 angstrom
                   Q00  =  -0.477263

N          x =  0.229636  y =  0.845985  z =  2.710104 angstrom
           Maximum rank =  0   Radius =  0.650 angstrom
                   Q00  =  -0.585308

H          x =  0.219636  y = -1.606015  z =  0.646104 angstrom
           Maximum rank =  0   Radius =  0.325 angstrom
                   Q00  =   0.258055

H          x = -1.164364  y = -0.892015  z =  1.425104 angstrom
           Maximum rank =  0   Radius =  0.325 angstrom
                   Q00  =   0.262452

H          x =  2.198636  y = -0.863015  z =  0.852104 angstrom
           Maximum rank =  0   Radius =  0.325 angstrom
                   Q00  =   0.234803

H          x =  0.879636  y =  1.432985  z =  3.219104 angstrom
           Maximum rank =  0   Radius =  0.325 angstrom
                   Q00  =   0.270961

H          x = -0.758364  y =  0.966985  z =  2.849104 angstrom
           Maximum rank =  0   Radius =  0.325 angstrom
                   Q00  =   0.265460

H          x =  2.634636  y =  1.698985  z =  2.224104 angstrom
           Maximum rank =  0   Radius =  0.325 angstrom
                   Q00  =   0.111673

H          x =  3.772636  y =  0.781985  z =  1.256104 angstrom
           Maximum rank =  0   Radius =  0.325 angstrom
                   Q00  =   0.158028

H          x =  3.502866  y =  0.292085  z =  2.941342 angstrom
           Maximum rank =  0   Radius =  0.325 angstrom
                   Q00  =   0.126150

Total multipoles referred to origin at
           x =   0.000000,  y =    0.000000,  z =    0.000000 angstrom
                   Q00  =   1.000000

Finished at 0:38:10 on 28 Apr 2020

  DMA results are available in the Python driver through the
	  variable('DMA DISTRIBUTED MULTIPOLES')
  and
	  variable('DMA TOTAL MULTIPOLES')
  commands.

    Psi4 stopped on: Tuesday, 28 April 2020 12:38AM
    Psi4 wall time for execution: 0:02:14.82

*** Psi4 exiting successfully. Buy a developer a beer!
