                               Psi4 1.3.2 release

  ==> Input File <==

--------------------------------------------------------------------------
import numpy as np
set {scf_type pk
basis cc-pvdz
d_convergence 10
gdma_switch   0
gdma_limit    0
gdma_origin   [ 0.0,  0.0,  0.0 ]
}
molecule test {
    units Angstrom
    0 1
    --
    0 1
    C                1.511164830498320    -1.125385790129233    -0.262188229664640
    C                2.443164830498321    -1.099385790129233     0.949811770335360
    H                0.453164830498320    -1.052385790129233    -0.068188229664639
    H                1.792164830498320    -0.312385790129233    -0.932188229664640
    H                1.671164830498320    -2.062385790129233    -0.796188229664640
    H                2.476164830498321    -0.093385790129233     1.368811770335361
    H                3.441164830498320    -1.369385790129233     0.604811770335360
    H                2.088414830498320    -1.805305790129233     1.715210770335361
    C               -1.997835169501680     0.352614209870767    -0.389188229664640
    C               -1.955835169501680     1.878614209870767    -0.291188229664640
    H               -1.384835169501680     0.006614209870767    -1.224188229664639
    H               -1.676835169501680    -0.119385790129233     0.533811770335361
    H               -3.011835169501679    -0.013385790129233    -0.531188229664640
    H               -2.455835169501679     2.167614209870766     0.629811770335361
    H               -2.487327569501679     2.348891209870767    -1.131638229664640
    H               -0.913421169501680     2.228006209870766    -0.255168229664639

}
e, wfn = energy('scf', return_wfn=True)
gdma(wfn)
dmavals = variable('DMA DISTRIBUTED MULTIPOLES')
charges = np.array(dmavals)
print(charges)
np.save('SSI-025ILE-084ILE-2-dimer.npy', np.array(charges))--------------------------------------------------------------------------

*** tstart() called on ds3
*** at Mon Apr 27 06:51:54 2020

   => Loading Basis Set <=

    Name: CC-PVDZ
    Role: ORBITAL
    Keyword: BASIS
    atoms 1-2, 9-10  entry C          line   138 file /theoryfs2/ds/metcalf/miniconda2/envs/tf2gpu/share/psi4/basis/cc-pvdz.gbs
    atoms 3-8, 11-16 entry H          line    22 file /theoryfs2/ds/metcalf/miniconda2/envs/tf2gpu/share/psi4/basis/cc-pvdz.gbs

         ---------------------------------------------------------
                                   SCF
               by Justin Turney, Rob Parrish, Andy Simmonett
                          and Daniel G. A. Smith
                              RHF Reference
                        1 Threads,    500 MiB Core
         ---------------------------------------------------------

  ==> Geometry <==

    Molecular point group: c1
    Full point group: C1

    Geometry (in Angstrom), charge = 0, multiplicity = 1:

       Center              X                  Y                   Z               Mass
    ------------   -----------------  -----------------  -----------------  -----------------
         C            1.511164830498    -1.125385790129    -0.262188229665    12.000000000000
         C            2.443164830498    -1.099385790129     0.949811770335    12.000000000000
         H            0.453164830498    -1.052385790129    -0.068188229665     1.007825032230
         H            1.792164830498    -0.312385790129    -0.932188229665     1.007825032230
         H            1.671164830498    -2.062385790129    -0.796188229665     1.007825032230
         H            2.476164830498    -0.093385790129     1.368811770335     1.007825032230
         H            3.441164830498    -1.369385790129     0.604811770335     1.007825032230
         H            2.088414830498    -1.805305790129     1.715210770335     1.007825032230
         C           -1.997835169502     0.352614209871    -0.389188229665    12.000000000000
         C           -1.955835169502     1.878614209871    -0.291188229665    12.000000000000
         H           -1.384835169502     0.006614209871    -1.224188229665     1.007825032230
         H           -1.676835169502    -0.119385790129     0.533811770335     1.007825032230
         H           -3.011835169502    -0.013385790129    -0.531188229665     1.007825032230
         H           -2.455835169502     2.167614209871     0.629811770335     1.007825032230
         H           -2.487327569502     2.348891209871    -1.131638229665     1.007825032230
         H           -0.913421169502     2.228006209871    -0.255168229665     1.007825032230

  Running in c1 symmetry.

  Rotational constants: A =      0.43460  B =      0.04864  C =      0.04668 [cm^-1]
  Rotational constants: A =  13028.98877  B =   1458.09695  C =   1399.36732 [MHz]
  Nuclear repulsion =  121.810113571192446

  Charge       = 0
  Multiplicity = 1
  Electrons    = 36
  Nalpha       = 18
  Nbeta        = 18

  ==> Algorithm <==

  SCF Algorithm Type is PK.
  DIIS enabled.
  MOM disabled.
  Fractional occupation disabled.
  Guess Type is SAD.
  Energy threshold   = 1.00e-06
  Density threshold  = 1.00e-10
  Integral threshold = 0.00e+00

  ==> Primary Basis <==

  Basis Set: CC-PVDZ
    Blend: CC-PVDZ
    Number of shells: 60
    Number of basis function: 116
    Number of Cartesian functions: 120
    Spherical Harmonics?: true
    Max angular momentum: 2

  ==> Pre-Iterations <==

   -------------------------------------------------------
    Irrep   Nso     Nmo     Nalpha   Nbeta   Ndocc  Nsocc
   -------------------------------------------------------
     A        116     116       0       0       0       0
   -------------------------------------------------------
    Total     116     116      18      18      18       0
   -------------------------------------------------------

  ==> Integral Setup <==

  Using integral reordering PK algorithm.
  Sizing the integral batches needed.
  Building batch lookup table.
   Calculation information:
      Number of atoms:                  16
      Number of AO shells:              60
      Number of primitives:            148
      Number of atomic orbitals:       120
      Number of basis functions:       116

      Integral cutoff                 1.00e-12
      Number of threads:                 1

	Batch   1 pq = [       0,    6786] index = [             0,23028291] size =     23028291
  Task number: 3
  Buffer size: 11059200
  Buffer per thread: 2
  We computed 1431342 shell quartets total.
  Whereas there are 1675365 unique shell quartets.

  ==> DiskJK: Disk-Based J/K Matrices <==

    J tasked:                  Yes
    K tasked:                  Yes
    wK tasked:                  No
    Memory [MiB]:              375
    Schwarz Cutoff:          1E-12

    OpenMP threads:              1

  Minimum eigenvalue in the overlap matrix is 7.4029750594E-03.
  Using Symmetric Orthogonalization.

  SCF Guess: Superposition of Atomic Densities via on-the-fly atomic UHF.

  ==> Iterations <==

                        Total Energy        Delta E     RMS |[F,P]|

   @RHF iter SAD:  -157.35990339683082   -1.57360e+02   0.00000e+00
   @RHF iter   1:  -158.30561439082049   -9.45711e-01   4.21426e-03 DIIS
   @RHF iter   2:  -158.43886698258416   -1.33253e-01   1.79806e-03 DIIS
   @RHF iter   3:  -158.46230112370964   -2.34341e-02   3.49944e-04 DIIS
   @RHF iter   4:  -158.46413850929096   -1.83739e-03   3.92082e-05 DIIS
   @RHF iter   5:  -158.46416272843254   -2.42191e-05   6.52433e-06 DIIS
   @RHF iter   6:  -158.46416336801957   -6.39587e-07   1.00245e-06 DIIS
   @RHF iter   7:  -158.46416337859884   -1.05793e-08   3.17443e-07 DIIS
   @RHF iter   8:  -158.46416337948358   -8.84739e-10   4.31326e-08 DIIS
   @RHF iter   9:  -158.46416337951453   -3.09512e-11   8.48868e-09 DIIS
   @RHF iter  10:  -158.46416337951524   -7.10543e-13   2.47585e-09 DIIS
   @RHF iter  11:  -158.46416337951558   -3.41061e-13   6.72805e-10 DIIS
   @RHF iter  12:  -158.46416337951572   -1.42109e-13   1.32151e-10 DIIS
   @RHF iter  13:  -158.46416337951533    3.97904e-13   2.03423e-11 DIIS
  Energy and wave function converged.

  ==> Post-Iterations <==

    Orbital Energies [Eh]
    ---------------------

    Doubly Occupied:

       1A    -11.220355     2A    -11.218593     3A    -11.216567
       4A    -11.212945     5A     -1.019251     6A     -1.016936
       7A     -0.841956     8A     -0.836539     9A     -0.602699
      10A     -0.599575    11A     -0.596651    12A     -0.590655
      13A     -0.508772    14A     -0.502343    15A     -0.487831
      16A     -0.486409    17A     -0.482958    18A     -0.477073

    Virtual:

      19A      0.170884    20A      0.200288    21A      0.227653
      22A      0.229695    23A      0.247890    24A      0.255577
      25A      0.265294    26A      0.277720    27A      0.284407
      28A      0.290958    29A      0.294530    30A      0.343088
      31A      0.394228    32A      0.411422    33A      0.573971
      34A      0.594162    35A      0.600717    36A      0.607271
      37A      0.615556    38A      0.625387    39A      0.668441
      40A      0.687944    41A      0.695309    42A      0.810056
      43A      0.843963    44A      0.846988    45A      0.878319
      46A      0.887683    47A      0.890610    48A      0.894515
      49A      0.897730    50A      0.907302    51A      0.918342
      52A      0.919297    53A      0.933250    54A      0.952305
      55A      0.971027    56A      0.996743    57A      1.118088
      58A      1.122075    59A      1.132686    60A      1.172497
      61A      1.234386    62A      1.280324    63A      1.460903
      64A      1.469585    65A      1.475151    66A      1.490420
      67A      1.559293    68A      1.591391    69A      1.681221
      70A      1.682676    71A      1.700105    72A      1.715124
      73A      1.861711    74A      1.865128    75A      1.870223
      76A      1.871308    77A      1.889312    78A      1.902212
      79A      1.925697    80A      1.935910    81A      1.944056
      82A      1.946379    83A      1.948044    84A      1.957216
      85A      1.967695    86A      1.975494    87A      1.984661
      88A      2.027147    89A      2.091853    90A      2.097891
      91A      2.117048    92A      2.159220    93A      2.293294
      94A      2.297521    95A      2.336124    96A      2.338472
      97A      2.439786    98A      2.446263    99A      2.457599
     100A      2.483101   101A      2.555968   102A      2.569125
     103A      2.582663   104A      2.590328   105A      2.760118
     106A      2.772242   107A      2.785931   108A      2.793221
     109A      2.846980   110A      2.858021   111A      2.866997
     112A      2.873208   113A      2.936028   114A      2.954135
     115A      2.982117   116A      3.007534

    Final Occupation by Irrep:
              A
    DOCC [    18 ]

  @RHF Final Energy:  -158.46416337951533

   => Energetics <=

    Nuclear Repulsion Energy =            121.8101135711924456
    One-Electron Energy =                -452.7123408695525200
    Two-Electron Energy =                 172.4380639188447333
    Total Energy =                       -158.4641633795153268

Computation Completed

Properties will be evaluated at   0.000000,   0.000000,   0.000000 [a0]

Properties computed using the SCF density matrix

  Nuclear Dipole Moment: [e a0]
     X:    -0.0074      Y:    -0.0721      Z:    -0.0809

  Electronic Dipole Moment: [e a0]
     X:    -0.0261      Y:     0.0735      Z:     0.0801

  Dipole Moment: [e a0]
     X:    -0.0335      Y:     0.0014      Z:    -0.0008     Total:     0.0335

  Dipole Moment: [D]
     X:    -0.0851      Y:     0.0036      Z:    -0.0019     Total:     0.0852

*** tstop() called on ds3 at Mon Apr 27 06:52:04 2020
Module time:
	user time   =       8.14 seconds =       0.14 minutes
	system time =       3.30 seconds =       0.06 minutes
	total time  =         10 seconds =       0.17 minutes
Total time:
	user time   =       8.14 seconds =       0.14 minutes
	system time =       3.30 seconds =       0.06 minutes
	total time  =         10 seconds =       0.17 minutes
                                     G D M A

                                 by Anthony Stone

                           version 2.2.06, 22 June 2011

               Distributed Multipoles from Gaussian wavefunctions

Starting at 6:52:4 on 27 Apr 2020

Using SCF density matrix from file ./SSI/SSI-025ILE-084ILE-2-dimer.test.5565.fchk

                         Distributed Multipole Analysis

Standard DMA

Positions and radii in angstrom
Multipole moments in atomic units, ea_0^k for rank k

C          x =  1.511165  y = -1.125386  z = -0.262188 angstrom
           Maximum rank =  0   Radius =  0.650 angstrom
                   Q00  =  -0.235538

C          x =  2.443165  y = -1.099386  z =  0.949812 angstrom
           Maximum rank =  0   Radius =  0.650 angstrom
                   Q00  =  -0.240156

H          x =  0.453165  y = -1.052386  z = -0.068188 angstrom
           Maximum rank =  0   Radius =  0.325 angstrom
                   Q00  =   0.092338

H          x =  1.792165  y = -0.312386  z = -0.932188 angstrom
           Maximum rank =  0   Radius =  0.325 angstrom
                   Q00  =   0.073241

H          x =  1.671165  y = -2.062386  z = -0.796188 angstrom
           Maximum rank =  0   Radius =  0.325 angstrom
                   Q00  =   0.072716

H          x =  2.476165  y = -0.093386  z =  1.368812 angstrom
           Maximum rank =  0   Radius =  0.325 angstrom
                   Q00  =   0.077590

H          x =  3.441165  y = -1.369386  z =  0.604812 angstrom
           Maximum rank =  0   Radius =  0.325 angstrom
                   Q00  =   0.081223

H          x =  2.088415  y = -1.805306  z =  1.715211 angstrom
           Maximum rank =  0   Radius =  0.325 angstrom
                   Q00  =   0.078811

C          x = -1.997835  y =  0.352614  z = -0.389188 angstrom
           Maximum rank =  0   Radius =  0.650 angstrom
                   Q00  =  -0.245326

C          x = -1.955835  y =  1.878614  z = -0.291188 angstrom
           Maximum rank =  0   Radius =  0.650 angstrom
                   Q00  =  -0.231206

H          x = -1.384835  y =  0.006614  z = -1.224188 angstrom
           Maximum rank =  0   Radius =  0.325 angstrom
                   Q00  =   0.080013

H          x = -1.676835  y = -0.119386  z =  0.533812 angstrom
           Maximum rank =  0   Radius =  0.325 angstrom
                   Q00  =   0.078986

H          x = -3.011835  y = -0.013386  z = -0.531188 angstrom
           Maximum rank =  0   Radius =  0.325 angstrom
                   Q00  =   0.078209

H          x = -2.455835  y =  2.167614  z =  0.629812 angstrom
           Maximum rank =  0   Radius =  0.325 angstrom
                   Q00  =   0.078084

H          x = -2.487328  y =  2.348891  z = -1.131638 angstrom
           Maximum rank =  0   Radius =  0.325 angstrom
                   Q00  =   0.081096

H          x = -0.913421  y =  2.228006  z = -0.255168 angstrom
           Maximum rank =  0   Radius =  0.325 angstrom
                   Q00  =   0.079917

Total multipoles referred to origin at
           x =   0.000000,  y =    0.000000,  z =    0.000000 angstrom
                   Q00  =  -0.000000

Finished at 6:52:4 on 27 Apr 2020

  DMA results are available in the Python driver through the
	  variable('DMA DISTRIBUTED MULTIPOLES')
  and
	  variable('DMA TOTAL MULTIPOLES')
  commands.

    Psi4 stopped on: Monday, 27 April 2020 06:52AM
    Psi4 wall time for execution: 0:00:10.96

*** Psi4 exiting successfully. Buy a developer a beer!
