                               Psi4 1.3.2 release

  ==> Input File <==

--------------------------------------------------------------------------
import numpy as np
set {scf_type pk
basis cc-pvdz
d_convergence 10
gdma_switch   0
gdma_limit    0
gdma_origin   [ 0.0,  0.0,  0.0 ]
}
molecule test {
    units Angstrom
    0 1
    --
    0 1
    C               -1.357167562179495     2.594371332342431     0.240545028126318
    C               -0.735167562179495     1.540371332342431    -0.650454971873682
    O               -1.434167562179495     0.750371332342431    -1.277454971873682
    N                0.588832437820505     1.517371332342431    -0.718454971873682
    H               -2.429167562179495     2.402371332342430     0.323545028126318
    H               -1.218167562179495     3.563371332342431    -0.242454971873682
    H                1.006832437820505     0.869371332342431    -1.370454971873682
    H                1.145832437820505     2.241371332342431    -0.293454971873682
    H               -0.903717562179495     2.618121332342431     1.242455028126318
    C                0.705832437820505    -1.631628667657569     0.639545028126318
    C                0.002832437820505    -2.949628667657569     0.700545028126318
    C                2.142832437820505    -1.818628667657569     1.084545028126318
    H                0.683832437820505    -1.257628667657569    -0.383454971873682
    H                0.202832437820505    -0.925628667657569     1.298545028126318
    H                0.116832437820505    -3.390628667657569     1.690545028126318
    H                0.524832437820505    -3.605628667657569    -0.001454971873682
    H                2.144832437820505    -2.263628667657569     2.080545028126318
    H                2.650832437820505    -2.499628667657569     0.396545028126318
    H               -1.060757562179495    -2.916418667657569     0.421835028126318
    H                2.675772437820505    -0.856568667657569     1.104875028126318

}
e, wfn = energy('scf', return_wfn=True)
gdma(wfn)
dmavals = variable('DMA DISTRIBUTED MULTIPOLES')
charges = np.array(dmavals)
print(charges)
np.save('SSI-100ASN-113LYS-1-dimer.npy', np.array(charges))--------------------------------------------------------------------------

*** tstart() called on ds3
*** at Tue Apr 28 12:11:55 2020

   => Loading Basis Set <=

    Name: CC-PVDZ
    Role: ORBITAL
    Keyword: BASIS
    atoms 1-2, 10-12 entry C          line   138 file /theoryfs2/ds/metcalf/miniconda2/envs/tf2gpu/share/psi4/basis/cc-pvdz.gbs
    atoms 3          entry O          line   198 file /theoryfs2/ds/metcalf/miniconda2/envs/tf2gpu/share/psi4/basis/cc-pvdz.gbs
    atoms 4          entry N          line   168 file /theoryfs2/ds/metcalf/miniconda2/envs/tf2gpu/share/psi4/basis/cc-pvdz.gbs
    atoms 5-9, 13-20 entry H          line    22 file /theoryfs2/ds/metcalf/miniconda2/envs/tf2gpu/share/psi4/basis/cc-pvdz.gbs

         ---------------------------------------------------------
                                   SCF
               by Justin Turney, Rob Parrish, Andy Simmonett
                          and Daniel G. A. Smith
                              RHF Reference
                        1 Threads,    500 MiB Core
         ---------------------------------------------------------

  ==> Geometry <==

    Molecular point group: c1
    Full point group: C1

    Geometry (in Angstrom), charge = 0, multiplicity = 1:

       Center              X                  Y                   Z               Mass
    ------------   -----------------  -----------------  -----------------  -----------------
         C           -1.357167562179     2.594371332342     0.240545028126    12.000000000000
         C           -0.735167562179     1.540371332342    -0.650454971874    12.000000000000
         O           -1.434167562179     0.750371332342    -1.277454971874    15.994914619570
         N            0.588832437821     1.517371332342    -0.718454971874    14.003074004430
         H           -2.429167562179     2.402371332342     0.323545028126     1.007825032230
         H           -1.218167562179     3.563371332342    -0.242454971874     1.007825032230
         H            1.006832437821     0.869371332342    -1.370454971874     1.007825032230
         H            1.145832437821     2.241371332342    -0.293454971874     1.007825032230
         H           -0.903717562179     2.618121332342     1.242455028126     1.007825032230
         C            0.705832437821    -1.631628667658     0.639545028126    12.000000000000
         C            0.002832437821    -2.949628667658     0.700545028126    12.000000000000
         C            2.142832437821    -1.818628667658     1.084545028126    12.000000000000
         H            0.683832437821    -1.257628667658    -0.383454971874     1.007825032230
         H            0.202832437821    -0.925628667658     1.298545028126     1.007825032230
         H            0.116832437821    -3.390628667658     1.690545028126     1.007825032230
         H            0.524832437821    -3.605628667658    -0.001454971874     1.007825032230
         H            2.144832437821    -2.263628667658     2.080545028126     1.007825032230
         H            2.650832437821    -2.499628667658     0.396545028126     1.007825032230
         H           -1.060757562179    -2.916418667658     0.421835028126     1.007825032230
         H            2.675772437821    -0.856568667658     1.104875028126     1.007825032230

  Running in c1 symmetry.

  Rotational constants: A =      0.12589  B =      0.03074  C =      0.02792 [cm^-1]
  Rotational constants: A =   3773.98377  B =    921.62815  C =    836.89350 [MHz]
  Nuclear repulsion =  303.376623084330618

  Charge       = 0
  Multiplicity = 1
  Electrons    = 58
  Nalpha       = 29
  Nbeta        = 29

  ==> Algorithm <==

  SCF Algorithm Type is PK.
  DIIS enabled.
  MOM disabled.
  Fractional occupation disabled.
  Guess Type is SAD.
  Energy threshold   = 1.00e-06
  Density threshold  = 1.00e-10
  Integral threshold = 0.00e+00

  ==> Primary Basis <==

  Basis Set: CC-PVDZ
    Blend: CC-PVDZ
    Number of shells: 81
    Number of basis function: 163
    Number of Cartesian functions: 170
    Spherical Harmonics?: true
    Max angular momentum: 2

  ==> Pre-Iterations <==

   -------------------------------------------------------
    Irrep   Nso     Nmo     Nalpha   Nbeta   Ndocc  Nsocc
   -------------------------------------------------------
     A        163     163       0       0       0       0
   -------------------------------------------------------
    Total     163     163      29      29      29       0
   -------------------------------------------------------

  ==> Integral Setup <==

  Using integral reordering PK algorithm.
  Sizing the integral batches needed.
  Building batch lookup table.
   Calculation information:
      Number of atoms:                  20
      Number of AO shells:              81
      Number of primitives:            219
      Number of atomic orbitals:       170
      Number of basis functions:       163

      Integral cutoff                 1.00e-12
      Number of threads:                 1

	Batch   1 pq = [       0,    9405] index = [             0,44231715] size =     44231715
	Batch   2 pq = [    9405,   13366] index = [      44231715,89331661] size =     45099946
  Task number: 9
  Buffer size: 11059200
  Buffer per thread: 2
  We computed 4771894 shell quartets total.
  Whereas there are 5516181 unique shell quartets.

  ==> DiskJK: Disk-Based J/K Matrices <==

    J tasked:                  Yes
    K tasked:                  Yes
    wK tasked:                  No
    Memory [MiB]:              375
    Schwarz Cutoff:          1E-12

    OpenMP threads:              1

  Minimum eigenvalue in the overlap matrix is 4.5699417818E-03.
  Using Symmetric Orthogonalization.

  SCF Guess: Superposition of Atomic Densities via on-the-fly atomic UHF.

  ==> Iterations <==

                        Total Energy        Delta E     RMS |[F,P]|

   @RHF iter SAD:  -325.05735937681169   -3.25057e+02   0.00000e+00
   @RHF iter   1:  -325.99517184729802   -9.37812e-01   4.19811e-03 DIIS
   @RHF iter   2:  -326.20070810279685   -2.05536e-01   2.31626e-03 DIIS
   @RHF iter   3:  -326.25718596542441   -5.64779e-02   4.87657e-04 DIIS
   @RHF iter   4:  -326.26099000383715   -3.80404e-03   2.05498e-04 DIIS
   @RHF iter   5:  -326.26166962061797   -6.79617e-04   3.17770e-05 DIIS
   @RHF iter   6:  -326.26170296478534   -3.33442e-05   1.40222e-05 DIIS
   @RHF iter   7:  -326.26170869351580   -5.72873e-06   5.45764e-06 DIIS
   @RHF iter   8:  -326.26170984962170   -1.15611e-06   1.86121e-06 DIIS
   @RHF iter   9:  -326.26170998831037   -1.38689e-07   4.93340e-07 DIIS
   @RHF iter  10:  -326.26170999494633   -6.63596e-09   1.60813e-07 DIIS
   @RHF iter  11:  -326.26170999576811   -8.21785e-10   3.92662e-08 DIIS
   @RHF iter  12:  -326.26170999581353   -4.54179e-11   9.85575e-09 DIIS
   @RHF iter  13:  -326.26170999581694   -3.41061e-12   2.72227e-09 DIIS
   @RHF iter  14:  -326.26170999581831   -1.36424e-12   1.18246e-09 DIIS
   @RHF iter  15:  -326.26170999582007   -1.76215e-12   5.43699e-10 DIIS
   @RHF iter  16:  -326.26170999582024   -1.70530e-13   1.95026e-10 DIIS
   @RHF iter  17:  -326.26170999581956    6.82121e-13   8.41647e-11 DIIS
  Energy and wave function converged.

  ==> Post-Iterations <==

    Orbital Energies [Eh]
    ---------------------

    Doubly Occupied:

       1A    -20.505524     2A    -15.588091     3A    -11.347306
       4A    -11.242191     5A    -11.214285     6A    -11.209454
       7A    -11.205584     8A     -1.369807     9A     -1.217562
      10A     -1.059924    11A     -1.000217    12A     -0.917405
      13A     -0.799547    14A     -0.791660    15A     -0.728054
      16A     -0.654954    17A     -0.628918    18A     -0.614702
      19A     -0.597323    20A     -0.570155    21A     -0.556506
      22A     -0.541334    23A     -0.523349    24A     -0.522194
      25A     -0.471164    26A     -0.465307    27A     -0.462008
      28A     -0.411372    29A     -0.404475

    Virtual:

      30A      0.155824    31A      0.189576    32A      0.200093
      33A      0.205269    34A      0.226632    35A      0.240434
      36A      0.242814    37A      0.253358    38A      0.261229
      39A      0.269135    40A      0.291349    41A      0.302371
      42A      0.317855    43A      0.334331    44A      0.370787
      45A      0.386660    46A      0.430453    47A      0.466947
      48A      0.544836    49A      0.584189    50A      0.600563
      51A      0.610087    52A      0.622821    53A      0.624933
      54A      0.643343    55A      0.668279    56A      0.700910
      57A      0.723103    58A      0.747324    59A      0.800200
      60A      0.819597    61A      0.831734    62A      0.850186
      63A      0.854249    64A      0.873088    65A      0.881887
      66A      0.889221    67A      0.897153    68A      0.901494
      69A      0.909315    70A      0.913986    71A      0.918901
      72A      0.942273    73A      0.945912    74A      0.956772
      75A      0.977006    76A      0.983508    77A      1.009741
      78A      1.058247    79A      1.073688    80A      1.116536
      81A      1.133778    82A      1.140728    83A      1.183452
      84A      1.207616    85A      1.314113    86A      1.335746
      87A      1.382190    88A      1.387625    89A      1.405915
      90A      1.428143    91A      1.460844    92A      1.485767
      93A      1.505445    94A      1.514315    95A      1.597983
      96A      1.614100    97A      1.653198    98A      1.657450
      99A      1.681882   100A      1.702818   101A      1.708022
     102A      1.746925   103A      1.801605   104A      1.864089
     105A      1.870631   106A      1.872807   107A      1.883071
     108A      1.891523   109A      1.905696   110A      1.918962
     111A      1.933547   112A      1.943517   113A      1.950522
     114A      1.963645   115A      1.978472   116A      1.982760
     117A      1.995811   118A      2.000623   119A      2.021418
     120A      2.040941   121A      2.056636   122A      2.062956
     123A      2.126217   124A      2.153741   125A      2.157317
     126A      2.167916   127A      2.217863   128A      2.265170
     129A      2.303075   130A      2.319325   131A      2.331164
     132A      2.349111   133A      2.431752   134A      2.443794
     135A      2.490067   136A      2.520617   137A      2.524171
     138A      2.538020   139A      2.593399   140A      2.602453
     141A      2.627524   142A      2.637821   143A      2.648579
     144A      2.726443   145A      2.740308   146A      2.763303
     147A      2.776929   148A      2.784732   149A      2.791389
     150A      2.842657   151A      2.873035   152A      2.923546
     153A      2.969119   154A      2.981358   155A      3.002226
     156A      3.080741   157A      3.097830   158A      3.144044
     159A      3.281128   160A      3.514147   161A      3.528616
     162A      3.863960   163A      3.902725

    Final Occupation by Irrep:
              A
    DOCC [    29 ]

  @RHF Final Energy:  -326.26170999581956

   => Energetics <=

    Nuclear Repulsion Energy =            303.3766230843306175
    One-Electron Energy =               -1044.0359241294111143
    Two-Electron Energy =                 414.3975910492609387
    Total Energy =                       -326.2617099958195581

Computation Completed

Properties will be evaluated at   0.000000,   0.000000,   0.000000 [a0]

Properties computed using the SCF density matrix

  Nuclear Dipole Moment: [e a0]
     X:     5.1856      Y:    -5.6454      Z:     5.8716

  Electronic Dipole Moment: [e a0]
     X:    -4.0874      Y:     6.7156      Z:    -5.3070

  Dipole Moment: [e a0]
     X:     1.0982      Y:     1.0701      Z:     0.5646     Total:     1.6340

  Dipole Moment: [D]
     X:     2.7913      Y:     2.7200      Z:     1.4351     Total:     4.1533

*** tstop() called on ds3 at Tue Apr 28 12:12:39 2020
Module time:
	user time   =      30.67 seconds =       0.51 minutes
	system time =      15.25 seconds =       0.25 minutes
	total time  =         44 seconds =       0.73 minutes
Total time:
	user time   =      30.67 seconds =       0.51 minutes
	system time =      15.25 seconds =       0.25 minutes
	total time  =         44 seconds =       0.73 minutes
                                     G D M A

                                 by Anthony Stone

                           version 2.2.06, 22 June 2011

               Distributed Multipoles from Gaussian wavefunctions

Starting at 12:12:39 on 28 Apr 2020

Using SCF density matrix from file ./SSI/SSI-100ASN-113LYS-1-dimer.test.12644.fchk

                         Distributed Multipole Analysis

Standard DMA

Positions and radii in angstrom
Multipole moments in atomic units, ea_0^k for rank k

C          x = -1.357168  y =  2.594371  z =  0.240545 angstrom
           Maximum rank =  0   Radius =  0.650 angstrom
                   Q00  =  -0.265713

C          x = -0.735168  y =  1.540371  z = -0.650455 angstrom
           Maximum rank =  0   Radius =  0.650 angstrom
                   Q00  =   0.820655

O          x = -1.434168  y =  0.750371  z = -1.277455 angstrom
           Maximum rank =  0   Radius =  0.650 angstrom
                   Q00  =  -0.789046

N          x =  0.588832  y =  1.517371  z = -0.718455 angstrom
           Maximum rank =  0   Radius =  0.650 angstrom
                   Q00  =  -0.528970

H          x = -2.429168  y =  2.402371  z =  0.323545 angstrom
           Maximum rank =  0   Radius =  0.325 angstrom
                   Q00  =   0.129467

H          x = -1.218168  y =  3.563371  z = -0.242455 angstrom
           Maximum rank =  0   Radius =  0.325 angstrom
                   Q00  =   0.114770

H          x =  1.006832  y =  0.869371  z = -1.370455 angstrom
           Maximum rank =  0   Radius =  0.325 angstrom
                   Q00  =   0.221295

H          x =  1.145832  y =  2.241371  z = -0.293455 angstrom
           Maximum rank =  0   Radius =  0.325 angstrom
                   Q00  =   0.203546

H          x = -0.903718  y =  2.618121  z =  1.242455 angstrom
           Maximum rank =  0   Radius =  0.325 angstrom
                   Q00  =   0.098882

C          x =  0.705832  y = -1.631629  z =  0.639545 angstrom
           Maximum rank =  0   Radius =  0.650 angstrom
                   Q00  =  -0.072094

C          x =  0.002832  y = -2.949629  z =  0.700545 angstrom
           Maximum rank =  0   Radius =  0.650 angstrom
                   Q00  =  -0.221091

C          x =  2.142832  y = -1.818629  z =  1.084545 angstrom
           Maximum rank =  0   Radius =  0.650 angstrom
                   Q00  =  -0.237491

H          x =  0.683832  y = -1.257629  z = -0.383455 angstrom
           Maximum rank =  0   Radius =  0.325 angstrom
                   Q00  =   0.043472

H          x =  0.202832  y = -0.925629  z =  1.298545 angstrom
           Maximum rank =  0   Radius =  0.325 angstrom
                   Q00  =   0.041357

H          x =  0.116832  y = -3.390629  z =  1.690545 angstrom
           Maximum rank =  0   Radius =  0.325 angstrom
                   Q00  =   0.066559

H          x =  0.524832  y = -3.605629  z = -0.001455 angstrom
           Maximum rank =  0   Radius =  0.325 angstrom
                   Q00  =   0.063550

H          x =  2.144832  y = -2.263629  z =  2.080545 angstrom
           Maximum rank =  0   Radius =  0.325 angstrom
                   Q00  =   0.075623

H          x =  2.650832  y = -2.499629  z =  0.396545 angstrom
           Maximum rank =  0   Radius =  0.325 angstrom
                   Q00  =   0.073664

H          x = -1.060758  y = -2.916419  z =  0.421835 angstrom
           Maximum rank =  0   Radius =  0.325 angstrom
                   Q00  =   0.092070

H          x =  2.675772  y = -0.856569  z =  1.104875 angstrom
           Maximum rank =  0   Radius =  0.325 angstrom
                   Q00  =   0.069497

Total multipoles referred to origin at
           x =   0.000000,  y =    0.000000,  z =    0.000000 angstrom
                   Q00  =  -0.000000

Finished at 12:12:39 on 28 Apr 2020

  DMA results are available in the Python driver through the
	  variable('DMA DISTRIBUTED MULTIPOLES')
  and
	  variable('DMA TOTAL MULTIPOLES')
  commands.

    Psi4 stopped on: Tuesday, 28 April 2020 12:12PM
    Psi4 wall time for execution: 0:00:44.41

*** Psi4 exiting successfully. Buy a developer a beer!
