                               Psi4 1.3.2 release

  ==> Input File <==

--------------------------------------------------------------------------
import numpy as np
set {scf_type pk
basis cc-pvdz
d_convergence 10
gdma_switch   0
gdma_limit    0
gdma_origin   [ 0.0,  0.0,  0.0 ]
}
molecule test {
    units Angstrom
    -2 1
    --
    -2 1
    C               -1.679780470819505    -3.326776355828109    -0.818016742155432
    C               -1.169780470819505    -1.938776355828109    -0.440016742155432
    O                0.058219529180495    -1.688776355828109    -0.435016742155432
    O               -2.053780470819504    -1.084776355828109    -0.164016742155432
    H               -2.462780470819505    -3.242776355828109    -1.575016742155432
    H               -2.138780470819504    -3.766776355828109     0.069983257844568
    H               -0.902780470819505    -4.020736355828110    -1.171136742155432
    C                0.923219529180495     3.382223644171891     0.463983257844568
    C                1.199219529180495     1.920223644171891     0.420983257844568
    O                1.148219529180496     1.167223644171891    -0.601016742155432
    O                1.540219529180495     1.570223644171891     1.568983257844569
    H                0.316219529180495     3.565223644171891    -0.382016742155432
    H                1.911219529180495     3.731223644171891     0.193983257844568
    H                0.938139529180495     3.867563644171891     1.451013257844568

}
e, wfn = energy('scf', return_wfn=True)
gdma(wfn)
dmavals = variable('DMA DISTRIBUTED MULTIPOLES')
charges = np.array(dmavals)
print(charges)
np.save('SSI-221GLU-265GLU-1-dimer.npy', np.array(charges))--------------------------------------------------------------------------

*** tstart() called on ds3
*** at Tue Apr 28 03:53:52 2020

   => Loading Basis Set <=

    Name: CC-PVDZ
    Role: ORBITAL
    Keyword: BASIS
    atoms 1-2, 8-9   entry C          line   138 file /theoryfs2/ds/metcalf/miniconda2/envs/tf2gpu/share/psi4/basis/cc-pvdz.gbs
    atoms 3-4, 10-11 entry O          line   198 file /theoryfs2/ds/metcalf/miniconda2/envs/tf2gpu/share/psi4/basis/cc-pvdz.gbs
    atoms 5-7, 12-14 entry H          line    22 file /theoryfs2/ds/metcalf/miniconda2/envs/tf2gpu/share/psi4/basis/cc-pvdz.gbs

         ---------------------------------------------------------
                                   SCF
               by Justin Turney, Rob Parrish, Andy Simmonett
                          and Daniel G. A. Smith
                              RHF Reference
                        1 Threads,    500 MiB Core
         ---------------------------------------------------------

  ==> Geometry <==

    Molecular point group: c1
    Full point group: C1

    Geometry (in Angstrom), charge = -2, multiplicity = 1:

       Center              X                  Y                   Z               Mass
    ------------   -----------------  -----------------  -----------------  -----------------
         C           -1.679780470820    -3.326776355828    -0.818016742155    12.000000000000
         C           -1.169780470820    -1.938776355828    -0.440016742155    12.000000000000
         O            0.058219529180    -1.688776355828    -0.435016742155    15.994914619570
         O           -2.053780470820    -1.084776355828    -0.164016742155    15.994914619570
         H           -2.462780470820    -3.242776355828    -1.575016742155     1.007825032230
         H           -2.138780470820    -3.766776355828     0.069983257845     1.007825032230
         H           -0.902780470820    -4.020736355828    -1.171136742155     1.007825032230
         C            0.923219529180     3.382223644172     0.463983257845    12.000000000000
         C            1.199219529180     1.920223644172     0.420983257845    12.000000000000
         O            1.148219529180     1.167223644172    -0.601016742155    15.994914619570
         O            1.540219529180     1.570223644172     1.568983257845    15.994914619570
         H            0.316219529180     3.565223644172    -0.382016742155     1.007825032230
         H            1.911219529180     3.731223644172     0.193983257845     1.007825032230
         H            0.938139529180     3.867563644172     1.451013257845     1.007825032230

  Running in c1 symmetry.

  Rotational constants: A =      0.17141  B =      0.02111  C =      0.02055 [cm^-1]
  Rotational constants: A =   5138.79600  B =    633.00843  C =    615.94191 [MHz]
  Nuclear repulsion =  330.896008908475608

  Charge       = -2
  Multiplicity = 1
  Electrons    = 64
  Nalpha       = 32
  Nbeta        = 32

  ==> Algorithm <==

  SCF Algorithm Type is PK.
  DIIS enabled.
  MOM disabled.
  Fractional occupation disabled.
  Guess Type is SAD.
  Energy threshold   = 1.00e-06
  Density threshold  = 1.00e-10
  Integral threshold = 0.00e+00

  ==> Primary Basis <==

  Basis Set: CC-PVDZ
    Blend: CC-PVDZ
    Number of shells: 66
    Number of basis function: 142
    Number of Cartesian functions: 150
    Spherical Harmonics?: true
    Max angular momentum: 2

  ==> Pre-Iterations <==

   -------------------------------------------------------
    Irrep   Nso     Nmo     Nalpha   Nbeta   Ndocc  Nsocc
   -------------------------------------------------------
     A        142     142       0       0       0       0
   -------------------------------------------------------
    Total     142     142      32      32      32       0
   -------------------------------------------------------

  ==> Integral Setup <==

  Using integral reordering PK algorithm.
  Sizing the integral batches needed.
  Building batch lookup table.
   Calculation information:
      Number of atoms:                  14
      Number of AO shells:              66
      Number of primitives:            206
      Number of atomic orbitals:       150
      Number of basis functions:       142

      Integral cutoff                 1.00e-12
      Number of threads:                 1

	Batch   1 pq = [       0,    9405] index = [             0,44231715] size =     44231715
	Batch   2 pq = [    9405,   10153] index = [      44231715,51546781] size =      7315066
  Task number: 5
  Buffer size: 11059200
  Buffer per thread: 2
  We computed 1460416 shell quartets total.
  Whereas there are 2445366 unique shell quartets.

  ==> DiskJK: Disk-Based J/K Matrices <==

    J tasked:                  Yes
    K tasked:                  Yes
    wK tasked:                  No
    Memory [MiB]:              375
    Schwarz Cutoff:          1E-12

    OpenMP threads:              1

  Minimum eigenvalue in the overlap matrix is 4.9009667037E-03.
  Using Symmetric Orthogonalization.

  SCF Guess: Superposition of Atomic Densities via on-the-fly atomic UHF.

  ==> Iterations <==

                        Total Energy        Delta E     RMS |[F,P]|

   @RHF iter SAD:  -452.38477908899176   -4.52385e+02   0.00000e+00
   @RHF iter   1:  -453.91444638885986   -1.52967e+00   6.53348e-03 DIIS
   @RHF iter   2:  -454.19516419861895   -2.80718e-01   3.98160e-03 DIIS
   @RHF iter   3:  -454.30511021929698   -1.09946e-01   5.08276e-04 DIIS
   @RHF iter   4:  -454.30835027256734   -3.24005e-03   1.86051e-04 DIIS
   @RHF iter   5:  -454.30890432261566   -5.54050e-04   4.46839e-05 DIIS
   @RHF iter   6:  -454.30892904929937   -2.47267e-05   2.04709e-05 DIIS
   @RHF iter   7:  -454.30893386471178   -4.81541e-06   3.67978e-06 DIIS
   @RHF iter   8:  -454.30893423469274   -3.69981e-07   1.27768e-06 DIIS
   @RHF iter   9:  -454.30893429180122   -5.71085e-08   5.25039e-07 DIIS
   @RHF iter  10:  -454.30893430056528   -8.76406e-09   2.36883e-07 DIIS
   @RHF iter  11:  -454.30893430229423   -1.72895e-09   6.69178e-08 DIIS
   @RHF iter  12:  -454.30893430240025   -1.06013e-10   2.27146e-08 DIIS
   @RHF iter  13:  -454.30893430241360   -1.33582e-11   5.54356e-09 DIIS
   @RHF iter  14:  -454.30893430241281    7.95808e-13   2.74141e-09 DIIS
   @RHF iter  15:  -454.30893430241338   -5.68434e-13   8.84927e-10 DIIS
   @RHF iter  16:  -454.30893430241309    2.84217e-13   3.37494e-10 DIIS
   @RHF iter  17:  -454.30893430241230    7.95808e-13   1.53977e-10 DIIS
   @RHF iter  18:  -454.30893430241281   -5.11591e-13   5.66151e-11 DIIS
  Energy and wave function converged.

  ==> Post-Iterations <==

    Orbital Energies [Eh]
    ---------------------

    Doubly Occupied:

       1A    -20.126989     2A    -20.126002     3A    -20.124273
       4A    -20.117518     5A    -10.990032     6A    -10.981800
       7A    -10.949451     8A    -10.930404     9A     -1.011946
      10A     -1.008173    11A     -0.900567    12A     -0.897475
      13A     -0.693953    14A     -0.689834    15A     -0.381899
      16A     -0.376001    17A     -0.326237    18A     -0.303602
      19A     -0.295850    20A     -0.273607    21A     -0.272866
      22A     -0.264653    23A     -0.216403    24A     -0.210512
      25A     -0.174219    26A     -0.154044    27A     -0.053103
      28A     -0.042390    29A     -0.035550    30A     -0.034215
      31A     -0.024792    32A     -0.020521

    Virtual:

      33A      0.445836    34A      0.457802    35A      0.493251
      36A      0.502019    37A      0.506423    38A      0.515740
      39A      0.605341    40A      0.618772    41A      0.676732
      42A      0.678149    43A      0.792702    44A      0.817352
      45A      0.821725    46A      0.858424    47A      0.881476
      48A      0.917959    49A      0.982093    50A      1.064500
      51A      1.068486    52A      1.081008    53A      1.089214
      54A      1.125760    55A      1.134484    56A      1.137272
      57A      1.137443    58A      1.153224    59A      1.164760
      60A      1.165397    61A      1.198314    62A      1.224394
      63A      1.256111    64A      1.277591    65A      1.336771
      66A      1.352292    67A      1.419382    68A      1.447784
      69A      1.454573    70A      1.490257    71A      1.502506
      72A      1.553718    73A      1.612494    74A      1.637604
      75A      1.662876    76A      1.672824    77A      1.704504
      78A      1.709712    79A      1.736006    80A      1.759423
      81A      1.786282    82A      1.792932    83A      1.821263
      84A      1.851555    85A      1.869197    86A      1.877648
      87A      1.914994    88A      1.944804    89A      1.973876
      90A      2.033140    91A      2.141296    92A      2.142562
      93A      2.172607    94A      2.181720    95A      2.204103
      96A      2.232558    97A      2.279182    98A      2.283304
      99A      2.315707   100A      2.332029   101A      2.373017
     102A      2.434607   103A      2.440660   104A      2.479097
     105A      2.520336   106A      2.549457   107A      2.556337
     108A      2.648211   109A      2.686372   110A      2.708674
     111A      2.753986   112A      2.770251   113A      2.824009
     114A      2.879102   115A      2.889948   116A      2.896714
     117A      3.008047   118A      3.063979   119A      3.074595
     120A      3.100878   121A      3.132727   122A      3.302046
     123A      3.377237   124A      3.382854   125A      3.410594
     126A      3.421274   127A      3.427538   128A      3.430687
     129A      3.492488   130A      3.501370   131A      3.742660
     132A      3.757731   133A      3.916251   134A      3.952264
     135A      3.954954   136A      3.985219   137A      4.160551
     138A      4.183393   139A      4.209560   140A      4.242844
     141A      4.309693   142A      4.337441

    Final Occupation by Irrep:
              A
    DOCC [    32 ]

  @RHF Final Energy:  -454.30893430241281

   => Energetics <=

    Nuclear Repulsion Energy =            330.8960089084756078
    One-Electron Energy =               -1304.3921197277509236
    Two-Electron Energy =                 519.1871765168625643
    Total Energy =                       -454.3089343024128084

Computation Completed

Properties will be evaluated at   0.000000,   0.000000,   0.000000 [a0]

Properties computed using the SCF density matrix

  Nuclear Dipole Moment: [e a0]
     X:    -2.1892      Y:     0.1252      Z:    -1.3231

  Electronic Dipole Moment: [e a0]
     X:     1.6402      Y:    -0.1233      Z:     0.8569

  Dipole Moment: [e a0]
     X:    -0.5490      Y:     0.0019      Z:    -0.4662     Total:     0.7202

  Dipole Moment: [D]
     X:    -1.3953      Y:     0.0048      Z:    -1.1849     Total:     1.8305

*** tstop() called on ds3 at Tue Apr 28 03:54:16 2020
Module time:
	user time   =      15.11 seconds =       0.25 minutes
	system time =       8.82 seconds =       0.15 minutes
	total time  =         24 seconds =       0.40 minutes
Total time:
	user time   =      15.11 seconds =       0.25 minutes
	system time =       8.82 seconds =       0.15 minutes
	total time  =         24 seconds =       0.40 minutes
                                     G D M A

                                 by Anthony Stone

                           version 2.2.06, 22 June 2011

               Distributed Multipoles from Gaussian wavefunctions

Starting at 3:54:16 on 28 Apr 2020

Using SCF density matrix from file ./SSI/SSI-221GLU-265GLU-1-dimer.test.26843.fchk

                         Distributed Multipole Analysis

Standard DMA

Positions and radii in angstrom
Multipole moments in atomic units, ea_0^k for rank k

C          x = -1.679780  y = -3.326776  z = -0.818017 angstrom
           Maximum rank =  0   Radius =  0.650 angstrom
                   Q00  =  -0.258383

C          x = -1.169780  y = -1.938776  z = -0.440017 angstrom
           Maximum rank =  0   Radius =  0.650 angstrom
                   Q00  =   0.971205

O          x =  0.058220  y = -1.688776  z = -0.435017 angstrom
           Maximum rank =  0   Radius =  0.650 angstrom
                   Q00  =  -0.872049

O          x = -2.053780  y = -1.084776  z = -0.164017 angstrom
           Maximum rank =  0   Radius =  0.650 angstrom
                   Q00  =  -0.944832

H          x = -2.462780  y = -3.242776  z = -1.575017 angstrom
           Maximum rank =  0   Radius =  0.325 angstrom
                   Q00  =   0.037873

H          x = -2.138780  y = -3.766776  z =  0.069983 angstrom
           Maximum rank =  0   Radius =  0.325 angstrom
                   Q00  =   0.046048

H          x = -0.902780  y = -4.020736  z = -1.171137 angstrom
           Maximum rank =  0   Radius =  0.325 angstrom
                   Q00  =   0.019851

C          x =  0.923220  y =  3.382224  z =  0.463983 angstrom
           Maximum rank =  0   Radius =  0.650 angstrom
                   Q00  =  -0.260444

C          x =  1.199220  y =  1.920224  z =  0.420983 angstrom
           Maximum rank =  0   Radius =  0.650 angstrom
                   Q00  =   0.849464

O          x =  1.148220  y =  1.167224  z = -0.601017 angstrom
           Maximum rank =  0   Radius =  0.650 angstrom
                   Q00  =  -0.905307

O          x =  1.540220  y =  1.570224  z =  1.568983 angstrom
           Maximum rank =  0   Radius =  0.650 angstrom
                   Q00  =  -0.762991

H          x =  0.316220  y =  3.565224  z = -0.382017 angstrom
           Maximum rank =  0   Radius =  0.325 angstrom
                   Q00  =   0.015167

H          x =  1.911220  y =  3.731224  z =  0.193983 angstrom
           Maximum rank =  0   Radius =  0.325 angstrom
                   Q00  =   0.028439

H          x =  0.938140  y =  3.867564  z =  1.451013 angstrom
           Maximum rank =  0   Radius =  0.325 angstrom
                   Q00  =   0.035958

Total multipoles referred to origin at
           x =   0.000000,  y =    0.000000,  z =    0.000000 angstrom
                   Q00  =  -2.000000

Finished at 3:54:16 on 28 Apr 2020

  DMA results are available in the Python driver through the
	  variable('DMA DISTRIBUTED MULTIPOLES')
  and
	  variable('DMA TOTAL MULTIPOLES')
  commands.

    Psi4 stopped on: Tuesday, 28 April 2020 03:54AM
    Psi4 wall time for execution: 0:00:23.62

*** Psi4 exiting successfully. Buy a developer a beer!
