                               Psi4 1.3.2 release

  ==> Input File <==

--------------------------------------------------------------------------
import numpy as np
set {scf_type pk
basis cc-pvdz
d_convergence 10
gdma_switch   0
gdma_limit    0
gdma_origin   [ 0.0,  0.0,  0.0 ]
}
molecule test {
    units Angstrom
    1 1
    --
    1 1
    C               -2.906941458085953     0.806732630901161     0.489912963266300
    C               -4.265941458085953     0.166732630901161     0.233912963266300
    N               -2.783941458085952     2.116732630901161    -0.195087036733700
    H               -2.783941458085952     0.942732630901161     1.569912963266300
    H               -2.119941458085952     0.125732630901161     0.149912963266300
    H               -4.396941458085952    -0.042267369098839    -0.829087036733700
    H               -5.046941458085952     0.869732630901161     0.531912963266300
    H               -3.486941458085952     2.767732630901161     0.135912963266300
    H               -1.881941458085952     2.542732630901161    -0.014087036733700
    H               -2.895941458085952     2.032732630901161    -1.198087036733700
    H               -4.400451458085952    -0.749647369098839     0.827332963266300
    C                3.687058541914047     0.174732630901161     1.660912963266300
    C                0.343058541914048    -0.778267369098839    -0.868087036733700
    C                0.804058541914048     0.537732630901161    -0.794087036733700
    C                0.957058541914048    -1.783267369098839    -0.121087036733700
    C                1.889058541914048     0.844732630901161     0.025912963266300
    C                2.048058541914048    -1.469267369098839     0.684912963266300
    C                2.521058541914047    -0.156267369098839     0.768912963266300
    O               -0.714941458085952    -1.057267369098839    -1.674087036733700
    H                0.334058541914048     1.316732630901161    -1.378087036733700
    H               -0.980941458085952    -0.304267369098839    -2.209087036733700
    H                0.573058541914048    -2.790267369098839    -0.157087036733700
    H                2.243058541914048     1.866732630901161     0.084912963266300
    H                2.530058541914047    -2.250267369098839     1.252912963266300
    H                4.015058541914048    -0.728267369098839     2.172912963266300
    H                3.336058541914048     0.871732630901161     2.422912963266299
    H                4.544993541914048     0.619912630901161     1.135778963266300

}
e, wfn = energy('scf', return_wfn=True)
gdma(wfn)
dmavals = variable('DMA DISTRIBUTED MULTIPOLES')
charges = np.array(dmavals)
print(charges)
np.save('SSI-035LYS-083TYR-1-dimer.npy', np.array(charges))--------------------------------------------------------------------------

*** tstart() called on ds3
*** at Mon Apr 27 23:05:19 2020

   => Loading Basis Set <=

    Name: CC-PVDZ
    Role: ORBITAL
    Keyword: BASIS
    atoms 1-2, 12-18  entry C          line   138 file /theoryfs2/ds/metcalf/miniconda2/envs/tf2gpu/share/psi4/basis/cc-pvdz.gbs
    atoms 3           entry N          line   168 file /theoryfs2/ds/metcalf/miniconda2/envs/tf2gpu/share/psi4/basis/cc-pvdz.gbs
    atoms 4-11, 20-27 entry H          line    22 file /theoryfs2/ds/metcalf/miniconda2/envs/tf2gpu/share/psi4/basis/cc-pvdz.gbs
    atoms 19          entry O          line   198 file /theoryfs2/ds/metcalf/miniconda2/envs/tf2gpu/share/psi4/basis/cc-pvdz.gbs

         ---------------------------------------------------------
                                   SCF
               by Justin Turney, Rob Parrish, Andy Simmonett
                          and Daniel G. A. Smith
                              RHF Reference
                        1 Threads,    500 MiB Core
         ---------------------------------------------------------

  ==> Geometry <==

    Molecular point group: c1
    Full point group: C1

    Geometry (in Angstrom), charge = 1, multiplicity = 1:

       Center              X                  Y                   Z               Mass
    ------------   -----------------  -----------------  -----------------  -----------------
         C           -2.906941458086     0.806732630901     0.489912963266    12.000000000000
         C           -4.265941458086     0.166732630901     0.233912963266    12.000000000000
         N           -2.783941458086     2.116732630901    -0.195087036734    14.003074004430
         H           -2.783941458086     0.942732630901     1.569912963266     1.007825032230
         H           -2.119941458086     0.125732630901     0.149912963266     1.007825032230
         H           -4.396941458086    -0.042267369099    -0.829087036734     1.007825032230
         H           -5.046941458086     0.869732630901     0.531912963266     1.007825032230
         H           -3.486941458086     2.767732630901     0.135912963266     1.007825032230
         H           -1.881941458086     2.542732630901    -0.014087036734     1.007825032230
         H           -2.895941458086     2.032732630901    -1.198087036734     1.007825032230
         H           -4.400451458086    -0.749647369099     0.827332963266     1.007825032230
         C            3.687058541914     0.174732630901     1.660912963266    12.000000000000
         C            0.343058541914    -0.778267369099    -0.868087036734    12.000000000000
         C            0.804058541914     0.537732630901    -0.794087036734    12.000000000000
         C            0.957058541914    -1.783267369099    -0.121087036734    12.000000000000
         C            1.889058541914     0.844732630901     0.025912963266    12.000000000000
         C            2.048058541914    -1.469267369099     0.684912963266    12.000000000000
         C            2.521058541914    -0.156267369099     0.768912963266    12.000000000000
         O           -0.714941458086    -1.057267369099    -1.674087036734    15.994914619570
         H            0.334058541914     1.316732630901    -1.378087036734     1.007825032230
         H           -0.980941458086    -0.304267369099    -2.209087036734     1.007825032230
         H            0.573058541914    -2.790267369099    -0.157087036734     1.007825032230
         H            2.243058541914     1.866732630901     0.084912963266     1.007825032230
         H            2.530058541914    -2.250267369099     1.252912963266     1.007825032230
         H            4.015058541914    -0.728267369099     2.172912963266     1.007825032230
         H            3.336058541914     0.871732630901     2.422912963266     1.007825032230
         H            4.544993541914     0.619912630901     1.135778963266     1.007825032230

  Running in c1 symmetry.

  Rotational constants: A =      0.05599  B =      0.01534  C =      0.01399 [cm^-1]
  Rotational constants: A =   1678.60958  B =    459.86459  C =    419.26823 [MHz]
  Nuclear repulsion =  595.409853986086887

  Charge       = 1
  Multiplicity = 1
  Electrons    = 84
  Nalpha       = 42
  Nbeta        = 42

  ==> Algorithm <==

  SCF Algorithm Type is PK.
  DIIS enabled.
  MOM disabled.
  Fractional occupation disabled.
  Guess Type is SAD.
  Energy threshold   = 1.00e-06
  Density threshold  = 1.00e-10
  Integral threshold = 0.00e+00

  ==> Primary Basis <==

  Basis Set: CC-PVDZ
    Blend: CC-PVDZ
    Number of shells: 114
    Number of basis function: 234
    Number of Cartesian functions: 245
    Spherical Harmonics?: true
    Max angular momentum: 2

  ==> Pre-Iterations <==

   -------------------------------------------------------
    Irrep   Nso     Nmo     Nalpha   Nbeta   Ndocc  Nsocc
   -------------------------------------------------------
     A        234     234       0       0       0       0
   -------------------------------------------------------
    Total     234     234      42      42      42       0
   -------------------------------------------------------

  ==> Integral Setup <==

  Using integral reordering PK algorithm.
  Sizing the integral batches needed.
  Building batch lookup table.
   Calculation information:
      Number of atoms:                  27
      Number of AO shells:             114
      Number of primitives:            322
      Number of atomic orbitals:       245
      Number of basis functions:       234

      Integral cutoff                 1.00e-12
      Number of threads:                 1

	Batch   1 pq = [       0,    9405] index = [             0,44231715] size =     44231715
	Batch   2 pq = [    9405,   13301] index = [      44231715,88464951] size =     44233236
	Batch   3 pq = [   13301,   16290] index = [      88464951,132690195] size =     44225244
	Batch   4 pq = [   16290,   18810] index = [     132690195,176917455] size =     44227260
	Batch   5 pq = [   18810,   21030] index = [     176917455,221140965] size =     44223510
	Batch   6 pq = [   21030,   23037] index = [     221140965,265363203] size =     44222238
	Batch   7 pq = [   23037,   24883] index = [     265363203,309594286] size =     44231083
	Batch   8 pq = [   24883,   26601] index = [     309594286,353819901] size =     44225615
	Batch   9 pq = [   26601,   27495] index = [     353819901,378001260] size =     24181359
  Task number: 35
  Buffer size: 11059200
  Buffer per thread: 2
  We computed 18986874 shell quartets total.
  Whereas there are 21487290 unique shell quartets.

  ==> DiskJK: Disk-Based J/K Matrices <==

    J tasked:                  Yes
    K tasked:                  Yes
    wK tasked:                  No
    Memory [MiB]:              375
    Schwarz Cutoff:          1E-12

    OpenMP threads:              1

  Minimum eigenvalue in the overlap matrix is 3.2468982730E-04.
  Using Symmetric Orthogonalization.

  SCF Guess: Superposition of Atomic Densities via on-the-fly atomic UHF.

  ==> Iterations <==

                        Total Energy        Delta E     RMS |[F,P]|

   @RHF iter SAD:  -478.51401995934066   -4.78514e+02   0.00000e+00
   @RHF iter   1:  -478.98096379354513   -4.66944e-01   2.73555e-03 DIIS
   @RHF iter   2:  -479.21883749458061   -2.37874e-01   1.10338e-03 DIIS
   @RHF iter   3:  -479.25245903708992   -3.36215e-02   2.99978e-04 DIIS
   @RHF iter   4:  -479.25601807242697   -3.55904e-03   1.18207e-04 DIIS
   @RHF iter   5:  -479.25646716543923   -4.49093e-04   2.11797e-05 DIIS
   @RHF iter   6:  -479.25649055200938   -2.33866e-05   6.77500e-06 DIIS
   @RHF iter   7:  -479.25649274523460   -2.19323e-06   2.26521e-06 DIIS
   @RHF iter   8:  -479.25649304827243   -3.03038e-07   7.94971e-07 DIIS
   @RHF iter   9:  -479.25649309380390   -4.55315e-08   3.07284e-07 DIIS
   @RHF iter  10:  -479.25649310177118   -7.96729e-09   1.37509e-07 DIIS
   @RHF iter  11:  -479.25649310457771   -2.80653e-09   6.35173e-08 DIIS
   @RHF iter  12:  -479.25649310520987   -6.32156e-10   2.87860e-08 DIIS
   @RHF iter  13:  -479.25649310530230   -9.24274e-11   8.77109e-09 DIIS
   @RHF iter  14:  -479.25649310530923   -6.93490e-12   2.27890e-09 DIIS
   @RHF iter  15:  -479.25649310531253   -3.29692e-12   8.10862e-10 DIIS
   @RHF iter  16:  -479.25649310531207    4.54747e-13   2.62954e-10 DIIS
   @RHF iter  17:  -479.25649310531071    1.36424e-12   1.20096e-10 DIIS
   @RHF iter  18:  -479.25649310531225   -1.53477e-12   6.02456e-11 DIIS
  Energy and wave function converged.

  ==> Post-Iterations <==

    Orbital Energies [Eh]
    ---------------------

    Doubly Occupied:

       1A    -20.702510     2A    -15.904401     3A    -11.473074
       4A    -11.408977     5A    -11.401337     6A    -11.346416
       7A    -11.343928     8A    -11.338033     9A    -11.333492
      10A    -11.333328    11A    -11.311854    12A     -1.525445
      13A     -1.520742    14A     -1.253136    15A     -1.215687
      16A     -1.136658    17A     -1.123227    18A     -1.053664
      19A     -1.021377    20A     -0.981520    21A     -0.967584
      22A     -0.950496    23A     -0.907336    24A     -0.859326
      25A     -0.843682    26A     -0.791662    27A     -0.774391
      28A     -0.746623    29A     -0.719602    30A     -0.711964
      31A     -0.705319    32A     -0.694574    33A     -0.692140
      34A     -0.676783    35A     -0.670712    36A     -0.658803
      37A     -0.619401    38A     -0.596148    39A     -0.586016
      40A     -0.570677    41A     -0.444248    42A     -0.405182

    Virtual:

      43A     -0.054465    44A      0.005646    45A      0.013632
      46A      0.029143    47A      0.042450    48A      0.054295
      49A      0.080541    50A      0.088767    51A      0.101659
      52A      0.117529    53A      0.121818    54A      0.126220
      55A      0.134205    56A      0.137169    57A      0.165482
      58A      0.172238    59A      0.176478    60A      0.188120
      61A      0.208682    62A      0.214797    63A      0.268410
      64A      0.277396    65A      0.326170    66A      0.350874
      67A      0.379255    68A      0.384866    69A      0.394502
      70A      0.405157    71A      0.418930    72A      0.424914
      73A      0.437033    74A      0.452510    75A      0.519133
      76A      0.539527    77A      0.551161    78A      0.554686
      79A      0.587274    80A      0.595253    81A      0.605785
      82A      0.612286    83A      0.615182    84A      0.618765
      85A      0.626826    86A      0.639851    87A      0.648354
      88A      0.661357    89A      0.666683    90A      0.676178
      91A      0.692692    92A      0.696946    93A      0.713287
      94A      0.715204    95A      0.722019    96A      0.732151
      97A      0.740361    98A      0.758954    99A      0.771037
     100A      0.779938   101A      0.786889   102A      0.794947
     103A      0.797188   104A      0.804818   105A      0.808310
     106A      0.833142   107A      0.838114   108A      0.844889
     109A      0.847187   110A      0.865115   111A      0.876501
     112A      0.911748   113A      0.915437   114A      0.935679
     115A      0.943327   116A      0.975127   117A      1.020251
     118A      1.027476   119A      1.039644   120A      1.059797
     121A      1.073643   122A      1.119220   123A      1.132522
     124A      1.139893   125A      1.159804   126A      1.181468
     127A      1.189948   128A      1.203357   129A      1.206739
     130A      1.233180   131A      1.249190   132A      1.260414
     133A      1.275356   134A      1.294119   135A      1.319842
     136A      1.375400   137A      1.400890   138A      1.406464
     139A      1.425831   140A      1.460691   141A      1.467208
     142A      1.478936   143A      1.506618   144A      1.514465
     145A      1.527051   146A      1.584280   147A      1.594270
     148A      1.602833   149A      1.628700   150A      1.641689
     151A      1.658828   152A      1.673727   153A      1.690466
     154A      1.704320   155A      1.713607   156A      1.729669
     157A      1.741189   158A      1.753124   159A      1.769738
     160A      1.775068   161A      1.789221   162A      1.793998
     163A      1.799741   164A      1.807071   165A      1.818508
     166A      1.822893   167A      1.837196   168A      1.847526
     169A      1.860836   170A      1.872075   171A      1.885500
     172A      1.890128   173A      1.908223   174A      1.911746
     175A      1.927481   176A      1.941515   177A      1.959537
     178A      1.967462   179A      1.972533   180A      1.974311
     181A      1.999285   182A      2.018458   183A      2.031085
     184A      2.045670   185A      2.080018   186A      2.102600
     187A      2.111405   188A      2.133988   189A      2.159060
     190A      2.162405   191A      2.169756   192A      2.184280
     193A      2.203657   194A      2.268484   195A      2.277213
     196A      2.291673   197A      2.299691   198A      2.322054
     199A      2.346403   200A      2.373389   201A      2.388989
     202A      2.404700   203A      2.423250   204A      2.436174
     205A      2.475035   206A      2.521917   207A      2.531681
     208A      2.535873   209A      2.555002   210A      2.597016
     211A      2.632145   212A      2.633834   213A      2.675375
     214A      2.682565   215A      2.700200   216A      2.704277
     217A      2.755817   218A      2.761653   219A      2.788602
     220A      2.799384   221A      2.858604   222A      2.881974
     223A      2.898009   224A      2.984112   225A      3.031261
     226A      3.108836   227A      3.130301   228A      3.141289
     229A      3.172223   230A      3.233683   231A      3.469872
     232A      3.561087   233A      3.871535   234A      4.074522

    Final Occupation by Irrep:
              A
    DOCC [    42 ]

  @RHF Final Energy:  -479.25649310531225

   => Energetics <=

    Nuclear Repulsion Energy =            595.4098539860868868
    One-Electron Energy =               -1818.6897418127612127
    Two-Electron Energy =                 744.0233947213622514
    Total Energy =                       -479.2564931053121882

Computation Completed

Properties will be evaluated at   0.000000,   0.000000,   0.000000 [a0]

Properties computed using the SCF density matrix

  Nuclear Dipole Moment: [e a0]
     X:    -9.7616      Y:     6.6369      Z:     4.2101

  Electronic Dipole Moment: [e a0]
     X:     5.0992      Y:    -3.0716      Z:    -4.1602

  Dipole Moment: [e a0]
     X:    -4.6624      Y:     3.5652      Z:     0.0499     Total:     5.8695

  Dipole Moment: [D]
     X:   -11.8505      Y:     9.0619      Z:     0.1268     Total:    14.9187

*** tstop() called on ds3 at Mon Apr 27 23:08:54 2020
Module time:
	user time   =     155.35 seconds =       2.59 minutes
	system time =      69.66 seconds =       1.16 minutes
	total time  =        215 seconds =       3.58 minutes
Total time:
	user time   =     155.35 seconds =       2.59 minutes
	system time =      69.66 seconds =       1.16 minutes
	total time  =        215 seconds =       3.58 minutes
                                     G D M A

                                 by Anthony Stone

                           version 2.2.06, 22 June 2011

               Distributed Multipoles from Gaussian wavefunctions

Starting at 23:8:54 on 27 Apr 2020

Using SCF density matrix from file ./SSI/SSI-035LYS-083TYR-1-dimer.test.947.fchk

                         Distributed Multipole Analysis

Standard DMA

Positions and radii in angstrom
Multipole moments in atomic units, ea_0^k for rank k

C          x = -2.906941  y =  0.806733  z =  0.489913 angstrom
           Maximum rank =  0   Radius =  0.650 angstrom
                   Q00  =  -0.035593

C          x = -4.265941  y =  0.166733  z =  0.233913 angstrom
           Maximum rank =  0   Radius =  0.650 angstrom
                   Q00  =  -0.227181

N          x = -2.783941  y =  2.116733  z = -0.195087 angstrom
           Maximum rank =  0   Radius =  0.650 angstrom
                   Q00  =  -0.134345

H          x = -2.783941  y =  0.942733  z =  1.569913 angstrom
           Maximum rank =  0   Radius =  0.325 angstrom
                   Q00  =   0.128436

H          x = -2.119941  y =  0.125733  z =  0.149913 angstrom
           Maximum rank =  0   Radius =  0.325 angstrom
                   Q00  =   0.136128

H          x = -4.396941  y = -0.042267  z = -0.829087 angstrom
           Maximum rank =  0   Radius =  0.325 angstrom
                   Q00  =   0.104743

H          x = -5.046941  y =  0.869733  z =  0.531913 angstrom
           Maximum rank =  0   Radius =  0.325 angstrom
                   Q00  =   0.094672

H          x = -3.486941  y =  2.767733  z =  0.135913 angstrom
           Maximum rank =  0   Radius =  0.325 angstrom
                   Q00  =   0.253261

H          x = -1.881941  y =  2.542733  z = -0.014087 angstrom
           Maximum rank =  0   Radius =  0.325 angstrom
                   Q00  =   0.258697

H          x = -2.895941  y =  2.032733  z = -1.198087 angstrom
           Maximum rank =  0   Radius =  0.325 angstrom
                   Q00  =   0.252051

H          x = -4.400451  y = -0.749647  z =  0.827333 angstrom
           Maximum rank =  0   Radius =  0.325 angstrom
                   Q00  =   0.158060

C          x =  3.687059  y =  0.174733  z =  1.660913 angstrom
           Maximum rank =  0   Radius =  0.650 angstrom
                   Q00  =  -0.190858

C          x =  0.343059  y = -0.778267  z = -0.868087 angstrom
           Maximum rank =  0   Radius =  0.650 angstrom
                   Q00  =   0.289949

C          x =  0.804059  y =  0.537733  z = -0.794087 angstrom
           Maximum rank =  0   Radius =  0.650 angstrom
                   Q00  =  -0.211895

C          x =  0.957059  y = -1.783267  z = -0.121087 angstrom
           Maximum rank =  0   Radius =  0.650 angstrom
                   Q00  =  -0.110005

C          x =  1.889059  y =  0.844733  z =  0.025913 angstrom
           Maximum rank =  0   Radius =  0.650 angstrom
                   Q00  =  -0.067156

C          x =  2.048059  y = -1.469267  z =  0.684913 angstrom
           Maximum rank =  0   Radius =  0.650 angstrom
                   Q00  =   0.042374

C          x =  2.521059  y = -0.156267  z =  0.768913 angstrom
           Maximum rank =  0   Radius =  0.650 angstrom
                   Q00  =  -0.127352

O          x = -0.714941  y = -1.057267  z = -1.674087 angstrom
           Maximum rank =  0   Radius =  0.650 angstrom
                   Q00  =  -0.628838

H          x =  0.334059  y =  1.316733  z = -1.378087 angstrom
           Maximum rank =  0   Radius =  0.325 angstrom
                   Q00  =   0.039522

H          x = -0.980941  y = -0.304267  z = -2.209087 angstrom
           Maximum rank =  0   Radius =  0.325 angstrom
                   Q00  =   0.391689

H          x =  0.573059  y = -2.790267  z = -0.157087 angstrom
           Maximum rank =  0   Radius =  0.325 angstrom
                   Q00  =   0.095019

H          x =  2.243059  y =  1.866733  z =  0.084913 angstrom
           Maximum rank =  0   Radius =  0.325 angstrom
                   Q00  =   0.080099

H          x =  2.530059  y = -2.250267  z =  1.252913 angstrom
           Maximum rank =  0   Radius =  0.325 angstrom
                   Q00  =   0.087368

H          x =  4.015059  y = -0.728267  z =  2.172913 angstrom
           Maximum rank =  0   Radius =  0.325 angstrom
                   Q00  =   0.108403

H          x =  3.336059  y =  0.871733  z =  2.422913 angstrom
           Maximum rank =  0   Radius =  0.325 angstrom
                   Q00  =   0.098849

H          x =  4.544994  y =  0.619913  z =  1.135779 angstrom
           Maximum rank =  0   Radius =  0.325 angstrom
                   Q00  =   0.113904

Total multipoles referred to origin at
           x =   0.000000,  y =    0.000000,  z =    0.000000 angstrom
                   Q00  =   1.000000

Finished at 23:8:54 on 27 Apr 2020

  DMA results are available in the Python driver through the
	  variable('DMA DISTRIBUTED MULTIPOLES')
  and
	  variable('DMA TOTAL MULTIPOLES')
  commands.

    Psi4 stopped on: Monday, 27 April 2020 11:08PM
    Psi4 wall time for execution: 0:03:35.38

*** Psi4 exiting successfully. Buy a developer a beer!
