                               Psi4 1.3.2 release

  ==> Input File <==

--------------------------------------------------------------------------
import numpy as np
set {scf_type pk
basis cc-pvdz
d_convergence 10
gdma_switch   0
gdma_limit    0
gdma_origin   [ 0.0,  0.0,  0.0 ]
}
molecule test {
    units Angstrom
    1 1
    --
    1 1
    C                0.328536764680590    -1.017059599837177    -2.849751858370977
    C                0.776536764680590    -0.758059599837177    -1.460751858370977
    C                1.286536764680590     0.400940400162823    -0.968751858370977
    C                0.807536764680590    -1.708059599837177    -0.382751858370977
    C                1.294536764680590    -1.026059599837177     0.763248141629023
    C                0.386536764680590    -3.038059599837177    -0.245751858370977
    C                1.381536764680590    -1.637059599837177     2.003248141629023
    C                0.489536764680590    -3.655059599837177     0.998248141629023
    C                0.987536764680590    -2.960059599837177     2.109248141629023
    N                1.588536764680590     0.251940400162823     0.367248141629023
    H                0.206536764680590    -0.070059599837177    -3.378751858370977
    H               -0.650463235319410    -1.486059599837177    -2.787751858370977
    H                1.421536764680590     1.312940400162823    -1.542751858370977
    H                1.971536764680590     0.985940400162823     0.953248141629023
    H               -0.019463235319410    -3.574059599837177    -1.092751858370977
    H                1.782536764680590    -1.111059599837177     2.841248141629024
    H                0.179536764680590    -4.678059599837177     1.120248141629023
    H                1.061536764680590    -3.467059599837177     3.061248141629023
    H                1.003975764680590    -1.676659599837177    -3.414297858370977
    C               -1.742463235319410     1.045940400162823     0.813248141629023
    C               -1.831463235319410     0.901940400162823     2.305248141629024
    C               -1.190463235319410     2.823940400162823    -0.766751858370977
    N               -1.103463235319410     2.301940400162823     0.441248141629023
    N               -1.886463235319410     2.202940400162823    -1.700751858370977
    N               -0.566463235319410     3.950940400162823    -1.042751858370977
    H               -1.167463235319410     0.215940400162823     0.402248141629023
    H               -2.759463235319410     1.001940400162823     0.416248141629023
    H               -2.590463235319410     1.589940400162823     2.681248141629024
    H               -0.870463235319410     1.128940400162823     2.770248141629024
    H               -0.571463235319410     2.800940400162823     1.139248141629023
    H               -2.339463235319410     1.331940400162823    -1.488751858370977
    H               -1.962463235319410     2.595940400162823    -2.624751858370976
    H               -0.035463235319410     4.426940400162823    -0.330751858370977
    H               -0.629463235319410     4.353940400162823    -1.963751858370977
    H               -2.105224235319410    -0.140539599837177     2.524987141629023

}
e, wfn = energy('scf', return_wfn=True)
gdma(wfn)
dmavals = variable('DMA DISTRIBUTED MULTIPOLES')
charges = np.array(dmavals)
print(charges)
np.save('SSI-051TRP-097ARG-1-dimer.npy', np.array(charges))--------------------------------------------------------------------------

*** tstart() called on ds3
*** at Mon Apr 27 22:29:06 2020

   => Loading Basis Set <=

    Name: CC-PVDZ
    Role: ORBITAL
    Keyword: BASIS
    atoms 1-9, 20-22   entry C          line   138 file /theoryfs2/ds/metcalf/miniconda2/envs/tf2gpu/share/psi4/basis/cc-pvdz.gbs
    atoms 10, 23-25    entry N          line   168 file /theoryfs2/ds/metcalf/miniconda2/envs/tf2gpu/share/psi4/basis/cc-pvdz.gbs
    atoms 11-19, 26-35 entry H          line    22 file /theoryfs2/ds/metcalf/miniconda2/envs/tf2gpu/share/psi4/basis/cc-pvdz.gbs

         ---------------------------------------------------------
                                   SCF
               by Justin Turney, Rob Parrish, Andy Simmonett
                          and Daniel G. A. Smith
                              RHF Reference
                        1 Threads,    500 MiB Core
         ---------------------------------------------------------

  ==> Geometry <==

    Molecular point group: c1
    Full point group: C1

    Geometry (in Angstrom), charge = 1, multiplicity = 1:

       Center              X                  Y                   Z               Mass
    ------------   -----------------  -----------------  -----------------  -----------------
         C            0.328536764681    -1.017059599837    -2.849751858371    12.000000000000
         C            0.776536764681    -0.758059599837    -1.460751858371    12.000000000000
         C            1.286536764681     0.400940400163    -0.968751858371    12.000000000000
         C            0.807536764681    -1.708059599837    -0.382751858371    12.000000000000
         C            1.294536764681    -1.026059599837     0.763248141629    12.000000000000
         C            0.386536764681    -3.038059599837    -0.245751858371    12.000000000000
         C            1.381536764681    -1.637059599837     2.003248141629    12.000000000000
         C            0.489536764681    -3.655059599837     0.998248141629    12.000000000000
         C            0.987536764681    -2.960059599837     2.109248141629    12.000000000000
         N            1.588536764681     0.251940400163     0.367248141629    14.003074004430
         H            0.206536764681    -0.070059599837    -3.378751858371     1.007825032230
         H           -0.650463235319    -1.486059599837    -2.787751858371     1.007825032230
         H            1.421536764681     1.312940400163    -1.542751858371     1.007825032230
         H            1.971536764681     0.985940400163     0.953248141629     1.007825032230
         H           -0.019463235319    -3.574059599837    -1.092751858371     1.007825032230
         H            1.782536764681    -1.111059599837     2.841248141629     1.007825032230
         H            0.179536764681    -4.678059599837     1.120248141629     1.007825032230
         H            1.061536764681    -3.467059599837     3.061248141629     1.007825032230
         H            1.003975764681    -1.676659599837    -3.414297858371     1.007825032230
         C           -1.742463235319     1.045940400163     0.813248141629    12.000000000000
         C           -1.831463235319     0.901940400163     2.305248141629    12.000000000000
         C           -1.190463235319     2.823940400163    -0.766751858371    12.000000000000
         N           -1.103463235319     2.301940400163     0.441248141629    14.003074004430
         N           -1.886463235319     2.202940400163    -1.700751858371    14.003074004430
         N           -0.566463235319     3.950940400163    -1.042751858371    14.003074004430
         H           -1.167463235319     0.215940400163     0.402248141629     1.007825032230
         H           -2.759463235319     1.001940400163     0.416248141629     1.007825032230
         H           -2.590463235319     1.589940400163     2.681248141629     1.007825032230
         H           -0.870463235319     1.128940400163     2.770248141629     1.007825032230
         H           -0.571463235319     2.800940400163     1.139248141629     1.007825032230
         H           -2.339463235319     1.331940400163    -1.488751858371     1.007825032230
         H           -1.962463235319     2.595940400163    -2.624751858371     1.007825032230
         H           -0.035463235319     4.426940400163    -0.330751858371     1.007825032230
         H           -0.629463235319     4.353940400163    -1.963751858371     1.007825032230
         H           -2.105224235319    -0.140539599837     2.524987141629     1.007825032230

  Running in c1 symmetry.

  Rotational constants: A =      0.02691  B =      0.01159  C =      0.00981 [cm^-1]
  Rotational constants: A =    806.78212  B =    347.43419  C =    294.04698 [MHz]
  Nuclear repulsion = 1119.265759035249175

  Charge       = 1
  Multiplicity = 1
  Electrons    = 118
  Nalpha       = 59
  Nbeta        = 59

  ==> Algorithm <==

  SCF Algorithm Type is PK.
  DIIS enabled.
  MOM disabled.
  Fractional occupation disabled.
  Guess Type is SAD.
  Energy threshold   = 1.00e-06
  Density threshold  = 1.00e-10
  Integral threshold = 0.00e+00

  ==> Primary Basis <==

  Basis Set: CC-PVDZ
    Blend: CC-PVDZ
    Number of shells: 153
    Number of basis function: 319
    Number of Cartesian functions: 335
    Spherical Harmonics?: true
    Max angular momentum: 2

  ==> Pre-Iterations <==

   -------------------------------------------------------
    Irrep   Nso     Nmo     Nalpha   Nbeta   Ndocc  Nsocc
   -------------------------------------------------------
     A        319     319       0       0       0       0
   -------------------------------------------------------
    Total     319     319      59      59      59       0
   -------------------------------------------------------

  ==> Integral Setup <==

  Using integral reordering PK algorithm.
  Sizing the integral batches needed.
  Building batch lookup table.
   Calculation information:
      Number of atoms:                  35
      Number of AO shells:             153
      Number of primitives:            447
      Number of atomic orbitals:       335
      Number of basis functions:       319

      Integral cutoff                 1.00e-12
      Number of threads:                 1

	Batch   1 pq = [       0,    9405] index = [             0,44231715] size =     44231715
	Batch   2 pq = [    9405,   13301] index = [      44231715,88464951] size =     44233236
	Batch   3 pq = [   13301,   16290] index = [      88464951,132690195] size =     44225244
	Batch   4 pq = [   16290,   18810] index = [     132690195,176917455] size =     44227260
	Batch   5 pq = [   18810,   21030] index = [     176917455,221140965] size =     44223510
	Batch   6 pq = [   21030,   23037] index = [     221140965,265363203] size =     44222238
	Batch   7 pq = [   23037,   24883] index = [     265363203,309594286] size =     44231083
	Batch   8 pq = [   24883,   26601] index = [     309594286,353819901] size =     44225615
	Batch   9 pq = [   26601,   28214] index = [     353819901,398029005] size =     44209104
	Batch  10 pq = [   28214,   29740] index = [     398029005,442248670] size =     44219665
	Batch  11 pq = [   29740,   31191] index = [     442248670,486454836] size =     44206166
	Batch  12 pq = [   31191,   32578] index = [     486454836,530679331] size =     44224495
	Batch  13 pq = [   32578,   33908] index = [     530679331,574893186] size =     44213855
	Batch  14 pq = [   33908,   35188] index = [     574893186,619115266] size =     44222080
	Batch  15 pq = [   35188,   36423] index = [     619115266,663335676] size =     44220410
	Batch  16 pq = [   36423,   37617] index = [     663335676,707538153] size =     44202477
	Batch  17 pq = [   37617,   38775] index = [     707538153,751769700] size =     44231547
	Batch  18 pq = [   38775,   39899] index = [     751769700,795985050] size =     44215350
	Batch  19 pq = [   39899,   40992] index = [     795985050,840192528] size =     44207478
	Batch  20 pq = [   40992,   42057] index = [     840192528,884416653] size =     44224125
	Batch  21 pq = [   42057,   43095] index = [     884416653,928611060] size =     44194407
	Batch  22 pq = [   43095,   44109] index = [     928611060,972823995] size =     44212935
	Batch  23 pq = [   44109,   45100] index = [     972823995,1017027550] size =     44203555
	Batch  24 pq = [   45100,   46070] index = [    1017027550,1061245485] size =     44217935
	Batch  25 pq = [   46070,   47020] index = [    1061245485,1105463710] size =     44218225
	Batch  26 pq = [   47020,   47951] index = [    1105463710,1149673176] size =     44209466
	Batch  27 pq = [   47951,   48864] index = [    1149673176,1193869680] size =     44196504
	Batch  28 pq = [   48864,   49761] index = [    1193869680,1238103441] size =     44233761
	Batch  29 pq = [   49761,   50642] index = [    1238103441,1282331403] size =     44227962
	Batch  30 pq = [   50642,   51040] index = [    1282331403,1302566320] size =     20234917
  Task number: 118
  Buffer size: 11059200
  Buffer per thread: 2
  We computed 87207084 shell quartets total.
  Whereas there are 69401871 unique shell quartets.
    25.66 percent of shell quartets recomputed by reordering.

  ==> DiskJK: Disk-Based J/K Matrices <==

    J tasked:                  Yes
    K tasked:                  Yes
    wK tasked:                  No
    Memory [MiB]:              375
    Schwarz Cutoff:          1E-12

    OpenMP threads:              1

  Minimum eigenvalue in the overlap matrix is 2.4323037817E-04.
  Using Symmetric Orthogonalization.

  SCF Guess: Superposition of Atomic Densities via on-the-fly atomic UHF.

  ==> Iterations <==

                        Total Energy        Delta E     RMS |[F,P]|

   @RHF iter SAD:  -682.99327189851942   -6.82993e+02   0.00000e+00
   @RHF iter   1:  -682.79990201759097    1.93370e-01   2.33102e-03 DIIS
   @RHF iter   2:  -683.10536109048098   -3.05459e-01   9.92333e-04 DIIS
   @RHF iter   3:  -683.15560477054260   -5.02437e-02   2.80680e-04 DIIS
   @RHF iter   4:  -683.16087963231973   -5.27486e-03   1.17957e-04 DIIS
   @RHF iter   5:  -683.16166704437671   -7.87412e-04   1.98010e-05 DIIS
   @RHF iter   6:  -683.16171313425548   -4.60899e-05   9.38086e-06 DIIS
   @RHF iter   7:  -683.16172259686493   -9.46261e-06   3.46130e-06 DIIS
   @RHF iter   8:  -683.16172493769159   -2.34083e-06   1.41257e-06 DIIS
   @RHF iter   9:  -683.16172538432431   -4.46633e-07   7.05853e-07 DIIS
   @RHF iter  10:  -683.16172551854345   -1.34219e-07   3.01089e-07 DIIS
   @RHF iter  11:  -683.16172554588570   -2.73423e-08   9.87111e-08 DIIS
   @RHF iter  12:  -683.16172554852949   -2.64379e-09   3.85738e-08 DIIS
   @RHF iter  13:  -683.16172554877460   -2.45109e-10   1.27778e-08 DIIS
   @RHF iter  14:  -683.16172554880325   -2.86491e-11   4.44085e-09 DIIS
   @RHF iter  15:  -683.16172554879711    6.13909e-12   1.90513e-09 DIIS
   @RHF iter  16:  -683.16172554879006    7.04858e-12   6.57745e-10 DIIS
   @RHF iter  17:  -683.16172554881439   -2.43290e-11   3.24653e-10 DIIS
   @RHF iter  18:  -683.16172554879586    1.85310e-11   1.50935e-10 DIIS
   @RHF iter  19:  -683.16172554879699   -1.13687e-12   6.28855e-11 DIIS
  Energy and wave function converged.

  ==> Post-Iterations <==

    Orbital Energies [Eh]
    ---------------------

    Doubly Occupied:

       1A    -15.782901     2A    -15.778851     3A    -15.771743
       4A    -15.706239     5A    -11.579091     6A    -11.416887
       7A    -11.368871     8A    -11.363058     9A    -11.358274
      10A    -11.326539    11A    -11.324609    12A    -11.323280
      13A    -11.321954    14A    -11.320718    15A    -11.318336
      16A    -11.311153    17A     -1.539833    18A     -1.400329
      19A     -1.396509    20A     -1.385878    21A     -1.224110
      22A     -1.182351    23A     -1.178610    24A     -1.093547
      25A     -1.086395    26A     -1.046978    27A     -1.034827
      28A     -1.007830    29A     -0.968427    30A     -0.938065
      31A     -0.926600    32A     -0.901840    33A     -0.853549
      34A     -0.853023    35A     -0.849672    36A     -0.825540
      37A     -0.818248    38A     -0.786779    39A     -0.763475
      40A     -0.757558    41A     -0.738981    42A     -0.700854
      43A     -0.695713    44A     -0.685868    45A     -0.673429
      46A     -0.670308    47A     -0.659993    48A     -0.653898
      49A     -0.648365    50A     -0.639015    51A     -0.624541
      52A     -0.611249    53A     -0.590389    54A     -0.570407
      55A     -0.567273    56A     -0.556268    57A     -0.472323
      58A     -0.392638    59A     -0.376745

    Virtual:

      60A     -0.007879    61A      0.023061    62A      0.026212
      63A      0.035903    64A      0.046944    65A      0.058934
      66A      0.073567    67A      0.074768    68A      0.089532
      69A      0.101558    70A      0.108588    71A      0.119167
      72A      0.125626    73A      0.136315    74A      0.139933
      75A      0.145213    76A      0.162991    77A      0.169511
      78A      0.176121    79A      0.187438    80A      0.187963
      81A      0.193422    82A      0.211095    83A      0.220942
      84A      0.259148    85A      0.274046    86A      0.288431
      87A      0.300000    88A      0.311340    89A      0.326690
      90A      0.339823    91A      0.349802    92A      0.362545
      93A      0.380358    94A      0.386531    95A      0.407551
      96A      0.425994    97A      0.443349    98A      0.459570
      99A      0.473206   100A      0.476956   101A      0.502691
     102A      0.519454   103A      0.531120   104A      0.532521
     105A      0.546493   106A      0.557029   107A      0.559580
     108A      0.570901   109A      0.580025   110A      0.602605
     111A      0.605257   112A      0.610603   113A      0.620627
     114A      0.624895   115A      0.644083   116A      0.644191
     117A      0.651892   118A      0.657452   119A      0.661976
     120A      0.679628   121A      0.689543   122A      0.693618
     123A      0.696987   124A      0.711933   125A      0.720279
     126A      0.740667   127A      0.746279   128A      0.754154
     129A      0.755066   130A      0.764953   131A      0.770241
     132A      0.777159   133A      0.780608   134A      0.782085
     135A      0.794199   136A      0.803088   137A      0.807342
     138A      0.813143   139A      0.818838   140A      0.832967
     141A      0.836795   142A      0.840581   143A      0.848055
     144A      0.860602   145A      0.866248   146A      0.882445
     147A      0.883792   148A      0.902559   149A      0.907005
     150A      0.913450   151A      0.927957   152A      0.935220
     153A      0.947603   154A      0.958371   155A      0.985118
     156A      0.995258   157A      1.012487   158A      1.031654
     159A      1.038163   160A      1.053042   161A      1.054992
     162A      1.069255   163A      1.074564   164A      1.096012
     165A      1.116364   166A      1.120407   167A      1.128515
     168A      1.136800   169A      1.140103   170A      1.149167
     171A      1.173181   172A      1.177812   173A      1.186570
     174A      1.189189   175A      1.207912   176A      1.212370
     177A      1.223196   178A      1.229059   179A      1.236464
     180A      1.245190   181A      1.273709   182A      1.278932
     183A      1.293542   184A      1.323924   185A      1.347472
     186A      1.364300   187A      1.388864   188A      1.413424
     189A      1.460503   190A      1.466181   191A      1.487152
     192A      1.499416   193A      1.510070   194A      1.520394
     195A      1.528819   196A      1.547903   197A      1.555253
     198A      1.564230   199A      1.569750   200A      1.585353
     201A      1.592357   202A      1.596813   203A      1.618307
     204A      1.628149   205A      1.657712   206A      1.672201
     207A      1.682089   208A      1.683598   209A      1.699896
     210A      1.708155   211A      1.718612   212A      1.735339
     213A      1.746093   214A      1.756530   215A      1.760813
     216A      1.766776   217A      1.774101   218A      1.791577
     219A      1.795449   220A      1.804408   221A      1.814700
     222A      1.815823   223A      1.821055   224A      1.834837
     225A      1.840466   226A      1.842392   227A      1.855623
     228A      1.861263   229A      1.867184   230A      1.872449
     231A      1.878006   232A      1.895547   233A      1.908303
     234A      1.918964   235A      1.924400   236A      1.945086
     237A      1.953137   238A      1.957945   239A      1.987937
     240A      1.995262   241A      1.997240   242A      2.007483
     243A      2.009863   244A      2.022727   245A      2.028769
     246A      2.033131   247A      2.052841   248A      2.066297
     249A      2.076021   250A      2.087215   251A      2.092782
     252A      2.094744   253A      2.108332   254A      2.130430
     255A      2.145834   256A      2.159548   257A      2.193875
     258A      2.214050   259A      2.218746   260A      2.232782
     261A      2.239519   262A      2.246747   263A      2.266955
     264A      2.271051   265A      2.287967   266A      2.302705
     267A      2.318814   268A      2.334157   269A      2.354558
     270A      2.361251   271A      2.366738   272A      2.367322
     273A      2.381648   274A      2.400011   275A      2.432791
     276A      2.454789   277A      2.479021   278A      2.491893
     279A      2.507264   280A      2.519173   281A      2.551794
     282A      2.567783   283A      2.579717   284A      2.594676
     285A      2.606538   286A      2.634822   287A      2.650279
     288A      2.674961   289A      2.678011   290A      2.685405
     291A      2.689609   292A      2.691553   293A      2.714792
     294A      2.724479   295A      2.754442   296A      2.776780
     297A      2.781366   298A      2.795853   299A      2.818179
     300A      2.823421   301A      2.861703   302A      2.872176
     303A      2.874115   304A      2.899072   305A      2.934730
     306A      2.949869   307A      2.981088   308A      2.997261
     309A      3.039334   310A      3.105452   311A      3.107538
     312A      3.113981   313A      3.169721   314A      3.221550
     315A      3.288150   316A      3.606097   317A      3.653806
     318A      3.680406   319A      3.866226

    Final Occupation by Irrep:
              A
    DOCC [    59 ]

  @RHF Final Energy:  -683.16172554879699

   => Energetics <=

    Nuclear Repulsion Energy =           1119.2657590352491752
    One-Electron Energy =               -3133.4134983425033170
    Two-Electron Energy =                1330.9860137584571476
    Total Energy =                       -683.1617255487969942

Computation Completed

Properties will be evaluated at   0.000000,   0.000000,   0.000000 [a0]

Properties computed using the SCF density matrix

  Nuclear Dipole Moment: [e a0]
     X:    -7.5635      Y:     5.1700      Z:    -0.6638

  Electronic Dipole Moment: [e a0]
     X:     5.6486      Y:    -0.2621      Z:    -0.2191

  Dipole Moment: [e a0]
     X:    -1.9149      Y:     4.9078      Z:    -0.8829     Total:     5.3416

  Dipole Moment: [D]
     X:    -4.8672      Y:    12.4744      Z:    -2.2442     Total:    13.5771

*** tstop() called on ds3 at Mon Apr 27 22:49:26 2020
Module time:
	user time   =     778.23 seconds =      12.97 minutes
	system time =     241.97 seconds =       4.03 minutes
	total time  =       1220 seconds =      20.33 minutes
Total time:
	user time   =     778.23 seconds =      12.97 minutes
	system time =     241.97 seconds =       4.03 minutes
	total time  =       1220 seconds =      20.33 minutes
                                     G D M A

                                 by Anthony Stone

                           version 2.2.06, 22 June 2011

               Distributed Multipoles from Gaussian wavefunctions

Starting at 22:49:26 on 27 Apr 2020

Using SCF density matrix from file ./SSI/SSI-051TRP-097ARG-1-dimer.test.27325.fchk

                         Distributed Multipole Analysis

Standard DMA

Positions and radii in angstrom
Multipole moments in atomic units, ea_0^k for rank k

C          x =  0.328537  y = -1.017060  z = -2.849752 angstrom
           Maximum rank =  0   Radius =  0.650 angstrom
                   Q00  =  -0.193104

C          x =  0.776537  y = -0.758060  z = -1.460752 angstrom
           Maximum rank =  0   Radius =  0.650 angstrom
                   Q00  =  -0.120063

C          x =  1.286537  y =  0.400940  z = -0.968752 angstrom
           Maximum rank =  0   Radius =  0.650 angstrom
                   Q00  =   0.033297

C          x =  0.807537  y = -1.708060  z = -0.382752 angstrom
           Maximum rank =  0   Radius =  0.650 angstrom
                   Q00  =  -0.069954

C          x =  1.294537  y = -1.026060  z =  0.763248 angstrom
           Maximum rank =  0   Radius =  0.650 angstrom
                   Q00  =   0.243315

C          x =  0.386537  y = -3.038060  z = -0.245752 angstrom
           Maximum rank =  0   Radius =  0.650 angstrom
                   Q00  =  -0.095029

C          x =  1.381537  y = -1.637060  z =  2.003248 angstrom
           Maximum rank =  0   Radius =  0.650 angstrom
                   Q00  =  -0.125415

C          x =  0.489537  y = -3.655060  z =  0.998248 angstrom
           Maximum rank =  0   Radius =  0.650 angstrom
                   Q00  =  -0.095954

C          x =  0.987537  y = -2.960060  z =  2.109248 angstrom
           Maximum rank =  0   Radius =  0.650 angstrom
                   Q00  =  -0.020005

N          x =  1.588537  y =  0.251940  z =  0.367248 angstrom
           Maximum rank =  0   Radius =  0.650 angstrom
                   Q00  =  -0.481650

H          x =  0.206537  y = -0.070060  z = -3.378752 angstrom
           Maximum rank =  0   Radius =  0.325 angstrom
                   Q00  =   0.084934

H          x = -0.650463  y = -1.486060  z = -2.787752 angstrom
           Maximum rank =  0   Radius =  0.325 angstrom
                   Q00  =   0.090404

H          x =  1.421537  y =  1.312940  z = -1.542752 angstrom
           Maximum rank =  0   Radius =  0.325 angstrom
                   Q00  =   0.087417

H          x =  1.971537  y =  0.985940  z =  0.953248 angstrom
           Maximum rank =  0   Radius =  0.325 angstrom
                   Q00  =   0.212880

H          x = -0.019463  y = -3.574060  z = -1.092752 angstrom
           Maximum rank =  0   Radius =  0.325 angstrom
                   Q00  =   0.081858

H          x =  1.782537  y = -1.111060  z =  2.841248 angstrom
           Maximum rank =  0   Radius =  0.325 angstrom
                   Q00  =   0.079971

H          x =  0.179537  y = -4.678060  z =  1.120248 angstrom
           Maximum rank =  0   Radius =  0.325 angstrom
                   Q00  =   0.079675

H          x =  1.061537  y = -3.467060  z =  3.061248 angstrom
           Maximum rank =  0   Radius =  0.325 angstrom
                   Q00  =   0.084241

H          x =  1.003976  y = -1.676660  z = -3.414298 angstrom
           Maximum rank =  0   Radius =  0.325 angstrom
                   Q00  =   0.126613

C          x = -1.742463  y =  1.045940  z =  0.813248 angstrom
           Maximum rank =  0   Radius =  0.650 angstrom
                   Q00  =  -0.040675

C          x = -1.831463  y =  0.901940  z =  2.305248 angstrom
           Maximum rank =  0   Radius =  0.650 angstrom
                   Q00  =  -0.189119

C          x = -1.190463  y =  2.823940  z = -0.766752 angstrom
           Maximum rank =  0   Radius =  0.650 angstrom
                   Q00  =   1.069029

N          x = -1.103463  y =  2.301940  z =  0.441248 angstrom
           Maximum rank =  0   Radius =  0.650 angstrom
                   Q00  =  -0.469473

N          x = -1.886463  y =  2.202940  z = -1.700752 angstrom
           Maximum rank =  0   Radius =  0.650 angstrom
                   Q00  =  -0.579688

N          x = -0.566463  y =  3.950940  z = -1.042752 angstrom
           Maximum rank =  0   Radius =  0.650 angstrom
                   Q00  =  -0.599432

H          x = -1.167463  y =  0.215940  z =  0.402248 angstrom
           Maximum rank =  0   Radius =  0.325 angstrom
                   Q00  =   0.121139

H          x = -2.759463  y =  1.001940  z =  0.416248 angstrom
           Maximum rank =  0   Radius =  0.325 angstrom
                   Q00  =   0.071087

H          x = -2.590463  y =  1.589940  z =  2.681248 angstrom
           Maximum rank =  0   Radius =  0.325 angstrom
                   Q00  =   0.095084

H          x = -0.870463  y =  1.128940  z =  2.770248 angstrom
           Maximum rank =  0   Radius =  0.325 angstrom
                   Q00  =   0.086153

H          x = -0.571463  y =  2.800940  z =  1.139248 angstrom
           Maximum rank =  0   Radius =  0.325 angstrom
                   Q00  =   0.224528

H          x = -2.339463  y =  1.331940  z = -1.488752 angstrom
           Maximum rank =  0   Radius =  0.325 angstrom
                   Q00  =   0.278647

H          x = -1.962463  y =  2.595940  z = -2.624752 angstrom
           Maximum rank =  0   Radius =  0.325 angstrom
                   Q00  =   0.262309

H          x = -0.035463  y =  4.426940  z = -0.330752 angstrom
           Maximum rank =  0   Radius =  0.325 angstrom
                   Q00  =   0.263155

H          x = -0.629463  y =  4.353940  z = -1.963752 angstrom
           Maximum rank =  0   Radius =  0.325 angstrom
                   Q00  =   0.262946

H          x = -2.105224  y = -0.140540  z =  2.524987 angstrom
           Maximum rank =  0   Radius =  0.325 angstrom
                   Q00  =   0.140879

Total multipoles referred to origin at
           x =   0.000000,  y =    0.000000,  z =    0.000000 angstrom
                   Q00  =   1.000000

Finished at 22:49:26 on 27 Apr 2020

  DMA results are available in the Python driver through the
	  variable('DMA DISTRIBUTED MULTIPOLES')
  and
	  variable('DMA TOTAL MULTIPOLES')
  commands.

    Psi4 stopped on: Monday, 27 April 2020 10:49PM
    Psi4 wall time for execution: 0:20:20.26

*** Psi4 exiting successfully. Buy a developer a beer!
