                               Psi4 1.3.2 release

  ==> Input File <==

--------------------------------------------------------------------------
import numpy as np
set {scf_type pk
basis cc-pvdz
d_convergence 10
gdma_switch   0
gdma_limit    0
gdma_origin   [ 0.0,  0.0,  0.0 ]
}
molecule test {
    units Angstrom
    0 1
    --
    0 1
    C                2.520611022999663    -0.688349503910680    -0.226901334773786
    C                2.859611022999663    -0.086349503910680    -1.586901334773786
    S                3.856611022999663    -1.739349503910680     0.390098665226214
    H                2.287611022999663     0.106650496089320     0.481098665226214
    H                1.625611022999663    -1.305349503910680    -0.336901334773786
    H                3.132611022999663    -0.895349503910680    -2.268901334773787
    H                4.847611022999663    -0.846349503910680     0.287098665226214
    H                3.695401022999663     0.624030496089320    -1.504301334773786
    H                1.966001022999663     0.405310496089320    -1.998891334773786
    C               -3.370388977000337     2.891650496089320     0.209098665226214
    C               -0.847388977000337     0.124650496089320     0.870098665226214
    C               -1.490388977000337     1.357650496089320     0.904098665226214
    C               -1.379388977000337    -0.914349503910680     0.121098665226214
    C               -2.675388977000337     1.554650496089320     0.192098665226214
    C               -2.544388977000337    -0.723349503910680    -0.599901334773786
    C               -3.186388977000337     0.511650496089320    -0.572901334773786
    H                0.077611022999663    -0.012349503910680     1.399098665226214
    H               -1.060388977000337     2.167650496089320     1.477098665226214
    H               -0.880388977000337    -1.873349503910680     0.089098665226214
    H               -2.950388977000337    -1.535349503910680    -1.184901334773786
    H               -4.215388977000337     2.886650496089320    -0.481901334773786
    H               -2.655388977000337     3.623650496089320    -0.165901334773786
    H               -4.085388977000337     0.656650496089320    -1.152901334773786
    H               -3.711878977000337     3.217360496089320     1.202728665226214

}
e, wfn = energy('scf', return_wfn=True)
gdma(wfn)
dmavals = variable('DMA DISTRIBUTED MULTIPOLES')
charges = np.array(dmavals)
print(charges)
np.save('SSI-038CYS-095PHE-1-dimer.npy', np.array(charges))--------------------------------------------------------------------------

*** tstart() called on ds3
*** at Sun Apr 26 22:04:10 2020

   => Loading Basis Set <=

    Name: CC-PVDZ
    Role: ORBITAL
    Keyword: BASIS
    atoms 1-2, 10-16 entry C          line   138 file /theoryfs2/ds/metcalf/miniconda2/envs/tf2gpu/share/psi4/basis/cc-pvdz.gbs
    atoms 3          entry S          line   598 file /theoryfs2/ds/metcalf/miniconda2/envs/tf2gpu/share/psi4/basis/cc-pvdz.gbs
    atoms 4-9, 17-24 entry H          line    22 file /theoryfs2/ds/metcalf/miniconda2/envs/tf2gpu/share/psi4/basis/cc-pvdz.gbs

         ---------------------------------------------------------
                                   SCF
               by Justin Turney, Rob Parrish, Andy Simmonett
                          and Daniel G. A. Smith
                              RHF Reference
                        1 Threads,    500 MiB Core
         ---------------------------------------------------------

  ==> Geometry <==

    Molecular point group: c1
    Full point group: C1

    Geometry (in Angstrom), charge = 0, multiplicity = 1:

       Center              X                  Y                   Z               Mass
    ------------   -----------------  -----------------  -----------------  -----------------
         C            2.520611023000    -0.688349503911    -0.226901334774    12.000000000000
         C            2.859611023000    -0.086349503911    -1.586901334774    12.000000000000
         S            3.856611023000    -1.739349503911     0.390098665226    31.972071174400
         H            2.287611023000     0.106650496089     0.481098665226     1.007825032230
         H            1.625611023000    -1.305349503911    -0.336901334774     1.007825032230
         H            3.132611023000    -0.895349503911    -2.268901334774     1.007825032230
         H            4.847611023000    -0.846349503911     0.287098665226     1.007825032230
         H            3.695401023000     0.624030496089    -1.504301334774     1.007825032230
         H            1.966001023000     0.405310496089    -1.998891334774     1.007825032230
         C           -3.370388977000     2.891650496089     0.209098665226    12.000000000000
         C           -0.847388977000     0.124650496089     0.870098665226    12.000000000000
         C           -1.490388977000     1.357650496089     0.904098665226    12.000000000000
         C           -1.379388977000    -0.914349503911     0.121098665226    12.000000000000
         C           -2.675388977000     1.554650496089     0.192098665226    12.000000000000
         C           -2.544388977000    -0.723349503911    -0.599901334774    12.000000000000
         C           -3.186388977000     0.511650496089    -0.572901334774    12.000000000000
         H            0.077611023000    -0.012349503911     1.399098665226     1.007825032230
         H           -1.060388977000     2.167650496089     1.477098665226     1.007825032230
         H           -0.880388977000    -1.873349503911     0.089098665226     1.007825032230
         H           -2.950388977000    -1.535349503911    -1.184901334774     1.007825032230
         H           -4.215388977000     2.886650496089    -0.481901334774     1.007825032230
         H           -2.655388977000     3.623650496089    -0.165901334774     1.007825032230
         H           -4.085388977000     0.656650496089    -1.152901334774     1.007825032230
         H           -3.711878977000     3.217360496089     1.202728665226     1.007825032230

  Running in c1 symmetry.

  Rotational constants: A =      0.07592  B =      0.01108  C =      0.01069 [cm^-1]
  Rotational constants: A =   2275.95445  B =    332.07414  C =    320.46942 [MHz]
  Nuclear repulsion =  534.021068966209327

  Charge       = 0
  Multiplicity = 1
  Electrons    = 84
  Nalpha       = 42
  Nbeta        = 42

  ==> Algorithm <==

  SCF Algorithm Type is PK.
  DIIS enabled.
  MOM disabled.
  Fractional occupation disabled.
  Guess Type is SAD.
  Energy threshold   = 1.00e-06
  Density threshold  = 1.00e-10
  Integral threshold = 0.00e+00

  ==> Primary Basis <==

  Basis Set: CC-PVDZ
    Blend: CC-PVDZ
    Number of shells: 104
    Number of basis function: 214
    Number of Cartesian functions: 224
    Spherical Harmonics?: true
    Max angular momentum: 2

  ==> Pre-Iterations <==

   -------------------------------------------------------
    Irrep   Nso     Nmo     Nalpha   Nbeta   Ndocc  Nsocc
   -------------------------------------------------------
     A        214     214       0       0       0       0
   -------------------------------------------------------
    Total     214     214      42      42      42       0
   -------------------------------------------------------

  ==> Integral Setup <==

  Using integral reordering PK algorithm.
  Sizing the integral batches needed.
  Building batch lookup table.
   Calculation information:
      Number of atoms:                  24
      Number of AO shells:             104
      Number of primitives:            318
      Number of atomic orbitals:       224
      Number of basis functions:       214

      Integral cutoff                 1.00e-12
      Number of threads:                 1

	Batch   1 pq = [       0,    9405] index = [             0,44231715] size =     44231715
	Batch   2 pq = [    9405,   13301] index = [      44231715,88464951] size =     44233236
	Batch   3 pq = [   13301,   16290] index = [      88464951,132690195] size =     44225244
	Batch   4 pq = [   16290,   18810] index = [     132690195,176917455] size =     44227260
	Batch   5 pq = [   18810,   21030] index = [     176917455,221140965] size =     44223510
	Batch   6 pq = [   21030,   23005] index = [     221140965,264626515] size =     43485550
  Task number: 24
  Buffer size: 11059200
  Buffer per thread: 2
  We computed 12065725 shell quartets total.
  Whereas there are 14908530 unique shell quartets.

  ==> DiskJK: Disk-Based J/K Matrices <==

    J tasked:                  Yes
    K tasked:                  Yes
    wK tasked:                  No
    Memory [MiB]:              375
    Schwarz Cutoff:          1E-12

    OpenMP threads:              1

  Minimum eigenvalue in the overlap matrix is 3.0519609726E-04.
  Using Symmetric Orthogonalization.

  SCF Guess: Superposition of Atomic Densities via on-the-fly atomic UHF.

  ==> Iterations <==

                        Total Energy        Delta E     RMS |[F,P]|

   @RHF iter SAD:  -745.54870676044391   -7.45549e+02   0.00000e+00
   @RHF iter   1:  -746.29541420247381   -7.46707e-01   2.60408e-03 DIIS
   @RHF iter   2:  -746.49059834660136   -1.95184e-01   1.05073e-03 DIIS
   @RHF iter   3:  -746.51869673381100   -2.80984e-02   2.51977e-04 DIIS
   @RHF iter   4:  -746.52139088599472   -2.69415e-03   5.68818e-05 DIIS
   @RHF iter   5:  -746.52149855360858   -1.07668e-04   1.51220e-05 DIIS
   @RHF iter   6:  -746.52150675632231   -8.20271e-06   4.48999e-06 DIIS
   @RHF iter   7:  -746.52150754770241   -7.91380e-07   1.60764e-06 DIIS
   @RHF iter   8:  -746.52150766016916   -1.12467e-07   4.68222e-07 DIIS
   @RHF iter   9:  -746.52150767962416   -1.94550e-08   1.86305e-07 DIIS
   @RHF iter  10:  -746.52150768377260   -4.14843e-09   8.73978e-08 DIIS
   @RHF iter  11:  -746.52150768497074   -1.19815e-09   3.41517e-08 DIIS
   @RHF iter  12:  -746.52150768517356   -2.02817e-10   1.05838e-08 DIIS
   @RHF iter  13:  -746.52150768518607   -1.25056e-11   3.43789e-09 DIIS
   @RHF iter  14:  -746.52150768518550    5.68434e-13   1.02429e-09 DIIS
   @RHF iter  15:  -746.52150768518925   -3.75167e-12   4.10666e-10 DIIS
   @RHF iter  16:  -746.52150768518754    1.70530e-12   1.58899e-10 DIIS
   @RHF iter  17:  -746.52150768518982   -2.27374e-12   6.74614e-11 DIIS
  Energy and wave function converged.

  ==> Post-Iterations <==

    Orbital Energies [Eh]
    ---------------------

    Doubly Occupied:

       1A    -91.942012     2A    -11.262065     3A    -11.244414
       4A    -11.237950     5A    -11.237500     6A    -11.234087
       7A    -11.233191     8A    -11.232960     9A    -11.232255
      10A    -11.230801    11A     -8.945585    12A     -6.627711
      13A     -6.626227    14A     -6.623904    15A     -1.157661
      16A     -1.071376    17A     -1.048654    18A     -1.015905
      19A     -0.937969    20A     -0.934776    21A     -0.830440
      22A     -0.818410    23A     -0.799110    24A     -0.695659
      25A     -0.636503    26A     -0.635628    27A     -0.631636
      28A     -0.589768    29A     -0.585164    30A     -0.578962
      31A     -0.565871    32A     -0.549514    33A     -0.538943
      34A     -0.514128    35A     -0.500200    36A     -0.491320
      37A     -0.488503    38A     -0.483970    39A     -0.439460
      40A     -0.350175    41A     -0.335899    42A     -0.326013

    Virtual:

      43A      0.130282    44A      0.138873    45A      0.160225
      46A      0.180688    47A      0.196007    48A      0.207242
      49A      0.211969    50A      0.223452    51A      0.231235
      52A      0.246754    53A      0.255114    54A      0.266307
      55A      0.269718    56A      0.275520    57A      0.289320
      58A      0.302428    59A      0.324536    60A      0.366352
      61A      0.371673    62A      0.381438    63A      0.455957
      64A      0.459425    65A      0.471431    66A      0.501020
      67A      0.510727    68A      0.564726    69A      0.581279
      70A      0.582819    71A      0.594680    72A      0.618817
      73A      0.620016    74A      0.639320    75A      0.674549
      76A      0.682575    77A      0.692807    78A      0.697862
      79A      0.706792    80A      0.713849    81A      0.724732
      82A      0.736055    83A      0.742026    84A      0.747814
      85A      0.752099    86A      0.755310    87A      0.787546
      88A      0.792468    89A      0.799574    90A      0.804446
      91A      0.840763    92A      0.847966    93A      0.854633
      94A      0.864391    95A      0.867957    96A      0.876996
      97A      0.886937    98A      0.888727    99A      0.892320
     100A      0.900149   101A      0.905999   102A      0.912819
     103A      0.922269   104A      0.930701   105A      0.937291
     106A      0.944539   107A      0.963126   108A      0.985239
     109A      0.991739   110A      1.005617   111A      1.028176
     112A      1.062316   113A      1.120031   114A      1.137640
     115A      1.147970   116A      1.157225   117A      1.186823
     118A      1.208229   119A      1.214525   120A      1.231084
     121A      1.244663   122A      1.247611   123A      1.271226
     124A      1.280544   125A      1.296452   126A      1.306216
     127A      1.310377   128A      1.323833   129A      1.329534
     130A      1.410481   131A      1.421011   132A      1.470456
     133A      1.499348   134A      1.523492   135A      1.546871
     136A      1.602837   137A      1.622417   138A      1.641155
     139A      1.674229   140A      1.675823   141A      1.682984
     142A      1.716886   143A      1.733391   144A      1.738360
     145A      1.742543   146A      1.758952   147A      1.789447
     148A      1.816250   149A      1.843782   150A      1.867556
     151A      1.880096   152A      1.884620   153A      1.891192
     154A      1.896476   155A      1.900528   156A      1.912222
     157A      1.918458   158A      1.931156   159A      1.945679
     160A      1.953277   161A      1.957850   162A      1.965173
     163A      1.978202   164A      1.987128   165A      2.006347
     166A      2.013933   167A      2.020980   168A      2.035557
     169A      2.050896   170A      2.078786   171A      2.105866
     172A      2.108306   173A      2.126756   174A      2.157905
     175A      2.169779   176A      2.178360   177A      2.200409
     178A      2.230262   179A      2.241706   180A      2.263961
     181A      2.285548   182A      2.288328   183A      2.300801
     184A      2.314114   185A      2.339224   186A      2.362472
     187A      2.388845   188A      2.442328   189A      2.449639
     190A      2.471560   191A      2.515802   192A      2.534659
     193A      2.544090   194A      2.561791   195A      2.631044
     196A      2.725476   197A      2.753145   198A      2.760874
     199A      2.765996   200A      2.785782   201A      2.788484
     202A      2.814341   203A      2.815354   204A      2.845040
     205A      2.863058   206A      2.882128   207A      2.968228
     208A      2.982263   209A      3.011776   210A      3.041132
     211A      3.166577   212A      3.201845   213A      3.308048
     214A      3.976710

    Final Occupation by Irrep:
              A
    DOCC [    42 ]

  @RHF Final Energy:  -746.52150768518982

   => Energetics <=

    Nuclear Repulsion Energy =            534.0210689662093273
    One-Electron Energy =               -2080.1605962965913932
    Two-Electron Energy =                 799.6180196451921347
    Total Energy =                       -746.5215076851898175

Computation Completed

Properties will be evaluated at   0.000000,   0.000000,   0.000000 [a0]

Properties computed using the SCF density matrix

  Nuclear Dipole Moment: [e a0]
     X:    -1.7045      Y:     6.7225      Z:    -3.8881

  Electronic Dipole Moment: [e a0]
     X:     1.3803      Y:    -5.9835      Z:     3.5810

  Dipole Moment: [e a0]
     X:    -0.3242      Y:     0.7390      Z:    -0.3070     Total:     0.8634

  Dipole Moment: [D]
     X:    -0.8242      Y:     1.8784      Z:    -0.7804     Total:     2.1947

*** tstop() called on ds3 at Sun Apr 26 22:06:29 2020
Module time:
	user time   =     101.30 seconds =       1.69 minutes
	system time =      42.85 seconds =       0.71 minutes
	total time  =        139 seconds =       2.32 minutes
Total time:
	user time   =     101.30 seconds =       1.69 minutes
	system time =      42.85 seconds =       0.71 minutes
	total time  =        139 seconds =       2.32 minutes
                                     G D M A

                                 by Anthony Stone

                           version 2.2.06, 22 June 2011

               Distributed Multipoles from Gaussian wavefunctions

Starting at 22:6:29 on 26 Apr 2020

Using SCF density matrix from file ./SSI/SSI-038CYS-095PHE-1-dimer.test.7012.fchk

                         Distributed Multipole Analysis

Standard DMA

Positions and radii in angstrom
Multipole moments in atomic units, ea_0^k for rank k

C          x =  2.520611  y = -0.688350  z = -0.226901 angstrom
           Maximum rank =  0   Radius =  0.650 angstrom
                   Q00  =  -0.179229

C          x =  2.859611  y = -0.086350  z = -1.586901 angstrom
           Maximum rank =  0   Radius =  0.650 angstrom
                   Q00  =  -0.222402

S          x =  3.856611  y = -1.739350  z =  0.390099 angstrom
           Maximum rank =  0   Radius =  0.650 angstrom
                   Q00  =  -0.117267

H          x =  2.287611  y =  0.106650  z =  0.481099 angstrom
           Maximum rank =  0   Radius =  0.325 angstrom
                   Q00  =   0.067115

H          x =  1.625611  y = -1.305350  z = -0.336901 angstrom
           Maximum rank =  0   Radius =  0.325 angstrom
                   Q00  =   0.089114

H          x =  3.132611  y = -0.895350  z = -2.268901 angstrom
           Maximum rank =  0   Radius =  0.325 angstrom
                   Q00  =   0.088590

H          x =  4.847611  y = -0.846350  z =  0.287099 angstrom
           Maximum rank =  0   Radius =  0.325 angstrom
                   Q00  =   0.103541

H          x =  3.695401  y =  0.624030  z = -1.504301 angstrom
           Maximum rank =  0   Radius =  0.325 angstrom
                   Q00  =   0.080507

H          x =  1.966001  y =  0.405310  z = -1.998891 angstrom
           Maximum rank =  0   Radius =  0.325 angstrom
                   Q00  =   0.092007

C          x = -3.370389  y =  2.891650  z =  0.209099 angstrom
           Maximum rank =  0   Radius =  0.650 angstrom
                   Q00  =  -0.206138

C          x = -0.847389  y =  0.124650  z =  0.870099 angstrom
           Maximum rank =  0   Radius =  0.650 angstrom
                   Q00  =  -0.041706

C          x = -1.490389  y =  1.357650  z =  0.904099 angstrom
           Maximum rank =  0   Radius =  0.650 angstrom
                   Q00  =  -0.094291

C          x = -1.379389  y = -0.914350  z =  0.121099 angstrom
           Maximum rank =  0   Radius =  0.650 angstrom
                   Q00  =  -0.090588

C          x = -2.675389  y =  1.554650  z =  0.192099 angstrom
           Maximum rank =  0   Radius =  0.650 angstrom
                   Q00  =  -0.094939

C          x = -2.544389  y = -0.723350  z = -0.599901 angstrom
           Maximum rank =  0   Radius =  0.650 angstrom
                   Q00  =  -0.038887

C          x = -3.186389  y =  0.511650  z = -0.572901 angstrom
           Maximum rank =  0   Radius =  0.650 angstrom
                   Q00  =  -0.045305

H          x =  0.077611  y = -0.012350  z =  1.399099 angstrom
           Maximum rank =  0   Radius =  0.325 angstrom
                   Q00  =   0.066197

H          x = -1.060389  y =  2.167650  z =  1.477099 angstrom
           Maximum rank =  0   Radius =  0.325 angstrom
                   Q00  =   0.056146

H          x = -0.880389  y = -1.873350  z =  0.089099 angstrom
           Maximum rank =  0   Radius =  0.325 angstrom
                   Q00  =   0.059685

H          x = -2.950389  y = -1.535350  z = -1.184901 angstrom
           Maximum rank =  0   Radius =  0.325 angstrom
                   Q00  =   0.065572

H          x = -4.215389  y =  2.886650  z = -0.481901 angstrom
           Maximum rank =  0   Radius =  0.325 angstrom
                   Q00  =   0.098240

H          x = -2.655389  y =  3.623650  z = -0.165901 angstrom
           Maximum rank =  0   Radius =  0.325 angstrom
                   Q00  =   0.099408

H          x = -4.085389  y =  0.656650  z = -1.152901 angstrom
           Maximum rank =  0   Radius =  0.325 angstrom
                   Q00  =   0.059399

H          x = -3.711879  y =  3.217360  z =  1.202729 angstrom
           Maximum rank =  0   Radius =  0.325 angstrom
                   Q00  =   0.105232

Total multipoles referred to origin at
           x =   0.000000,  y =    0.000000,  z =    0.000000 angstrom
                   Q00  =  -0.000000

Finished at 22:6:29 on 26 Apr 2020

  DMA results are available in the Python driver through the
	  variable('DMA DISTRIBUTED MULTIPOLES')
  and
	  variable('DMA TOTAL MULTIPOLES')
  commands.

    Psi4 stopped on: Sunday, 26 April 2020 10:06PM
    Psi4 wall time for execution: 0:02:18.85

*** Psi4 exiting successfully. Buy a developer a beer!
