                               Psi4 1.3.2 release

  ==> Input File <==

--------------------------------------------------------------------------
import numpy as np
set {scf_type pk
basis cc-pvdz
d_convergence 10
gdma_switch   0
gdma_limit    0
gdma_origin   [ 0.0,  0.0,  0.0 ]
}
molecule test {
    units Angstrom
    0 1
    --
    0 1
    C                3.271917369211258    -1.020705700271513     2.101180644307670
    C                2.073917369211259    -0.216705700271513     1.628180644307669
    O                1.511917369211259    -0.560705700271513     0.571180644307669
    O                1.671917369211259     0.727294299728487     2.364180644307670
    H                3.136917369211258    -2.053705700271513     1.771180644307669
    H                3.275917369211259    -1.035705700271513     3.194180644307670
    H                4.250689369211258    -0.664655700271513     1.747290644307669
    C               -0.068082630788741    -0.256705700271513    -2.399819355692331
    C               -2.093082630788741     0.329294299728487    -1.066819355692331
    N               -0.793082630788741     0.067294299728487    -1.166819355692331
    N               -2.887082630788742     0.353294299728487    -2.124819355692330
    N               -2.602082630788741     0.582294299728487     0.119180644307669
    H               -0.237082630788741     0.048294299728487    -0.315819355692331
    H               -0.640082630788741    -0.976705700271513    -2.988819355692331
    H                0.878917369211259    -0.730705700271513    -2.133819355692331
    H               -2.515082630788742     0.146294299728487    -3.034819355692330
    H               -3.869082630788741     0.556294299728487    -2.020819355692331
    H               -2.004082630788741     0.578294299728487     0.930180644307669
    H               -3.583082630788741     0.787294299728487     0.222180644307669
    H                0.144725369211259     0.636064299728487    -3.006179355692331

}
e, wfn = energy('scf', return_wfn=True)
gdma(wfn)
dmavals = variable('DMA DISTRIBUTED MULTIPOLES')
charges = np.array(dmavals)
print(charges)
np.save('SSI-041ASP-084ARG-1-dimer.npy', np.array(charges))--------------------------------------------------------------------------

*** tstart() called on ds3
*** at Mon Apr 27 16:49:49 2020

   => Loading Basis Set <=

    Name: CC-PVDZ
    Role: ORBITAL
    Keyword: BASIS
    atoms 1-2, 8-9   entry C          line   138 file /theoryfs2/ds/metcalf/miniconda2/envs/tf2gpu/share/psi4/basis/cc-pvdz.gbs
    atoms 3-4        entry O          line   198 file /theoryfs2/ds/metcalf/miniconda2/envs/tf2gpu/share/psi4/basis/cc-pvdz.gbs
    atoms 5-7, 13-20 entry H          line    22 file /theoryfs2/ds/metcalf/miniconda2/envs/tf2gpu/share/psi4/basis/cc-pvdz.gbs
    atoms 10-12      entry N          line   168 file /theoryfs2/ds/metcalf/miniconda2/envs/tf2gpu/share/psi4/basis/cc-pvdz.gbs

         ---------------------------------------------------------
                                   SCF
               by Justin Turney, Rob Parrish, Andy Simmonett
                          and Daniel G. A. Smith
                              RHF Reference
                        1 Threads,    500 MiB Core
         ---------------------------------------------------------

  ==> Geometry <==

    Molecular point group: c1
    Full point group: C1

    Geometry (in Angstrom), charge = 0, multiplicity = 1:

       Center              X                  Y                   Z               Mass
    ------------   -----------------  -----------------  -----------------  -----------------
         C            3.271917369211    -1.020705700272     2.101180644308    12.000000000000
         C            2.073917369211    -0.216705700272     1.628180644308    12.000000000000
         O            1.511917369211    -0.560705700272     0.571180644308    15.994914619570
         O            1.671917369211     0.727294299728     2.364180644308    15.994914619570
         H            3.136917369211    -2.053705700272     1.771180644308     1.007825032230
         H            3.275917369211    -1.035705700272     3.194180644308     1.007825032230
         H            4.250689369211    -0.664655700272     1.747290644308     1.007825032230
         C           -0.068082630789    -0.256705700272    -2.399819355692    12.000000000000
         C           -2.093082630789     0.329294299728    -1.066819355692    12.000000000000
         N           -0.793082630789     0.067294299728    -1.166819355692    14.003074004430
         N           -2.887082630789     0.353294299728    -2.124819355692    14.003074004430
         N           -2.602082630789     0.582294299728     0.119180644308    14.003074004430
         H           -0.237082630789     0.048294299728    -0.315819355692     1.007825032230
         H           -0.640082630789    -0.976705700272    -2.988819355692     1.007825032230
         H            0.878917369211    -0.730705700272    -2.133819355692     1.007825032230
         H           -2.515082630789     0.146294299728    -3.034819355692     1.007825032230
         H           -3.869082630789     0.556294299728    -2.020819355692     1.007825032230
         H           -2.004082630789     0.578294299728     0.930180644308     1.007825032230
         H           -3.583082630789     0.787294299728     0.222180644308     1.007825032230
         H            0.144725369211     0.636064299728    -3.006179355692     1.007825032230

  Running in c1 symmetry.

  Rotational constants: A =      0.10291  B =      0.01857  C =      0.01622 [cm^-1]
  Rotational constants: A =   3085.06168  B =    556.56930  C =    486.36092 [MHz]
  Nuclear repulsion =  443.595631874557910

  Charge       = 0
  Multiplicity = 1
  Electrons    = 72
  Nalpha       = 36
  Nbeta        = 36

  ==> Algorithm <==

  SCF Algorithm Type is PK.
  DIIS enabled.
  MOM disabled.
  Fractional occupation disabled.
  Guess Type is SAD.
  Energy threshold   = 1.00e-06
  Density threshold  = 1.00e-10
  Integral threshold = 0.00e+00

  ==> Primary Basis <==

  Basis Set: CC-PVDZ
    Blend: CC-PVDZ
    Number of shells: 87
    Number of basis function: 181
    Number of Cartesian functions: 190
    Spherical Harmonics?: true
    Max angular momentum: 2

  ==> Pre-Iterations <==

   -------------------------------------------------------
    Irrep   Nso     Nmo     Nalpha   Nbeta   Ndocc  Nsocc
   -------------------------------------------------------
     A        181     181       0       0       0       0
   -------------------------------------------------------
    Total     181     181      36      36      36       0
   -------------------------------------------------------

  ==> Integral Setup <==

  Using integral reordering PK algorithm.
  Sizing the integral batches needed.
  Building batch lookup table.
   Calculation information:
      Number of atoms:                  20
      Number of AO shells:              87
      Number of primitives:            253
      Number of atomic orbitals:       190
      Number of basis functions:       181

      Integral cutoff                 1.00e-12
      Number of threads:                 1

	Batch   1 pq = [       0,    9405] index = [             0,44231715] size =     44231715
	Batch   2 pq = [    9405,   13301] index = [      44231715,88464951] size =     44233236
	Batch   3 pq = [   13301,   16471] index = [      88464951,135655156] size =     47190205
  Task number: 13
  Buffer size: 11059200
  Buffer per thread: 2
  We computed 5275545 shell quartets total.
  Whereas there are 7328706 unique shell quartets.

  ==> DiskJK: Disk-Based J/K Matrices <==

    J tasked:                  Yes
    K tasked:                  Yes
    wK tasked:                  No
    Memory [MiB]:              375
    Schwarz Cutoff:          1E-12

    OpenMP threads:              1

  Minimum eigenvalue in the overlap matrix is 3.8281327915E-03.
  Using Symmetric Orthogonalization.

  SCF Guess: Superposition of Atomic Densities via on-the-fly atomic UHF.

  ==> Iterations <==

                        Total Energy        Delta E     RMS |[F,P]|

   @RHF iter SAD:  -469.60767336904178   -4.69608e+02   0.00000e+00
   @RHF iter   1:  -470.67660718206184   -1.06893e+00   4.28093e-03 DIIS
   @RHF iter   2:  -470.90553300304617   -2.28926e-01   2.26231e-03 DIIS
   @RHF iter   3:  -470.96622884351916   -6.06958e-02   3.95545e-04 DIIS
   @RHF iter   4:  -470.96950879013139   -3.27995e-03   1.40105e-04 DIIS
   @RHF iter   5:  -470.96990893258942   -4.00142e-04   2.72417e-05 DIIS
   @RHF iter   6:  -470.96993039505310   -2.14625e-05   1.37219e-05 DIIS
   @RHF iter   7:  -470.96993406452810   -3.66948e-06   3.54706e-06 DIIS
   @RHF iter   8:  -470.96993462148203   -5.56954e-07   1.61270e-06 DIIS
   @RHF iter   9:  -470.96993471481704   -9.33350e-08   5.66217e-07 DIIS
   @RHF iter  10:  -470.96993473274722   -1.79302e-08   2.04473e-07 DIIS
   @RHF iter  11:  -470.96993473488783   -2.14061e-09   4.88244e-08 DIIS
   @RHF iter  12:  -470.96993473499981   -1.11982e-10   1.46155e-08 DIIS
   @RHF iter  13:  -470.96993473500629   -6.48015e-12   4.76345e-09 DIIS
   @RHF iter  14:  -470.96993473500783   -1.53477e-12   1.28270e-09 DIIS
   @RHF iter  15:  -470.96993473501175   -3.92220e-12   6.21979e-10 DIIS
   @RHF iter  16:  -470.96993473501027    1.47793e-12   2.00497e-10 DIIS
   @RHF iter  17:  -470.96993473501072   -4.54747e-13   6.48806e-11 DIIS
  Energy and wave function converged.

  ==> Post-Iterations <==

    Orbital Energies [Eh]
    ---------------------

    Doubly Occupied:

       1A    -20.400602     2A    -20.376497     3A    -15.674580
       4A    -15.661329     5A    -15.635214     6A    -11.460071
       7A    -11.306646     8A    -11.238727     9A    -11.148540
      10A     -1.416487    11A     -1.276421    12A     -1.272099
      13A     -1.261226    14A     -1.160285    15A     -1.005678
      16A     -0.911403    17A     -0.897524    18A     -0.848518
      19A     -0.816075    20A     -0.736671    21A     -0.730380
      22A     -0.693277    23A     -0.653588    24A     -0.618616
      25A     -0.615293    26A     -0.581290    27A     -0.528081
      28A     -0.516750    29A     -0.512002    30A     -0.502197
      31A     -0.451705    32A     -0.443631    33A     -0.423772
      34A     -0.313476    35A     -0.293271    36A     -0.289328

    Virtual:

      37A      0.100661    38A      0.139394    39A      0.152202
      40A      0.172548    41A      0.199440    42A      0.216970
      43A      0.243792    44A      0.257307    45A      0.269180
      46A      0.287470    47A      0.296494    48A      0.330183
      49A      0.366489    50A      0.377389    51A      0.399588
      52A      0.452258    53A      0.465437    54A      0.479474
      55A      0.569753    56A      0.587198    57A      0.589959
      58A      0.617175    59A      0.646044    60A      0.651186
      61A      0.660093    62A      0.666230    63A      0.678200
      64A      0.702398    65A      0.740439    66A      0.749271
      67A      0.808039    68A      0.821499    69A      0.826627
      70A      0.836634    71A      0.839207    72A      0.853990
      73A      0.870408    74A      0.887453    75A      0.910931
      76A      0.922870    77A      0.933985    78A      0.939730
      79A      0.952298    80A      0.956173    81A      0.979534
      82A      0.999886    83A      1.022480    84A      1.036901
      85A      1.056107    86A      1.100290    87A      1.121132
      88A      1.139256    89A      1.176016    90A      1.232360
      91A      1.236300    92A      1.245493    93A      1.256590
      94A      1.269557    95A      1.303059    96A      1.316653
      97A      1.343164    98A      1.374724    99A      1.402690
     100A      1.413077   101A      1.468903   102A      1.475618
     103A      1.504653   104A      1.542297   105A      1.546317
     106A      1.568433   107A      1.609680   108A      1.633065
     109A      1.655089   110A      1.658453   111A      1.675554
     112A      1.702494   113A      1.732996   114A      1.750446
     115A      1.756150   116A      1.777077   117A      1.821060
     118A      1.836526   119A      1.851672   120A      1.874051
     121A      1.898343   122A      1.912179   123A      1.940879
     124A      1.956423   125A      1.960535   126A      1.964604
     127A      1.985178   128A      1.992569   129A      2.037407
     130A      2.057969   131A      2.115279   132A      2.134972
     133A      2.160967   134A      2.164213   135A      2.189258
     136A      2.242428   137A      2.260710   138A      2.264344
     139A      2.293479   140A      2.318989   141A      2.333617
     142A      2.375630   143A      2.379776   144A      2.424385
     145A      2.426835   146A      2.447750   147A      2.456944
     148A      2.511689   149A      2.559367   150A      2.579879
     151A      2.586192   152A      2.627521   153A      2.643341
     154A      2.672691   155A      2.716179   156A      2.728053
     157A      2.789519   158A      2.811995   159A      2.847137
     160A      2.875042   161A      2.879852   162A      2.897739
     163A      2.918077   164A      2.938881   165A      2.953157
     166A      3.045316   167A      3.110698   168A      3.144546
     169A      3.171238   170A      3.191325   171A      3.223430
     172A      3.233594   173A      3.263547   174A      3.499309
     175A      3.661484   176A      3.700598   177A      3.709414
     178A      3.769690   179A      3.929968   180A      3.963921
     181A      4.079088

    Final Occupation by Irrep:
              A
    DOCC [    36 ]

  @RHF Final Energy:  -470.96993473501072

   => Energetics <=

    Nuclear Repulsion Energy =            443.5956318745579097
    One-Electron Energy =               -1523.7886351192680650
    Two-Electron Energy =                 609.2230685096993739
    Total Energy =                       -470.9699347350107246

Computation Completed

Properties will be evaluated at   0.000000,   0.000000,   0.000000 [a0]

Properties computed using the SCF density matrix

  Nuclear Dipole Moment: [e a0]
     X:    -1.0552      Y:    -2.5417      Z:    -5.2596

  Electronic Dipole Moment: [e a0]
     X:    -4.3968      Y:     2.6361      Z:     1.1835

  Dipole Moment: [e a0]
     X:    -5.4520      Y:     0.0945      Z:    -4.0760     Total:     6.8078

  Dipole Moment: [D]
     X:   -13.8575      Y:     0.2401      Z:   -10.3602     Total:    17.3038

*** tstop() called on ds3 at Mon Apr 27 16:51:04 2020
Module time:
	user time   =      41.53 seconds =       0.69 minutes
	system time =      20.68 seconds =       0.34 minutes
	total time  =         75 seconds =       1.25 minutes
Total time:
	user time   =      41.53 seconds =       0.69 minutes
	system time =      20.68 seconds =       0.34 minutes
	total time  =         75 seconds =       1.25 minutes
                                     G D M A

                                 by Anthony Stone

                           version 2.2.06, 22 June 2011

               Distributed Multipoles from Gaussian wavefunctions

Starting at 16:51:4 on 27 Apr 2020

Using SCF density matrix from file ./SSI/SSI-041ASP-084ARG-1-dimer.test.28240.fchk

                         Distributed Multipole Analysis

Standard DMA

Positions and radii in angstrom
Multipole moments in atomic units, ea_0^k for rank k

C          x =  3.271917  y = -1.020706  z =  2.101181 angstrom
           Maximum rank =  0   Radius =  0.650 angstrom
                   Q00  =  -0.276385

C          x =  2.073917  y = -0.216706  z =  1.628181 angstrom
           Maximum rank =  0   Radius =  0.650 angstrom
                   Q00  =   0.943137

O          x =  1.511917  y = -0.560706  z =  0.571181 angstrom
           Maximum rank =  0   Radius =  0.650 angstrom
                   Q00  =  -0.950998

O          x =  1.671917  y =  0.727294  z =  2.364181 angstrom
           Maximum rank =  0   Radius =  0.650 angstrom
                   Q00  =  -0.917083

H          x =  3.136917  y = -2.053706  z =  1.771181 angstrom
           Maximum rank =  0   Radius =  0.325 angstrom
                   Q00  =   0.062999

H          x =  3.275917  y = -1.035706  z =  3.194181 angstrom
           Maximum rank =  0   Radius =  0.325 angstrom
                   Q00  =   0.079540

H          x =  4.250689  y = -0.664656  z =  1.747291 angstrom
           Maximum rank =  0   Radius =  0.325 angstrom
                   Q00  =   0.096892

C          x = -0.068083  y = -0.256706  z = -2.399819 angstrom
           Maximum rank =  0   Radius =  0.650 angstrom
                   Q00  =  -0.109126

C          x = -2.093083  y =  0.329294  z = -1.066819 angstrom
           Maximum rank =  0   Radius =  0.650 angstrom
                   Q00  =   1.071434

N          x = -0.793083  y =  0.067294  z = -1.166819 angstrom
           Maximum rank =  0   Radius =  0.650 angstrom
                   Q00  =  -0.478011

N          x = -2.887083  y =  0.353294  z = -2.124819 angstrom
           Maximum rank =  0   Radius =  0.650 angstrom
                   Q00  =  -0.581107

N          x = -2.602083  y =  0.582294  z =  0.119181 angstrom
           Maximum rank =  0   Radius =  0.650 angstrom
                   Q00  =  -0.594322

H          x = -0.237083  y =  0.048294  z = -0.315819 angstrom
           Maximum rank =  0   Radius =  0.325 angstrom
                   Q00  =   0.267763

H          x = -0.640083  y = -0.976706  z = -2.988819 angstrom
           Maximum rank =  0   Radius =  0.325 angstrom
                   Q00  =   0.075944

H          x =  0.878917  y = -0.730706  z = -2.133819 angstrom
           Maximum rank =  0   Radius =  0.325 angstrom
                   Q00  =   0.182508

H          x = -2.515083  y =  0.146294  z = -3.034819 angstrom
           Maximum rank =  0   Radius =  0.325 angstrom
                   Q00  =   0.257205

H          x = -3.869083  y =  0.556294  z = -2.020819 angstrom
           Maximum rank =  0   Radius =  0.325 angstrom
                   Q00  =   0.244333

H          x = -2.004083  y =  0.578294  z =  0.930181 angstrom
           Maximum rank =  0   Radius =  0.325 angstrom
                   Q00  =   0.285613

H          x = -3.583083  y =  0.787294  z =  0.222181 angstrom
           Maximum rank =  0   Radius =  0.325 angstrom
                   Q00  =   0.238629

H          x =  0.144725  y =  0.636064  z = -3.006179 angstrom
           Maximum rank =  0   Radius =  0.325 angstrom
                   Q00  =   0.101033

Total multipoles referred to origin at
           x =   0.000000,  y =    0.000000,  z =    0.000000 angstrom
                   Q00  =  -0.000000

Finished at 16:51:4 on 27 Apr 2020

  DMA results are available in the Python driver through the
	  variable('DMA DISTRIBUTED MULTIPOLES')
  and
	  variable('DMA TOTAL MULTIPOLES')
  commands.

    Psi4 stopped on: Monday, 27 April 2020 04:51PM
    Psi4 wall time for execution: 0:01:15.46

*** Psi4 exiting successfully. Buy a developer a beer!
