                               Psi4 1.3.2 release

  ==> Input File <==

--------------------------------------------------------------------------
import numpy as np
set {scf_type pk
basis cc-pvdz
d_convergence 10
gdma_switch   0
gdma_limit    0
gdma_origin   [ 0.0,  0.0,  0.0 ]
}
molecule test {
    units Angstrom
    0 1
    --
    0 1
    C               -2.357505600651154     0.651025666640867    -1.956621458311373
    C               -3.013505600651154     0.700025666640867    -3.329621458311373
    H               -1.335505600651154     0.284025666640867    -2.044621458311373
    H               -2.341505600651154     1.653025666640867    -1.532621458311374
    H               -2.924505600651154    -0.006974333359133    -1.304621458311373
    H               -4.005505600651154     1.131025666640867    -3.203621458311373
    H               -3.084695600651154    -0.313864333359133    -3.750281458311373
    H               -2.439795600651154     1.346085666640867    -4.010401458311374
    C                1.026494399348846     0.776025666640867     3.105378541688627
    C                0.766494399348846    -0.972974333359133    -0.836621458311373
    C                0.107494399348846    -1.570974333359133     0.235378541688627
    C                1.508494399348846     0.188025666640867    -0.631621458311373
    C                0.190494399348846    -1.004974333359133     1.511378541688627
    C                1.591494399348846     0.747025666640867     0.645378541688627
    C                0.932494399348846     0.159025666640867     1.725378541688627
    H                0.694494399348846    -1.400974333359132    -1.826621458311373
    H               -0.469505600651154    -2.471974333359132     0.079378541688627
    H                2.000494399348846     0.666025666640867    -1.463621458311373
    H               -0.334505600651154    -1.468974333359133     2.334378541688627
    H                2.170494399348846     1.646025666640867     0.799378541688627
    H                0.019494399348846     0.950025666640867     3.478378541688627
    H                1.534494399348846     1.739025666640867     3.029378541688627
    H                1.556764399348846     0.150185666640867     3.838278541688627

}
e, wfn = energy('scf', return_wfn=True)
gdma(wfn)
dmavals = variable('DMA DISTRIBUTED MULTIPOLES')
charges = np.array(dmavals)
print(charges)
np.save('SSI-041LEU-146PHE-1-dimer.npy', np.array(charges))--------------------------------------------------------------------------

*** tstart() called on ds3
*** at Mon Apr 27 09:58:31 2020

   => Loading Basis Set <=

    Name: CC-PVDZ
    Role: ORBITAL
    Keyword: BASIS
    atoms 1-2, 9-15  entry C          line   138 file /theoryfs2/ds/metcalf/miniconda2/envs/tf2gpu/share/psi4/basis/cc-pvdz.gbs
    atoms 3-8, 16-23 entry H          line    22 file /theoryfs2/ds/metcalf/miniconda2/envs/tf2gpu/share/psi4/basis/cc-pvdz.gbs

         ---------------------------------------------------------
                                   SCF
               by Justin Turney, Rob Parrish, Andy Simmonett
                          and Daniel G. A. Smith
                              RHF Reference
                        1 Threads,    500 MiB Core
         ---------------------------------------------------------

  ==> Geometry <==

    Molecular point group: c1
    Full point group: C1

    Geometry (in Angstrom), charge = 0, multiplicity = 1:

       Center              X                  Y                   Z               Mass
    ------------   -----------------  -----------------  -----------------  -----------------
         C           -2.357505600651     0.651025666641    -1.956621458311    12.000000000000
         C           -3.013505600651     0.700025666641    -3.329621458311    12.000000000000
         H           -1.335505600651     0.284025666641    -2.044621458311     1.007825032230
         H           -2.341505600651     1.653025666641    -1.532621458311     1.007825032230
         H           -2.924505600651    -0.006974333359    -1.304621458311     1.007825032230
         H           -4.005505600651     1.131025666641    -3.203621458311     1.007825032230
         H           -3.084695600651    -0.313864333359    -3.750281458311     1.007825032230
         H           -2.439795600651     1.346085666641    -4.010401458311     1.007825032230
         C            1.026494399349     0.776025666641     3.105378541689    12.000000000000
         C            0.766494399349    -0.972974333359    -0.836621458311    12.000000000000
         C            0.107494399349    -1.570974333359     0.235378541689    12.000000000000
         C            1.508494399349     0.188025666641    -0.631621458311    12.000000000000
         C            0.190494399349    -1.004974333359     1.511378541689    12.000000000000
         C            1.591494399349     0.747025666641     0.645378541689    12.000000000000
         C            0.932494399349     0.159025666641     1.725378541689    12.000000000000
         H            0.694494399349    -1.400974333359    -1.826621458311     1.007825032230
         H           -0.469505600651    -2.471974333359     0.079378541689     1.007825032230
         H            2.000494399349     0.666025666641    -1.463621458311     1.007825032230
         H           -0.334505600651    -1.468974333359     2.334378541689     1.007825032230
         H            2.170494399349     1.646025666641     0.799378541689     1.007825032230
         H            0.019494399349     0.950025666641     3.478378541689     1.007825032230
         H            1.534494399349     1.739025666641     3.029378541689     1.007825032230
         H            1.556764399349     0.150185666641     3.838278541689     1.007825032230

  Running in c1 symmetry.

  Rotational constants: A =      0.08102  B =      0.02143  C =      0.02083 [cm^-1]
  Rotational constants: A =   2428.94851  B =    642.43803  C =    624.35426 [MHz]
  Nuclear repulsion =  404.302259843511649

  Charge       = 0
  Multiplicity = 1
  Electrons    = 68
  Nalpha       = 34
  Nbeta        = 34

  ==> Algorithm <==

  SCF Algorithm Type is PK.
  DIIS enabled.
  MOM disabled.
  Fractional occupation disabled.
  Guess Type is SAD.
  Energy threshold   = 1.00e-06
  Density threshold  = 1.00e-10
  Integral threshold = 0.00e+00

  ==> Primary Basis <==

  Basis Set: CC-PVDZ
    Blend: CC-PVDZ
    Number of shells: 96
    Number of basis function: 196
    Number of Cartesian functions: 205
    Spherical Harmonics?: true
    Max angular momentum: 2

  ==> Pre-Iterations <==

   -------------------------------------------------------
    Irrep   Nso     Nmo     Nalpha   Nbeta   Ndocc  Nsocc
   -------------------------------------------------------
     A        196     196       0       0       0       0
   -------------------------------------------------------
    Total     196     196      34      34      34       0
   -------------------------------------------------------

  ==> Integral Setup <==

  Using integral reordering PK algorithm.
  Sizing the integral batches needed.
  Building batch lookup table.
   Calculation information:
      Number of atoms:                  23
      Number of AO shells:              96
      Number of primitives:            268
      Number of atomic orbitals:       205
      Number of basis functions:       196

      Integral cutoff                 1.00e-12
      Number of threads:                 1

	Batch   1 pq = [       0,    9405] index = [             0,44231715] size =     44231715
	Batch   2 pq = [    9405,   13301] index = [      44231715,88464951] size =     44233236
	Batch   3 pq = [   13301,   16290] index = [      88464951,132690195] size =     44225244
	Batch   4 pq = [   16290,   18810] index = [     132690195,176917455] size =     44227260
	Batch   5 pq = [   18810,   19306] index = [     176917455,186370471] size =      9453016
  Task number: 17
  Buffer size: 11059200
  Buffer per thread: 2
  We computed 9095463 shell quartets total.
  Whereas there are 10841496 unique shell quartets.

  ==> DiskJK: Disk-Based J/K Matrices <==

    J tasked:                  Yes
    K tasked:                  Yes
    wK tasked:                  No
    Memory [MiB]:              375
    Schwarz Cutoff:          1E-12

    OpenMP threads:              1

  Minimum eigenvalue in the overlap matrix is 3.1583781086E-04.
  Using Symmetric Orthogonalization.

  SCF Guess: Superposition of Atomic Densities via on-the-fly atomic UHF.

  ==> Iterations <==

                        Total Energy        Delta E     RMS |[F,P]|

   @RHF iter SAD:  -347.83379838263460   -3.47834e+02   0.00000e+00
   @RHF iter   1:  -348.76787882772055   -9.34080e-01   2.89025e-03 DIIS
   @RHF iter   2:  -348.95999622645866   -1.92117e-01   1.19108e-03 DIIS
   @RHF iter   3:  -348.98972359549720   -2.97274e-02   2.56460e-04 DIIS
   @RHF iter   4:  -348.99217076830882   -2.44717e-03   5.19982e-05 DIIS
   @RHF iter   5:  -348.99224208305333   -7.13147e-05   1.80368e-05 DIIS
   @RHF iter   6:  -348.99225004028256   -7.95723e-06   4.82446e-06 DIIS
   @RHF iter   7:  -348.99225071680723   -6.76525e-07   1.30195e-06 DIIS
   @RHF iter   8:  -348.99225078078325   -6.39760e-08   3.80193e-07 DIIS
   @RHF iter   9:  -348.99225079275811   -1.19749e-08   1.87562e-07 DIIS
   @RHF iter  10:  -348.99225079610562   -3.34751e-09   8.62702e-08 DIIS
   @RHF iter  11:  -348.99225079712335   -1.01772e-09   2.77845e-08 DIIS
   @RHF iter  12:  -348.99225079719992   -7.65681e-11   1.08122e-08 DIIS
   @RHF iter  13:  -348.99225079720816   -8.24230e-12   4.08814e-09 DIIS
   @RHF iter  14:  -348.99225079720793    2.27374e-13   1.17417e-09 DIIS
   @RHF iter  15:  -348.99225079720878   -8.52651e-13   5.63027e-10 DIIS
   @RHF iter  16:  -348.99225079720776    1.02318e-12   2.46500e-10 DIIS
   @RHF iter  17:  -348.99225079721026   -2.50111e-12   8.61730e-11 DIIS
  Energy and wave function converged.

  ==> Post-Iterations <==

    Orbital Energies [Eh]
    ---------------------

    Doubly Occupied:

       1A    -11.241910     2A    -11.236627     3A    -11.235742
       4A    -11.231863     5A    -11.231722     6A    -11.231258
       7A    -11.230238     8A    -11.213064     9A    -11.206024
      10A     -1.150570    11A     -1.042878    12A     -1.013669
      13A     -1.009925    14A     -0.931025    15A     -0.828143
      16A     -0.824865    17A     -0.794999    18A     -0.690675
      19A     -0.631269    20A     -0.629440    21A     -0.594871
      22A     -0.592330    23A     -0.581782    24A     -0.574236
      25A     -0.562473    26A     -0.536737    27A     -0.495262
      28A     -0.487492    29A     -0.484809    30A     -0.482097
      31A     -0.479583    32A     -0.472995    33A     -0.331087
      34A     -0.321378

    Virtual:

      35A      0.134189    36A      0.141263    37A      0.176698
      38A      0.193122    39A      0.208240    40A      0.215603
      41A      0.241377    42A      0.248447    43A      0.249960
      44A      0.262230    45A      0.266523    46A      0.272421
      47A      0.275490    48A      0.289166    49A      0.298825
      50A      0.326454    51A      0.366706    52A      0.374403
      53A      0.402166    54A      0.449834    55A      0.460666
      56A      0.474440    57A      0.500078    58A      0.564280
      59A      0.586042    60A      0.598121    61A      0.604310
      62A      0.614647    63A      0.625786    64A      0.666286
      65A      0.670064    66A      0.678586    67A      0.695733
      68A      0.707249    69A      0.735799    70A      0.738658
      71A      0.744936    72A      0.752184    73A      0.756843
      74A      0.763448    75A      0.787517    76A      0.827338
      77A      0.837393    78A      0.858620    79A      0.861704
      80A      0.865496    81A      0.882999    82A      0.890069
      83A      0.893902    84A      0.896995    85A      0.898092
      86A      0.904222    87A      0.910297    88A      0.917934
      89A      0.924394    90A      0.937040    91A      0.941415
      92A      0.959969    93A      0.991674    94A      1.001021
      95A      1.026686    96A      1.072951    97A      1.116542
      98A      1.128932    99A      1.135493   100A      1.148756
     101A      1.152868   102A      1.159524   103A      1.194955
     104A      1.223076   105A      1.235169   106A      1.249923
     107A      1.257164   108A      1.274191   109A      1.297657
     110A      1.309084   111A      1.319283   112A      1.325646
     113A      1.413832   114A      1.484538   115A      1.493577
     116A      1.507491   117A      1.527037   118A      1.549402
     119A      1.585190   120A      1.603647   121A      1.679054
     122A      1.683286   123A      1.685352   124A      1.699435
     125A      1.733650   126A      1.742981   127A      1.763024
     128A      1.789015   129A      1.811563   130A      1.844580
     131A      1.866377   132A      1.877606   133A      1.890482
     134A      1.896039   135A      1.903592   136A      1.909955
     137A      1.917703   138A      1.925056   139A      1.934889
     140A      1.946376   141A      1.952270   142A      1.957163
     143A      1.963470   144A      1.967561   145A      1.973276
     146A      1.990307   147A      1.996019   148A      2.013542
     149A      2.031630   150A      2.053165   151A      2.075824
     152A      2.102597   153A      2.118387   154A      2.125067
     155A      2.132200   156A      2.153474   157A      2.160324
     158A      2.172174   159A      2.194845   160A      2.240668
     161A      2.264414   162A      2.284284   163A      2.294302
     164A      2.300803   165A      2.314472   166A      2.333858
     167A      2.356906   168A      2.441276   169A      2.468293
     170A      2.469332   171A      2.476741   172A      2.519957
     173A      2.528333   174A      2.572721   175A      2.589591
     176A      2.625848   177A      2.726642   178A      2.746898
     179A      2.766471   180A      2.770381   181A      2.778870
     182A      2.807530   183A      2.820023   184A      2.850463
     185A      2.854024   186A      2.858668   187A      2.864600
     188A      2.955969   189A      2.971072   190A      2.987870
     191A      3.009043   192A      3.043299   193A      3.155829
     194A      3.194569   195A      3.294294   196A      3.958451

    Final Occupation by Irrep:
              A
    DOCC [    34 ]

  @RHF Final Energy:  -348.99225079721026

   => Energetics <=

    Nuclear Repulsion Energy =            404.3022598435116493
    One-Electron Energy =               -1271.3829445897436017
    Two-Electron Energy =                 518.0884339490216917
    Total Energy =                       -348.9922507972103176

Computation Completed

Properties will be evaluated at   0.000000,   0.000000,   0.000000 [a0]

Properties computed using the SCF density matrix

  Nuclear Dipole Moment: [e a0]
     X:    -8.3991      Y:     3.6587      Z:    -5.2285

  Electronic Dipole Moment: [e a0]
     X:     8.4381      Y:    -3.6184      Z:     5.4080

  Dipole Moment: [e a0]
     X:     0.0390      Y:     0.0403      Z:     0.1796     Total:     0.1881

  Dipole Moment: [D]
     X:     0.0992      Y:     0.1024      Z:     0.4564     Total:     0.4781

*** tstop() called on ds3 at Mon Apr 27 10:03:26 2020
Module time:
	user time   =      62.00 seconds =       1.03 minutes
	system time =      25.40 seconds =       0.42 minutes
	total time  =        295 seconds =       4.92 minutes
Total time:
	user time   =      62.00 seconds =       1.03 minutes
	system time =      25.40 seconds =       0.42 minutes
	total time  =        295 seconds =       4.92 minutes
                                     G D M A

                                 by Anthony Stone

                           version 2.2.06, 22 June 2011

               Distributed Multipoles from Gaussian wavefunctions

Starting at 10:3:26 on 27 Apr 2020

Using SCF density matrix from file ./SSI/SSI-041LEU-146PHE-1-dimer.test.2167.fchk

                         Distributed Multipole Analysis

Standard DMA

Positions and radii in angstrom
Multipole moments in atomic units, ea_0^k for rank k

C          x = -2.357506  y =  0.651026  z = -1.956621 angstrom
           Maximum rank =  0   Radius =  0.650 angstrom
                   Q00  =  -0.223399

C          x = -3.013506  y =  0.700026  z = -3.329621 angstrom
           Maximum rank =  0   Radius =  0.650 angstrom
                   Q00  =  -0.238948

H          x = -1.335506  y =  0.284026  z = -2.044621 angstrom
           Maximum rank =  0   Radius =  0.325 angstrom
                   Q00  =   0.085011

H          x = -2.341506  y =  1.653026  z = -1.532621 angstrom
           Maximum rank =  0   Radius =  0.325 angstrom
                   Q00  =   0.075974

H          x = -2.924506  y = -0.006974  z = -1.304621 angstrom
           Maximum rank =  0   Radius =  0.325 angstrom
                   Q00  =   0.075691

H          x = -4.005506  y =  1.131026  z = -3.203621 angstrom
           Maximum rank =  0   Radius =  0.325 angstrom
                   Q00  =   0.074703

H          x = -3.084696  y = -0.313864  z = -3.750281 angstrom
           Maximum rank =  0   Radius =  0.325 angstrom
                   Q00  =   0.074634

H          x = -2.439796  y =  1.346086  z = -4.010401 angstrom
           Maximum rank =  0   Radius =  0.325 angstrom
                   Q00  =   0.075149

C          x =  1.026494  y =  0.776026  z =  3.105379 angstrom
           Maximum rank =  0   Radius =  0.650 angstrom
                   Q00  =  -0.207139

C          x =  0.766494  y = -0.972974  z = -0.836621 angstrom
           Maximum rank =  0   Radius =  0.650 angstrom
                   Q00  =  -0.079452

C          x =  0.107494  y = -1.570974  z =  0.235379 angstrom
           Maximum rank =  0   Radius =  0.650 angstrom
                   Q00  =  -0.078419

C          x =  1.508494  y =  0.188026  z = -0.631621 angstrom
           Maximum rank =  0   Radius =  0.650 angstrom
                   Q00  =  -0.077751

C          x =  0.190494  y = -1.004974  z =  1.511379 angstrom
           Maximum rank =  0   Radius =  0.650 angstrom
                   Q00  =  -0.057047

C          x =  1.591494  y =  0.747026  z =  0.645379 angstrom
           Maximum rank =  0   Radius =  0.650 angstrom
                   Q00  =  -0.012697

C          x =  0.932494  y =  0.159026  z =  1.725379 angstrom
           Maximum rank =  0   Radius =  0.650 angstrom
                   Q00  =  -0.098022

H          x =  0.694494  y = -1.400974  z = -1.826621 angstrom
           Maximum rank =  0   Radius =  0.325 angstrom
                   Q00  =   0.061792

H          x = -0.469506  y = -2.471974  z =  0.079379 angstrom
           Maximum rank =  0   Radius =  0.325 angstrom
                   Q00  =   0.065539

H          x =  2.000494  y =  0.666026  z = -1.463621 angstrom
           Maximum rank =  0   Radius =  0.325 angstrom
                   Q00  =   0.065565

H          x = -0.334506  y = -1.468974  z =  2.334379 angstrom
           Maximum rank =  0   Radius =  0.325 angstrom
                   Q00  =   0.056590

H          x =  2.170494  y =  1.646026  z =  0.799379 angstrom
           Maximum rank =  0   Radius =  0.325 angstrom
                   Q00  =   0.059121

H          x =  0.019494  y =  0.950026  z =  3.478379 angstrom
           Maximum rank =  0   Radius =  0.325 angstrom
                   Q00  =   0.102029

H          x =  1.534494  y =  1.739026  z =  3.029379 angstrom
           Maximum rank =  0   Radius =  0.325 angstrom
                   Q00  =   0.097229

H          x =  1.556764  y =  0.150186  z =  3.838279 angstrom
           Maximum rank =  0   Radius =  0.325 angstrom
                   Q00  =   0.103846

Total multipoles referred to origin at
           x =   0.000000,  y =    0.000000,  z =    0.000000 angstrom
                   Q00  =  -0.000000

Finished at 10:3:26 on 27 Apr 2020

  DMA results are available in the Python driver through the
	  variable('DMA DISTRIBUTED MULTIPOLES')
  and
	  variable('DMA TOTAL MULTIPOLES')
  commands.

    Psi4 stopped on: Monday, 27 April 2020 10:03AM
    Psi4 wall time for execution: 0:04:54.61

*** Psi4 exiting successfully. Buy a developer a beer!
