                               Psi4 1.3.2 release

  ==> Input File <==

--------------------------------------------------------------------------
import numpy as np
set {scf_type pk
basis cc-pvdz
d_convergence 10
gdma_switch   0
gdma_limit    0
gdma_origin   [ 0.0,  0.0,  0.0 ]
}
molecule test {
    units Angstrom
    0 1
    --
    0 1
    C                2.477258077463973    -0.682144166124038     2.435999135330495
    C               -0.413741922536027    -1.277144166124038     0.198999135330495
    C                0.813258077463973    -0.623144166124038     0.479999135330495
    C                1.232258077463973    -1.067144166124038     1.765999135330495
    C                0.330258077463973    -2.000144166124038     2.165999135330495
    C               -0.604741922536027    -0.161144166124038    -1.882000864669505
    C               -1.135741922536027    -1.053144166124038    -0.966000864669505
    C                0.616258077463973     0.518855833875962    -1.623000864669505
    C                1.305258077463973     0.315855833875962    -0.428000864669505
    N               -0.692741922536027    -2.078144166124038     1.274999135330495
    H               -1.133741922536027     0.026855833875962    -2.807000864669505
    H               -2.070741922536027    -1.560144166124038    -1.154000864669505
    H                0.973258077463973     1.252855833875962    -2.333000864669505
    H                2.086258077463973     0.986855833875962    -0.119000864669505
    H               -1.500741922536027    -2.681144166124039     1.382999135330495
    H                0.390258077463973    -2.594144166124039     3.067999135330495
    H                3.008258077463973     0.033855833875962     1.807999135330495
    H                3.088258077463973    -1.573144166124038     2.452999135330495
    H                2.411710077463973    -0.251714166124038     3.446159135330495
    C               -1.346741922536027     2.982855833875962    -1.491000864669505
    C               -2.176741922536027     4.202855833875962    -1.799000864669505
    H               -0.286741922536027     3.222855833875962    -1.536000864669505
    H               -1.588741922536027     2.601855833875962    -0.501000864669505
    H               -1.586741922536027     2.203855833875962    -2.208000864669505
    H               -3.201741922536027     3.856855833875962    -1.937000864669505
    H               -1.838262772536027     4.678285833875962    -2.731410864669505
    H               -2.185217622536027     4.901395833875962    -0.949310864669505

}
e, wfn = energy('scf', return_wfn=True)
gdma(wfn)
dmavals = variable('DMA DISTRIBUTED MULTIPOLES')
charges = np.array(dmavals)
print(charges)
np.save('SSI-133TRP-148VAL-1-dimer.npy', np.array(charges))--------------------------------------------------------------------------

*** tstart() called on ds3
*** at Tue Apr 28 11:28:51 2020

   => Loading Basis Set <=

    Name: CC-PVDZ
    Role: ORBITAL
    Keyword: BASIS
    atoms 1-9, 20-21   entry C          line   138 file /theoryfs2/ds/metcalf/miniconda2/envs/tf2gpu/share/psi4/basis/cc-pvdz.gbs
    atoms 10           entry N          line   168 file /theoryfs2/ds/metcalf/miniconda2/envs/tf2gpu/share/psi4/basis/cc-pvdz.gbs
    atoms 11-19, 22-27 entry H          line    22 file /theoryfs2/ds/metcalf/miniconda2/envs/tf2gpu/share/psi4/basis/cc-pvdz.gbs

         ---------------------------------------------------------
                                   SCF
               by Justin Turney, Rob Parrish, Andy Simmonett
                          and Daniel G. A. Smith
                              RHF Reference
                        1 Threads,    500 MiB Core
         ---------------------------------------------------------

  ==> Geometry <==

    Molecular point group: c1
    Full point group: C1

    Geometry (in Angstrom), charge = 0, multiplicity = 1:

       Center              X                  Y                   Z               Mass
    ------------   -----------------  -----------------  -----------------  -----------------
         C            2.477258077464    -0.682144166124     2.435999135330    12.000000000000
         C           -0.413741922536    -1.277144166124     0.198999135330    12.000000000000
         C            0.813258077464    -0.623144166124     0.479999135330    12.000000000000
         C            1.232258077464    -1.067144166124     1.765999135330    12.000000000000
         C            0.330258077464    -2.000144166124     2.165999135330    12.000000000000
         C           -0.604741922536    -0.161144166124    -1.882000864670    12.000000000000
         C           -1.135741922536    -1.053144166124    -0.966000864670    12.000000000000
         C            0.616258077464     0.518855833876    -1.623000864670    12.000000000000
         C            1.305258077464     0.315855833876    -0.428000864670    12.000000000000
         N           -0.692741922536    -2.078144166124     1.274999135330    14.003074004430
         H           -1.133741922536     0.026855833876    -2.807000864670     1.007825032230
         H           -2.070741922536    -1.560144166124    -1.154000864670     1.007825032230
         H            0.973258077464     1.252855833876    -2.333000864670     1.007825032230
         H            2.086258077464     0.986855833876    -0.119000864670     1.007825032230
         H           -1.500741922536    -2.681144166124     1.382999135330     1.007825032230
         H            0.390258077464    -2.594144166124     3.067999135330     1.007825032230
         H            3.008258077464     0.033855833876     1.807999135330     1.007825032230
         H            3.088258077464    -1.573144166124     2.452999135330     1.007825032230
         H            2.411710077464    -0.251714166124     3.446159135330     1.007825032230
         C           -1.346741922536     2.982855833876    -1.491000864670    12.000000000000
         C           -2.176741922536     4.202855833876    -1.799000864670    12.000000000000
         H           -0.286741922536     3.222855833876    -1.536000864670     1.007825032230
         H           -1.588741922536     2.601855833876    -0.501000864670     1.007825032230
         H           -1.586741922536     2.203855833876    -2.208000864670     1.007825032230
         H           -3.201741922536     3.856855833876    -1.937000864670     1.007825032230
         H           -1.838262772536     4.678285833876    -2.731410864670     1.007825032230
         H           -2.185217622536     4.901395833876    -0.949310864670     1.007825032230

  Running in c1 symmetry.

  Rotational constants: A =      0.05107  B =      0.01558  C =      0.01419 [cm^-1]
  Rotational constants: A =   1530.99504  B =    467.12783  C =    425.32545 [MHz]
  Nuclear repulsion =  657.169785721083258

  Charge       = 0
  Multiplicity = 1
  Electrons    = 88
  Nalpha       = 44
  Nbeta        = 44

  ==> Algorithm <==

  SCF Algorithm Type is PK.
  DIIS enabled.
  MOM disabled.
  Fractional occupation disabled.
  Guess Type is SAD.
  Energy threshold   = 1.00e-06
  Density threshold  = 1.00e-10
  Integral threshold = 0.00e+00

  ==> Primary Basis <==

  Basis Set: CC-PVDZ
    Blend: CC-PVDZ
    Number of shells: 117
    Number of basis function: 243
    Number of Cartesian functions: 255
    Spherical Harmonics?: true
    Max angular momentum: 2

  ==> Pre-Iterations <==

   -------------------------------------------------------
    Irrep   Nso     Nmo     Nalpha   Nbeta   Ndocc  Nsocc
   -------------------------------------------------------
     A        243     243       0       0       0       0
   -------------------------------------------------------
    Total     243     243      44      44      44       0
   -------------------------------------------------------

  ==> Integral Setup <==

  Using integral reordering PK algorithm.
  Sizing the integral batches needed.
  Building batch lookup table.
   Calculation information:
      Number of atoms:                  27
      Number of AO shells:             117
      Number of primitives:            339
      Number of atomic orbitals:       255
      Number of basis functions:       243

      Integral cutoff                 1.00e-12
      Number of threads:                 1

	Batch   1 pq = [       0,    9405] index = [             0,44231715] size =     44231715
	Batch   2 pq = [    9405,   13301] index = [      44231715,88464951] size =     44233236
	Batch   3 pq = [   13301,   16290] index = [      88464951,132690195] size =     44225244
	Batch   4 pq = [   16290,   18810] index = [     132690195,176917455] size =     44227260
	Batch   5 pq = [   18810,   21030] index = [     176917455,221140965] size =     44223510
	Batch   6 pq = [   21030,   23037] index = [     221140965,265363203] size =     44222238
	Batch   7 pq = [   23037,   24883] index = [     265363203,309594286] size =     44231083
	Batch   8 pq = [   24883,   26601] index = [     309594286,353819901] size =     44225615
	Batch   9 pq = [   26601,   28214] index = [     353819901,398029005] size =     44209104
	Batch  10 pq = [   28214,   29646] index = [     398029005,439457481] size =     41428476
  Task number: 40
  Buffer size: 11059200
  Buffer per thread: 2
  We computed 21453676 shell quartets total.
  Whereas there are 23829156 unique shell quartets.

  ==> DiskJK: Disk-Based J/K Matrices <==

    J tasked:                  Yes
    K tasked:                  Yes
    wK tasked:                  No
    Memory [MiB]:              375
    Schwarz Cutoff:          1E-12

    OpenMP threads:              1

  Minimum eigenvalue in the overlap matrix is 2.5803165566E-04.
  Using Symmetric Orthogonalization.

  SCF Guess: Superposition of Atomic Densities via on-the-fly atomic UHF.

  ==> Iterations <==

                        Total Energy        Delta E     RMS |[F,P]|

   @RHF iter SAD:  -479.24450131697927   -4.79245e+02   0.00000e+00
   @RHF iter   1:  -479.46557451419085   -2.21073e-01   2.64745e-03 DIIS
   @RHF iter   2:  -479.70364316361480   -2.38069e-01   1.18406e-03 DIIS
   @RHF iter   3:  -479.74716844294574   -4.35253e-02   3.12876e-04 DIIS
   @RHF iter   4:  -479.75110762498173   -3.93918e-03   1.44436e-04 DIIS
   @RHF iter   5:  -479.75180480909796   -6.97184e-04   1.98375e-05 DIIS
   @RHF iter   6:  -479.75183278708869   -2.79780e-05   8.92327e-06 DIIS
   @RHF iter   7:  -479.75183822061780   -5.43353e-06   3.66301e-06 DIIS
   @RHF iter   8:  -479.75183969973830   -1.47912e-06   1.44908e-06 DIIS
   @RHF iter   9:  -479.75184001026872   -3.10530e-07   6.61425e-07 DIIS
   @RHF iter  10:  -479.75184007347593   -6.32072e-08   3.03446e-07 DIIS
   @RHF iter  11:  -479.75184008973065   -1.62547e-08   1.20117e-07 DIIS
   @RHF iter  12:  -479.75184009229633   -2.56568e-09   3.69255e-08 DIIS
   @RHF iter  13:  -479.75184009246721   -1.70871e-10   8.85451e-09 DIIS
   @RHF iter  14:  -479.75184009247516   -7.95808e-12   2.29080e-09 DIIS
   @RHF iter  15:  -479.75184009247846   -3.29692e-12   1.13527e-09 DIIS
   @RHF iter  16:  -479.75184009247346    5.00222e-12   5.44542e-10 DIIS
   @RHF iter  17:  -479.75184009247187    1.59162e-12   2.47519e-10 DIIS
   @RHF iter  18:  -479.75184009247465   -2.78533e-12   1.15661e-10 DIIS
   @RHF iter  19:  -479.75184009247795   -3.29692e-12   4.51192e-11 DIIS
  Energy and wave function converged.

  ==> Post-Iterations <==

    Orbital Energies [Eh]
    ---------------------

    Doubly Occupied:

       1A    -15.601096     2A    -11.260771     3A    -11.258693
       4A    -11.230165     5A    -11.228824     6A    -11.227835
       7A    -11.222092     8A    -11.220125     9A    -11.217037
      10A    -11.210999    11A    -11.208489    12A    -11.200977
      13A     -1.299762    14A     -1.126790    15A     -1.077927
      16A     -1.014792    17A     -0.997755    18A     -0.985686
      19A     -0.933171    20A     -0.840036    21A     -0.823516
      22A     -0.804227    23A     -0.752757    24A     -0.721235
      25A     -0.662844    26A     -0.641609    27A     -0.604995
      28A     -0.596494    29A     -0.592945    30A     -0.591450
      31A     -0.589127    32A     -0.565948    33A     -0.555157
      34A     -0.540735    35A     -0.522585    36A     -0.497589
      37A     -0.494070    38A     -0.475461    39A     -0.472970
      40A     -0.470745    41A     -0.452363    42A     -0.371728
      43A     -0.292170    44A     -0.270307

    Virtual:

      45A      0.125973    46A      0.167985    47A      0.179204
      48A      0.184219    49A      0.195995    50A      0.212352
      51A      0.217495    52A      0.227756    53A      0.232655
      54A      0.250865    55A      0.256233    56A      0.261772
      57A      0.277860    58A      0.287464    59A      0.299221
      60A      0.304216    61A      0.321328    62A      0.342908
      63A      0.374639    64A      0.387449    65A      0.410609
      66A      0.414927    67A      0.427647    68A      0.449294
      69A      0.468657    70A      0.480077    71A      0.506663
      72A      0.528862    73A      0.582648    74A      0.601025
      75A      0.607719    76A      0.613596    77A      0.625481
      78A      0.643925    79A      0.653688    80A      0.659655
      81A      0.665314    82A      0.692319    83A      0.707505
      84A      0.710386    85A      0.720448    86A      0.735357
      87A      0.738007    88A      0.745379    89A      0.753712
      90A      0.767534    91A      0.774684    92A      0.778060
      93A      0.795378    94A      0.801896    95A      0.831018
      96A      0.855834    97A      0.868326    98A      0.872236
      99A      0.883001   100A      0.886918   101A      0.893745
     102A      0.899461   103A      0.902606   104A      0.911036
     105A      0.914839   106A      0.919385   107A      0.931205
     108A      0.936982   109A      0.950672   110A      0.951877
     111A      0.959498   112A      0.970346   113A      0.988662
     114A      0.999696   115A      1.015612   116A      1.026929
     117A      1.054167   118A      1.077102   119A      1.094431
     120A      1.117018   121A      1.130663   122A      1.140568
     123A      1.143902   124A      1.162049   125A      1.177597
     126A      1.192568   127A      1.210040   128A      1.216578
     129A      1.226002   130A      1.250993   131A      1.263400
     132A      1.278481   133A      1.288101   134A      1.306771
     135A      1.335327   136A      1.337066   137A      1.346780
     138A      1.367710   139A      1.391343   140A      1.450175
     141A      1.463142   142A      1.499565   143A      1.511681
     144A      1.521933   145A      1.539469   146A      1.569805
     147A      1.597859   148A      1.609374   149A      1.629759
     150A      1.637007   151A      1.671296   152A      1.685089
     153A      1.698400   154A      1.704158   155A      1.711764
     156A      1.732492   157A      1.749787   158A      1.764836
     159A      1.799505   160A      1.810168   161A      1.834751
     162A      1.837531   163A      1.855903   164A      1.878164
     165A      1.880413   166A      1.897679   167A      1.901379
     168A      1.904077   169A      1.918816   170A      1.936510
     171A      1.942265   172A      1.952923   173A      1.959053
     174A      1.966149   175A      1.968938   176A      1.982993
     177A      1.988897   178A      1.991577   179A      2.019562
     180A      2.022588   181A      2.031064   182A      2.039618
     183A      2.065730   184A      2.075256   185A      2.088894
     186A      2.104693   187A      2.108529   188A      2.113152
     189A      2.126845   190A      2.143164   191A      2.159274
     192A      2.165577   193A      2.176286   194A      2.186110
     195A      2.216741   196A      2.242821   197A      2.270835
     198A      2.283692   199A      2.309511   200A      2.320791
     201A      2.335273   202A      2.343649   203A      2.362666
     204A      2.380748   205A      2.406677   206A      2.426799
     207A      2.459942   208A      2.469780   209A      2.485996
     210A      2.490223   211A      2.539794   212A      2.586288
     213A      2.598948   214A      2.608513   215A      2.612345
     216A      2.625071   217A      2.666520   218A      2.692437
     219A      2.751818   220A      2.773090   221A      2.777782
     222A      2.782318   223A      2.792709   224A      2.808134
     225A      2.810136   226A      2.821231   227A      2.853565
     228A      2.863469   229A      2.874037   230A      2.891330
     231A      2.930559   232A      2.967904   233A      2.972109
     234A      2.994671   235A      3.040031   236A      3.060930
     237A      3.075836   238A      3.122689   239A      3.214493
     240A      3.314125   241A      3.392450   242A      3.760348
     243A      3.933023

    Final Occupation by Irrep:
              A
    DOCC [    44 ]

  @RHF Final Energy:  -479.75184009247795

   => Energetics <=

    Nuclear Repulsion Energy =            657.1697857210832581
    One-Electron Energy =               -1952.3911526262777443
    Two-Electron Energy =                 815.4695268127163672
    Total Energy =                       -479.7518400924780053

Computation Completed

Properties will be evaluated at   0.000000,   0.000000,   0.000000 [a0]

Properties computed using the SCF density matrix

  Nuclear Dipole Moment: [e a0]
     X:    -3.2179      Y:    14.1667      Z:    -3.8638

  Electronic Dipole Moment: [e a0]
     X:     2.8076      Y:   -14.7721      Z:     4.3588

  Dipole Moment: [e a0]
     X:    -0.4103      Y:    -0.6054      Z:     0.4950     Total:     0.8830

  Dipole Moment: [D]
     X:    -1.0428      Y:    -1.5387      Z:     1.2581     Total:     2.2445

*** tstop() called on ds3 at Tue Apr 28 11:33:17 2020
Module time:
	user time   =     179.09 seconds =       2.98 minutes
	system time =      70.10 seconds =       1.17 minutes
	total time  =        266 seconds =       4.43 minutes
Total time:
	user time   =     179.09 seconds =       2.98 minutes
	system time =      70.10 seconds =       1.17 minutes
	total time  =        266 seconds =       4.43 minutes
                                     G D M A

                                 by Anthony Stone

                           version 2.2.06, 22 June 2011

               Distributed Multipoles from Gaussian wavefunctions

Starting at 11:33:17 on 28 Apr 2020

Using SCF density matrix from file ./SSI/SSI-133TRP-148VAL-1-dimer.test.19558.fchk

                         Distributed Multipole Analysis

Standard DMA

Positions and radii in angstrom
Multipole moments in atomic units, ea_0^k for rank k

C          x =  2.477258  y = -0.682144  z =  2.435999 angstrom
           Maximum rank =  0   Radius =  0.650 angstrom
                   Q00  =  -0.229410

C          x = -0.413742  y = -1.277144  z =  0.198999 angstrom
           Maximum rank =  0   Radius =  0.650 angstrom
                   Q00  =   0.276995

C          x =  0.813258  y = -0.623144  z =  0.479999 angstrom
           Maximum rank =  0   Radius =  0.650 angstrom
                   Q00  =  -0.035244

C          x =  1.232258  y = -1.067144  z =  1.765999 angstrom
           Maximum rank =  0   Radius =  0.650 angstrom
                   Q00  =  -0.113848

C          x =  0.330258  y = -2.000144  z =  2.165999 angstrom
           Maximum rank =  0   Radius =  0.650 angstrom
                   Q00  =   0.072939

C          x = -0.604742  y = -0.161144  z = -1.882001 angstrom
           Maximum rank =  0   Radius =  0.650 angstrom
                   Q00  =  -0.077368

C          x = -1.135742  y = -1.053144  z = -0.966001 angstrom
           Maximum rank =  0   Radius =  0.650 angstrom
                   Q00  =  -0.112051

C          x =  0.616258  y =  0.518856  z = -1.623001 angstrom
           Maximum rank =  0   Radius =  0.650 angstrom
                   Q00  =  -0.088173

C          x =  1.305258  y =  0.315856  z = -0.428001 angstrom
           Maximum rank =  0   Radius =  0.650 angstrom
                   Q00  =  -0.114627

N          x = -0.692742  y = -2.078144  z =  1.274999 angstrom
           Maximum rank =  0   Radius =  0.650 angstrom
                   Q00  =  -0.484022

H          x = -1.133742  y =  0.026856  z = -2.807001 angstrom
           Maximum rank =  0   Radius =  0.325 angstrom
                   Q00  =   0.063876

H          x = -2.070742  y = -1.560144  z = -1.154001 angstrom
           Maximum rank =  0   Radius =  0.325 angstrom
                   Q00  =   0.073349

H          x =  0.973258  y =  1.252856  z = -2.333001 angstrom
           Maximum rank =  0   Radius =  0.325 angstrom
                   Q00  =   0.064731

H          x =  2.086258  y =  0.986856  z = -0.119001 angstrom
           Maximum rank =  0   Radius =  0.325 angstrom
                   Q00  =   0.079435

H          x = -1.500742  y = -2.681144  z =  1.382999 angstrom
           Maximum rank =  0   Radius =  0.325 angstrom
                   Q00  =   0.216936

H          x =  0.390258  y = -2.594144  z =  3.067999 angstrom
           Maximum rank =  0   Radius =  0.325 angstrom
                   Q00  =   0.095284

H          x =  3.008258  y =  0.033856  z =  1.807999 angstrom
           Maximum rank =  0   Radius =  0.325 angstrom
                   Q00  =   0.106330

H          x =  3.088258  y = -1.573144  z =  2.452999 angstrom
           Maximum rank =  0   Radius =  0.325 angstrom
                   Q00  =   0.100153

H          x =  2.411710  y = -0.251714  z =  3.446159 angstrom
           Maximum rank =  0   Radius =  0.325 angstrom
                   Q00  =   0.102329

C          x = -1.346742  y =  2.982856  z = -1.491001 angstrom
           Maximum rank =  0   Radius =  0.650 angstrom
                   Q00  =  -0.211971

C          x = -2.176742  y =  4.202856  z = -1.799001 angstrom
           Maximum rank =  0   Radius =  0.650 angstrom
                   Q00  =  -0.227211

H          x = -0.286742  y =  3.222856  z = -1.536001 angstrom
           Maximum rank =  0   Radius =  0.325 angstrom
                   Q00  =   0.069661

H          x = -1.588742  y =  2.601856  z = -0.501001 angstrom
           Maximum rank =  0   Radius =  0.325 angstrom
                   Q00  =   0.082889

H          x = -1.586742  y =  2.203856  z = -2.208001 angstrom
           Maximum rank =  0   Radius =  0.325 angstrom
                   Q00  =   0.069960

H          x = -3.201742  y =  3.856856  z = -1.937001 angstrom
           Maximum rank =  0   Radius =  0.325 angstrom
                   Q00  =   0.069087

H          x = -1.838263  y =  4.678286  z = -2.731411 angstrom
           Maximum rank =  0   Radius =  0.325 angstrom
                   Q00  =   0.074437

H          x = -2.185218  y =  4.901396  z = -0.949311 angstrom
           Maximum rank =  0   Radius =  0.325 angstrom
                   Q00  =   0.075533

Total multipoles referred to origin at
           x =   0.000000,  y =    0.000000,  z =    0.000000 angstrom
                   Q00  =  -0.000000

Finished at 11:33:18 on 28 Apr 2020

  DMA results are available in the Python driver through the
	  variable('DMA DISTRIBUTED MULTIPOLES')
  and
	  variable('DMA TOTAL MULTIPOLES')
  commands.

    Psi4 stopped on: Tuesday, 28 April 2020 11:33AM
    Psi4 wall time for execution: 0:04:26.70

*** Psi4 exiting successfully. Buy a developer a beer!
