                               Psi4 1.3.2 release

  ==> Input File <==

--------------------------------------------------------------------------
import numpy as np
set {scf_type pk
basis cc-pvdz
d_convergence 10
gdma_switch   0
gdma_limit    0
gdma_origin   [ 0.0,  0.0,  0.0 ]
}
molecule test {
    units Angstrom
    0 1
    --
    0 1
    C               -0.988878066404631    -0.738846549336625    -4.308127910153864
    C               -1.518878066404631     0.354153450663375    -3.419127910153865
    O               -2.670878066404631     0.315153450663375    -2.985127910153865
    N               -0.705878066404631     1.356153450663375    -3.146127910153864
    H               -1.812878066404631    -1.165846549336624    -4.877127910153864
    H               -0.594878066404631    -1.515846549336624    -3.654127910153864
    H               -1.052878066404631     2.076153450663376    -2.529127910153864
    H                0.257121933595369     1.344153450663375    -3.417127910153865
    H               -0.191334066404631    -0.389786549336625    -4.980497910153864
    C                2.478121933595369     0.188153450663375     4.271872089846136
    C                0.007121933595369    -0.340846549336625     0.771872089846136
    C                0.175121933595369    -1.389846549336625     1.675872089846136
    C                0.655121933595369     0.875153450663375     0.988872089846136
    C                0.974121933595369    -1.211846549336624     2.804872089846135
    C                1.455121933595369     1.041153450663376     2.125872089846135
    C                1.634121933595369    -0.003846549336625     3.034872089846135
    O               -0.784878066404631    -0.518846549336625    -0.324127910153864
    H               -1.215878066404631    -1.379846549336625    -0.326127910153864
    H               -0.295878066404631    -2.342846549336624     1.494872089846136
    H                0.528121933595369     1.684153450663376     0.283872089846136
    H                1.075121933595369    -2.026846549336625     3.507872089846136
    H                1.949121933595369     1.988153450663376     2.289872089846136
    H                1.972121933595369    -0.313846549336625     5.092872089846136
    H                2.533121933595369     1.244153450663376     4.518872089846136
    H                3.502745233595369    -0.206873549336625     4.207832089846135

}
e, wfn = energy('scf', return_wfn=True)
gdma(wfn)
dmavals = variable('DMA DISTRIBUTED MULTIPOLES')
charges = np.array(dmavals)
print(charges)
np.save('SSI-050ASN-083TYR-1-dimer.npy', np.array(charges))--------------------------------------------------------------------------

*** tstart() called on ds3
*** at Sun Apr 26 21:00:05 2020

   => Loading Basis Set <=

    Name: CC-PVDZ
    Role: ORBITAL
    Keyword: BASIS
    atoms 1-2, 10-16 entry C          line   138 file /theoryfs2/ds/metcalf/miniconda2/envs/tf2gpu/share/psi4/basis/cc-pvdz.gbs
    atoms 3, 17      entry O          line   198 file /theoryfs2/ds/metcalf/miniconda2/envs/tf2gpu/share/psi4/basis/cc-pvdz.gbs
    atoms 4          entry N          line   168 file /theoryfs2/ds/metcalf/miniconda2/envs/tf2gpu/share/psi4/basis/cc-pvdz.gbs
    atoms 5-9, 18-25 entry H          line    22 file /theoryfs2/ds/metcalf/miniconda2/envs/tf2gpu/share/psi4/basis/cc-pvdz.gbs

         ---------------------------------------------------------
                                   SCF
               by Justin Turney, Rob Parrish, Andy Simmonett
                          and Daniel G. A. Smith
                              RHF Reference
                        1 Threads,    500 MiB Core
         ---------------------------------------------------------

  ==> Geometry <==

    Molecular point group: c1
    Full point group: C1

    Geometry (in Angstrom), charge = 0, multiplicity = 1:

       Center              X                  Y                   Z               Mass
    ------------   -----------------  -----------------  -----------------  -----------------
         C           -0.988878066405    -0.738846549337    -4.308127910154    12.000000000000
         C           -1.518878066405     0.354153450663    -3.419127910154    12.000000000000
         O           -2.670878066405     0.315153450663    -2.985127910154    15.994914619570
         N           -0.705878066405     1.356153450663    -3.146127910154    14.003074004430
         H           -1.812878066405    -1.165846549337    -4.877127910154     1.007825032230
         H           -0.594878066405    -1.515846549337    -3.654127910154     1.007825032230
         H           -1.052878066405     2.076153450663    -2.529127910154     1.007825032230
         H            0.257121933595     1.344153450663    -3.417127910154     1.007825032230
         H           -0.191334066405    -0.389786549337    -4.980497910154     1.007825032230
         C            2.478121933595     0.188153450663     4.271872089846    12.000000000000
         C            0.007121933595    -0.340846549337     0.771872089846    12.000000000000
         C            0.175121933595    -1.389846549337     1.675872089846    12.000000000000
         C            0.655121933595     0.875153450663     0.988872089846    12.000000000000
         C            0.974121933595    -1.211846549337     2.804872089846    12.000000000000
         C            1.455121933595     1.041153450663     2.125872089846    12.000000000000
         C            1.634121933595    -0.003846549337     3.034872089846    12.000000000000
         O           -0.784878066405    -0.518846549337    -0.324127910154    15.994914619570
         H           -1.215878066405    -1.379846549337    -0.326127910154     1.007825032230
         H           -0.295878066405    -2.342846549337     1.494872089846     1.007825032230
         H            0.528121933595     1.684153450663     0.283872089846     1.007825032230
         H            1.075121933595    -2.026846549337     3.507872089846     1.007825032230
         H            1.949121933595     1.988153450663     2.289872089846     1.007825032230
         H            1.972121933595    -0.313846549337     5.092872089846     1.007825032230
         H            2.533121933595     1.244153450663     4.518872089846     1.007825032230
         H            3.502745233595    -0.206873549337     4.207832089846     1.007825032230

  Running in c1 symmetry.

  Rotational constants: A =      0.08442  B =      0.01002  C =      0.00949 [cm^-1]
  Rotational constants: A =   2530.81258  B =    300.32727  C =    284.48718 [MHz]
  Nuclear repulsion =  640.082332766377249

  Charge       = 0
  Multiplicity = 1
  Electrons    = 90
  Nalpha       = 45
  Nbeta        = 45

  ==> Algorithm <==

  SCF Algorithm Type is PK.
  DIIS enabled.
  MOM disabled.
  Fractional occupation disabled.
  Guess Type is SAD.
  Energy threshold   = 1.00e-06
  Density threshold  = 1.00e-10
  Integral threshold = 0.00e+00

  ==> Primary Basis <==

  Basis Set: CC-PVDZ
    Blend: CC-PVDZ
    Number of shells: 111
    Number of basis function: 233
    Number of Cartesian functions: 245
    Spherical Harmonics?: true
    Max angular momentum: 2

  ==> Pre-Iterations <==

   -------------------------------------------------------
    Irrep   Nso     Nmo     Nalpha   Nbeta   Ndocc  Nsocc
   -------------------------------------------------------
     A        233     233       0       0       0       0
   -------------------------------------------------------
    Total     233     233      45      45      45       0
   -------------------------------------------------------

  ==> Integral Setup <==

  Using integral reordering PK algorithm.
  Sizing the integral batches needed.
  Building batch lookup table.
   Calculation information:
      Number of atoms:                  25
      Number of AO shells:             111
      Number of primitives:            329
      Number of atomic orbitals:       245
      Number of basis functions:       233

      Integral cutoff                 1.00e-12
      Number of threads:                 1

	Batch   1 pq = [       0,    9405] index = [             0,44231715] size =     44231715
	Batch   2 pq = [    9405,   13301] index = [      44231715,88464951] size =     44233236
	Batch   3 pq = [   13301,   16290] index = [      88464951,132690195] size =     44225244
	Batch   4 pq = [   16290,   18810] index = [     132690195,176917455] size =     44227260
	Batch   5 pq = [   18810,   21030] index = [     176917455,221140965] size =     44223510
	Batch   6 pq = [   21030,   23037] index = [     221140965,265363203] size =     44222238
	Batch   7 pq = [   23037,   24883] index = [     265363203,309594286] size =     44231083
	Batch   8 pq = [   24883,   26601] index = [     309594286,353819901] size =     44225615
	Batch   9 pq = [   26601,   27261] index = [     353819901,371594691] size =     17774790
  Task number: 34
  Buffer size: 11059200
  Buffer per thread: 2
  We computed 14660916 shell quartets total.
  Whereas there are 19322436 unique shell quartets.

  ==> DiskJK: Disk-Based J/K Matrices <==

    J tasked:                  Yes
    K tasked:                  Yes
    wK tasked:                  No
    Memory [MiB]:              375
    Schwarz Cutoff:          1E-12

    OpenMP threads:              1

  Minimum eigenvalue in the overlap matrix is 3.2873284574E-04.
  Using Symmetric Orthogonalization.

  SCF Guess: Superposition of Atomic Densities via on-the-fly atomic UHF.

  ==> Iterations <==

                        Total Energy        Delta E     RMS |[F,P]|

   @RHF iter SAD:  -551.24780866340598   -5.51248e+02   0.00000e+00
   @RHF iter   1:  -552.29372497964630   -1.04592e+00   3.22790e-03 DIIS
   @RHF iter   2:  -552.55217571161177   -2.58451e-01   1.68153e-03 DIIS
   @RHF iter   3:  -552.61221277395407   -6.00371e-02   3.86837e-04 DIIS
   @RHF iter   4:  -552.61691497059564   -4.70220e-03   1.55418e-04 DIIS
   @RHF iter   5:  -552.61769484409376   -7.79873e-04   2.41037e-05 DIIS
   @RHF iter   6:  -552.61773295265834   -3.81086e-05   1.13095e-05 DIIS
   @RHF iter   7:  -552.61773956829791   -6.61564e-06   4.14395e-06 DIIS
   @RHF iter   8:  -552.61774091658253   -1.34828e-06   1.59537e-06 DIIS
   @RHF iter   9:  -552.61774109679959   -1.80217e-07   6.18261e-07 DIIS
   @RHF iter  10:  -552.61774112305238   -2.62528e-08   2.18671e-07 DIIS
   @RHF iter  11:  -552.61774112706041   -4.00803e-09   7.23938e-08 DIIS
   @RHF iter  12:  -552.61774112756291   -5.02496e-10   3.81855e-08 DIIS
   @RHF iter  13:  -552.61774112770308   -1.40176e-10   1.65448e-08 DIIS
   @RHF iter  14:  -552.61774112774106   -3.79714e-11   7.07917e-09 DIIS
   @RHF iter  15:  -552.61774112774731   -6.25278e-12   2.57570e-09 DIIS
   @RHF iter  16:  -552.61774112774833   -1.02318e-12   8.64167e-10 DIIS
   @RHF iter  17:  -552.61774112774401    4.32010e-12   3.28600e-10 DIIS
   @RHF iter  18:  -552.61774112774992   -5.91172e-12   8.53630e-11 DIIS
  Energy and wave function converged.

  ==> Post-Iterations <==

    Orbital Energies [Eh]
    ---------------------

    Doubly Occupied:

       1A    -20.581992     2A    -20.491801     3A    -15.578382
       4A    -11.337365     5A    -11.301519     6A    -11.241431
       7A    -11.240855     8A    -11.235707     9A    -11.235543
      10A    -11.234430    11A    -11.233883    12A    -11.228654
      13A     -1.398049    14A     -1.356861    15A     -1.209259
      16A     -1.150326    17A     -1.037655    18A     -1.018134
      19A     -0.996178    20A     -0.927502    21A     -0.845057
      22A     -0.803529    23A     -0.793201    24A     -0.732163
      25A     -0.721011    26A     -0.668497    27A     -0.646613
      28A     -0.643483    29A     -0.608542    30A     -0.606680
      31A     -0.588300    32A     -0.584682    33A     -0.571245
      34A     -0.565673    35A     -0.559946    36A     -0.553568
      37A     -0.527399    38A     -0.511705    39A     -0.499974
      40A     -0.485783    41A     -0.467002    42A     -0.401139
      43A     -0.393177    44A     -0.339498    45A     -0.302619

    Virtual:

      46A      0.127572    47A      0.154369    48A      0.160177
      49A      0.182455    50A      0.186482    51A      0.199761
      52A      0.209388    53A      0.225324    54A      0.230079
      55A      0.239077    56A      0.263259    57A      0.267413
      58A      0.275583    59A      0.283289    60A      0.299716
      61A      0.305560    62A      0.368079    63A      0.371308
      64A      0.388187    65A      0.426173    66A      0.450763
      67A      0.471578    68A      0.484391    69A      0.493287
      70A      0.504717    71A      0.563009    72A      0.609430
      73A      0.627822    74A      0.633221    75A      0.648223
      76A      0.660692    77A      0.676062    78A      0.687973
      79A      0.690058    80A      0.705128    81A      0.705964
      82A      0.723108    83A      0.729062    84A      0.734050
      85A      0.736177    86A      0.743936    87A      0.762168
      88A      0.773283    89A      0.779568    90A      0.789777
      91A      0.793601    92A      0.831758    93A      0.840942
      94A      0.847493    95A      0.857612    96A      0.876272
      97A      0.879676    98A      0.885575    99A      0.892758
     100A      0.898653   101A      0.915936   102A      0.918411
     103A      0.927980   104A      0.932991   105A      0.938261
     106A      0.947518   107A      0.950149   108A      0.995690
     109A      1.013231   110A      1.024982   111A      1.037559
     112A      1.054785   113A      1.062435   114A      1.116731
     115A      1.120357   116A      1.136349   117A      1.147138
     118A      1.160893   119A      1.164095   120A      1.200566
     121A      1.237690   122A      1.247777   123A      1.280871
     124A      1.288045   125A      1.291092   126A      1.298253
     127A      1.321438   128A      1.332580   129A      1.349509
     130A      1.357178   131A      1.369268   132A      1.384974
     133A      1.394718   134A      1.419112   135A      1.442381
     136A      1.480692   137A      1.485166   138A      1.491234
     139A      1.506791   140A      1.526285   141A      1.554184
     142A      1.611798   143A      1.629260   144A      1.661169
     145A      1.671989   146A      1.683975   147A      1.700934
     148A      1.725748   149A      1.745324   150A      1.776682
     151A      1.793274   152A      1.797041   153A      1.802291
     154A      1.830168   155A      1.861179   156A      1.882049
     157A      1.882913   158A      1.888950   159A      1.893000
     160A      1.895735   161A      1.911956   162A      1.913247
     163A      1.919583   164A      1.940524   165A      1.951078
     166A      1.957208   167A      1.963749   168A      1.976906
     169A      1.984735   170A      1.989707   171A      2.033750
     172A      2.037235   173A      2.048283   174A      2.054672
     175A      2.063685   176A      2.065945   177A      2.093199
     178A      2.139311   179A      2.144040   180A      2.160365
     181A      2.187157   182A      2.196992   183A      2.223112
     184A      2.226326   185A      2.254712   186A      2.268734
     187A      2.299780   188A      2.302384   189A      2.324595
     190A      2.368678   191A      2.416106   192A      2.436998
     193A      2.457073   194A      2.468222   195A      2.471016
     196A      2.493272   197A      2.502539   198A      2.530720
     199A      2.536771   200A      2.553505   201A      2.595110
     202A      2.609125   203A      2.642612   204A      2.652208
     205A      2.743962   206A      2.751205   207A      2.754785
     208A      2.770827   209A      2.788705   210A      2.803290
     211A      2.806177   212A      2.850998   213A      2.875439
     214A      2.895192   215A      2.955710   216A      2.995233
     217A      3.004842   218A      3.082377   219A      3.100859
     220A      3.115226   221A      3.145843   222A      3.250811
     223A      3.271669   224A      3.292283   225A      3.348220
     226A      3.525417   227A      3.538271   228A      3.596342
     229A      3.666521   230A      3.881730   231A      3.916573
     232A      3.971386   233A      4.192680

    Final Occupation by Irrep:
              A
    DOCC [    45 ]

  @RHF Final Energy:  -552.61774112774992

   => Energetics <=

    Nuclear Repulsion Energy =            640.0823327663772488
    One-Electron Energy =               -2022.4881265086901294
    Two-Electron Energy =                 829.7880526145629574
    Total Energy =                       -552.6177411277499232

Computation Completed

Properties will be evaluated at   0.000000,   0.000000,   0.000000 [a0]

Properties computed using the SCF density matrix

  Nuclear Dipole Moment: [e a0]
     X:     6.2231      Y:    -0.9470      Z:     1.5044

  Electronic Dipole Moment: [e a0]
     X:    -4.6481      Y:     0.7259      Z:    -1.4577

  Dipole Moment: [e a0]
     X:     1.5750      Y:    -0.2211      Z:     0.0467     Total:     1.5912

  Dipole Moment: [D]
     X:     4.0034      Y:    -0.5620      Z:     0.1187     Total:     4.0444

*** tstop() called on ds3 at Sun Apr 26 21:05:16 2020
Module time:
	user time   =     123.65 seconds =       2.06 minutes
	system time =      59.93 seconds =       1.00 minutes
	total time  =        311 seconds =       5.18 minutes
Total time:
	user time   =     123.65 seconds =       2.06 minutes
	system time =      59.93 seconds =       1.00 minutes
	total time  =        311 seconds =       5.18 minutes
                                     G D M A

                                 by Anthony Stone

                           version 2.2.06, 22 June 2011

               Distributed Multipoles from Gaussian wavefunctions

Starting at 21:5:16 on 26 Apr 2020

Using SCF density matrix from file ./SSI/SSI-050ASN-083TYR-1-dimer.test.10806.fchk

                         Distributed Multipole Analysis

Standard DMA

Positions and radii in angstrom
Multipole moments in atomic units, ea_0^k for rank k

C          x = -0.988878  y = -0.738847  z = -4.308128 angstrom
           Maximum rank =  0   Radius =  0.650 angstrom
                   Q00  =  -0.260553

C          x = -1.518878  y =  0.354153  z = -3.419128 angstrom
           Maximum rank =  0   Radius =  0.650 angstrom
                   Q00  =   0.825779

O          x = -2.670878  y =  0.315153  z = -2.985128 angstrom
           Maximum rank =  0   Radius =  0.650 angstrom
                   Q00  =  -0.801704

N          x = -0.705878  y =  1.356153  z = -3.146128 angstrom
           Maximum rank =  0   Radius =  0.650 angstrom
                   Q00  =  -0.517844

H          x = -1.812878  y = -1.165847  z = -4.877128 angstrom
           Maximum rank =  0   Radius =  0.325 angstrom
                   Q00  =   0.128433

H          x = -0.594878  y = -1.515847  z = -3.654128 angstrom
           Maximum rank =  0   Radius =  0.325 angstrom
                   Q00  =   0.121038

H          x = -1.052878  y =  2.076153  z = -2.529128 angstrom
           Maximum rank =  0   Radius =  0.325 angstrom
                   Q00  =   0.219185

H          x =  0.257122  y =  1.344153  z = -3.417128 angstrom
           Maximum rank =  0   Radius =  0.325 angstrom
                   Q00  =   0.201813

H          x = -0.191334  y = -0.389787  z = -4.980498 angstrom
           Maximum rank =  0   Radius =  0.325 angstrom
                   Q00  =   0.082866

C          x =  2.478122  y =  0.188153  z =  4.271872 angstrom
           Maximum rank =  0   Radius =  0.650 angstrom
                   Q00  =  -0.194089

C          x =  0.007122  y = -0.340847  z =  0.771872 angstrom
           Maximum rank =  0   Radius =  0.650 angstrom
                   Q00  =   0.323296

C          x =  0.175122  y = -1.389847  z =  1.675872 angstrom
           Maximum rank =  0   Radius =  0.650 angstrom
                   Q00  =  -0.179512

C          x =  0.655122  y =  0.875153  z =  0.988872 angstrom
           Maximum rank =  0   Radius =  0.650 angstrom
                   Q00  =  -0.123664

C          x =  0.974122  y = -1.211847  z =  2.804872 angstrom
           Maximum rank =  0   Radius =  0.650 angstrom
                   Q00  =   0.031478

C          x =  1.455122  y =  1.041153  z =  2.125872 angstrom
           Maximum rank =  0   Radius =  0.650 angstrom
                   Q00  =  -0.015052

C          x =  1.634122  y = -0.003847  z =  3.034872 angstrom
           Maximum rank =  0   Radius =  0.650 angstrom
                   Q00  =  -0.140827

O          x = -0.784878  y = -0.518847  z = -0.324128 angstrom
           Maximum rank =  0   Radius =  0.650 angstrom
                   Q00  =  -0.678742

H          x = -1.215878  y = -1.379847  z = -0.326128 angstrom
           Maximum rank =  0   Radius =  0.325 angstrom
                   Q00  =   0.410935

H          x = -0.295878  y = -2.342847  z =  1.494872 angstrom
           Maximum rank =  0   Radius =  0.325 angstrom
                   Q00  =   0.072488

H          x =  0.528122  y =  1.684153  z =  0.283872 angstrom
           Maximum rank =  0   Radius =  0.325 angstrom
                   Q00  =   0.069295

H          x =  1.075122  y = -2.026847  z =  3.507872 angstrom
           Maximum rank =  0   Radius =  0.325 angstrom
                   Q00  =   0.068899

H          x =  1.949122  y =  1.988153  z =  2.289872 angstrom
           Maximum rank =  0   Radius =  0.325 angstrom
                   Q00  =   0.064283

H          x =  1.972122  y = -0.313847  z =  5.092872 angstrom
           Maximum rank =  0   Radius =  0.325 angstrom
                   Q00  =   0.095467

H          x =  2.533122  y =  1.244153  z =  4.518872 angstrom
           Maximum rank =  0   Radius =  0.325 angstrom
                   Q00  =   0.097643

H          x =  3.502745  y = -0.206874  z =  4.207832 angstrom
           Maximum rank =  0   Radius =  0.325 angstrom
                   Q00  =   0.099088

Total multipoles referred to origin at
           x =   0.000000,  y =    0.000000,  z =    0.000000 angstrom
                   Q00  =  -0.000000

Finished at 21:5:17 on 26 Apr 2020

  DMA results are available in the Python driver through the
	  variable('DMA DISTRIBUTED MULTIPOLES')
  and
	  variable('DMA TOTAL MULTIPOLES')
  commands.

    Psi4 stopped on: Sunday, 26 April 2020 09:05PM
    Psi4 wall time for execution: 0:05:11.59

*** Psi4 exiting successfully. Buy a developer a beer!
