                               Psi4 1.3.2 release

  ==> Input File <==

--------------------------------------------------------------------------
import numpy as np
set {scf_type pk
basis cc-pvdz
d_convergence 10
gdma_switch   0
gdma_limit    0
gdma_origin   [ 0.0,  0.0,  0.0 ]
}
molecule test {
    units Angstrom
    0 1
    --
    0 1
    C               -1.998182095963481    -1.503728736221733     1.132786232711661
    C               -1.372182095963481     0.721271263778267     0.112786232711661
    C               -1.018182095963481    -0.387728736221733     0.895786232711661
    C               -0.427182095963481     1.762271263778267    -0.100213767288339
    C                0.821817904036519     1.707271263778267     0.517786232711661
    C                0.240817904036519    -0.419728736221733     1.509786232711661
    C                1.155817904036519     0.607271263778267     1.334786232711661
    H               -2.342182095963481     0.774271263778267    -0.359213767288339
    H               -0.683182095963481     2.599271263778267    -0.732213767288339
    H               -1.516182095963481    -2.295728736221733     1.707786232711661
    H               -2.273182095963481    -1.916728736221733     0.165786232711661
    H                1.533817904036519     2.507271263778267     0.364786232711661
    H                0.495817904036519    -1.257728736221733     2.138786232711661
    H                2.125817904036519     0.554271263778267     1.805786232711661
    H               -2.903932095963481    -1.176236736221733     1.664166232711661
    C                0.471817904036519    -0.908728736221733    -2.531213767288339
    C                1.977817904036519    -1.063728736221733    -2.234213767288339
    H               -0.113182095963481    -1.326728736221733    -1.713213767288339
    H                0.226817904036519     0.149271263778267    -2.621213767288339
    H                0.212817904036519    -1.416728736221733    -3.459213767288339
    H                2.242817904036519    -0.538728736221733    -1.317213767288339
    H                2.217117904036519    -2.134538736221733    -2.156103767288339
    H                2.534727904036519    -0.646573736221733    -3.086173767288339

}
e, wfn = energy('scf', return_wfn=True)
gdma(wfn)
dmavals = variable('DMA DISTRIBUTED MULTIPOLES')
charges = np.array(dmavals)
print(charges)
np.save('SSI-162PHE-168LEU-1-dimer.npy', np.array(charges))--------------------------------------------------------------------------

*** tstart() called on ds3
*** at Tue Apr 28 20:38:16 2020

   => Loading Basis Set <=

    Name: CC-PVDZ
    Role: ORBITAL
    Keyword: BASIS
    atoms 1-7, 16-17  entry C          line   138 file /theoryfs2/ds/metcalf/miniconda2/envs/tf2gpu/share/psi4/basis/cc-pvdz.gbs
    atoms 8-15, 18-23 entry H          line    22 file /theoryfs2/ds/metcalf/miniconda2/envs/tf2gpu/share/psi4/basis/cc-pvdz.gbs

         ---------------------------------------------------------
                                   SCF
               by Justin Turney, Rob Parrish, Andy Simmonett
                          and Daniel G. A. Smith
                              RHF Reference
                        1 Threads,    500 MiB Core
         ---------------------------------------------------------

  ==> Geometry <==

    Molecular point group: c1
    Full point group: C1

    Geometry (in Angstrom), charge = 0, multiplicity = 1:

       Center              X                  Y                   Z               Mass
    ------------   -----------------  -----------------  -----------------  -----------------
         C           -1.998182095963    -1.503728736222     1.132786232712    12.000000000000
         C           -1.372182095963     0.721271263778     0.112786232712    12.000000000000
         C           -1.018182095963    -0.387728736222     0.895786232712    12.000000000000
         C           -0.427182095963     1.762271263778    -0.100213767288    12.000000000000
         C            0.821817904037     1.707271263778     0.517786232712    12.000000000000
         C            0.240817904037    -0.419728736222     1.509786232712    12.000000000000
         C            1.155817904037     0.607271263778     1.334786232712    12.000000000000
         H           -2.342182095963     0.774271263778    -0.359213767288     1.007825032230
         H           -0.683182095963     2.599271263778    -0.732213767288     1.007825032230
         H           -1.516182095963    -2.295728736222     1.707786232712     1.007825032230
         H           -2.273182095963    -1.916728736222     0.165786232712     1.007825032230
         H            1.533817904037     2.507271263778     0.364786232712     1.007825032230
         H            0.495817904037    -1.257728736222     2.138786232712     1.007825032230
         H            2.125817904037     0.554271263778     1.805786232712     1.007825032230
         H           -2.903932095963    -1.176236736222     1.664166232712     1.007825032230
         C            0.471817904037    -0.908728736222    -2.531213767288    12.000000000000
         C            1.977817904037    -1.063728736222    -2.234213767288    12.000000000000
         H           -0.113182095963    -1.326728736222    -1.713213767288     1.007825032230
         H            0.226817904037     0.149271263778    -2.621213767288     1.007825032230
         H            0.212817904037    -1.416728736222    -3.459213767288     1.007825032230
         H            2.242817904037    -0.538728736222    -1.317213767288     1.007825032230
         H            2.217117904037    -2.134538736222    -2.156103767288     1.007825032230
         H            2.534727904037    -0.646573736222    -3.086173767288     1.007825032230

  Running in c1 symmetry.

  Rotational constants: A =      0.05577  B =      0.03764  C =      0.03128 [cm^-1]
  Rotational constants: A =   1671.99314  B =   1128.41342  C =    937.85904 [MHz]
  Nuclear repulsion =  423.159216376208349

  Charge       = 0
  Multiplicity = 1
  Electrons    = 68
  Nalpha       = 34
  Nbeta        = 34

  ==> Algorithm <==

  SCF Algorithm Type is PK.
  DIIS enabled.
  MOM disabled.
  Fractional occupation disabled.
  Guess Type is SAD.
  Energy threshold   = 1.00e-06
  Density threshold  = 1.00e-10
  Integral threshold = 0.00e+00

  ==> Primary Basis <==

  Basis Set: CC-PVDZ
    Blend: CC-PVDZ
    Number of shells: 96
    Number of basis function: 196
    Number of Cartesian functions: 205
    Spherical Harmonics?: true
    Max angular momentum: 2

  ==> Pre-Iterations <==

   -------------------------------------------------------
    Irrep   Nso     Nmo     Nalpha   Nbeta   Ndocc  Nsocc
   -------------------------------------------------------
     A        196     196       0       0       0       0
   -------------------------------------------------------
    Total     196     196      34      34      34       0
   -------------------------------------------------------

  ==> Integral Setup <==

  Using integral reordering PK algorithm.
  Sizing the integral batches needed.
  Building batch lookup table.
   Calculation information:
      Number of atoms:                  23
      Number of AO shells:              96
      Number of primitives:            268
      Number of atomic orbitals:       205
      Number of basis functions:       196

      Integral cutoff                 1.00e-12
      Number of threads:                 1

	Batch   1 pq = [       0,    9405] index = [             0,44231715] size =     44231715
	Batch   2 pq = [    9405,   13301] index = [      44231715,88464951] size =     44233236
	Batch   3 pq = [   13301,   16290] index = [      88464951,132690195] size =     44225244
	Batch   4 pq = [   16290,   18810] index = [     132690195,176917455] size =     44227260
	Batch   5 pq = [   18810,   19306] index = [     176917455,186370471] size =      9453016
  Task number: 17
  Buffer size: 11059200
  Buffer per thread: 2
  We computed 11181962 shell quartets total.
  Whereas there are 10841496 unique shell quartets.
     3.14 percent of shell quartets recomputed by reordering.

  ==> DiskJK: Disk-Based J/K Matrices <==

    J tasked:                  Yes
    K tasked:                  Yes
    wK tasked:                  No
    Memory [MiB]:              375
    Schwarz Cutoff:          1E-12

    OpenMP threads:              1

  Minimum eigenvalue in the overlap matrix is 3.3386055543E-04.
  Using Symmetric Orthogonalization.

  SCF Guess: Superposition of Atomic Densities via on-the-fly atomic UHF.

  ==> Iterations <==

                        Total Energy        Delta E     RMS |[F,P]|

   @RHF iter SAD:  -347.75558136174305   -3.47756e+02   0.00000e+00
   @RHF iter   1:  -348.76883628098011   -1.01325e+00   2.86477e-03 DIIS
   @RHF iter   2:  -348.95755480301045   -1.88719e-01   1.19254e-03 DIIS
   @RHF iter   3:  -348.98729274925063   -2.97379e-02   2.59939e-04 DIIS
   @RHF iter   4:  -348.98976116346046   -2.46841e-03   5.73849e-05 DIIS
   @RHF iter   5:  -348.98984499377832   -8.38303e-05   1.89804e-05 DIIS
   @RHF iter   6:  -348.98985392730287   -8.93352e-06   5.10524e-06 DIIS
   @RHF iter   7:  -348.98985469151847   -7.64216e-07   1.28708e-06 DIIS
   @RHF iter   8:  -348.98985475654439   -6.50259e-08   3.68325e-07 DIIS
   @RHF iter   9:  -348.98985476800033   -1.14559e-08   1.78295e-07 DIIS
   @RHF iter  10:  -348.98985477110341   -3.10308e-09   8.65672e-08 DIIS
   @RHF iter  11:  -348.98985477214694   -1.04353e-09   3.42612e-08 DIIS
   @RHF iter  12:  -348.98985477227450   -1.27557e-10   1.45632e-08 DIIS
   @RHF iter  13:  -348.98985477228615   -1.16529e-11   4.32954e-09 DIIS
   @RHF iter  14:  -348.98985477228905   -2.89901e-12   1.33553e-09 DIIS
   @RHF iter  15:  -348.98985477229223   -3.18323e-12   4.19345e-10 DIIS
   @RHF iter  16:  -348.98985477229019    2.04636e-12   1.68599e-10 DIIS
   @RHF iter  17:  -348.98985477229104   -8.52651e-13   8.03374e-11 DIIS
  Energy and wave function converged.

  ==> Post-Iterations <==

    Orbital Energies [Eh]
    ---------------------

    Doubly Occupied:

       1A    -11.243559     2A    -11.240749     3A    -11.238740
       4A    -11.235841     5A    -11.235636     6A    -11.232125
       7A    -11.230202     8A    -11.209301     9A    -11.204964
      10A     -1.148248    11A     -1.043598    12A     -1.009599
      13A     -1.003604    14A     -0.930889    15A     -0.825909
      16A     -0.825162    17A     -0.794618    18A     -0.689617
      19A     -0.634285    20A     -0.628664    21A     -0.591168
      22A     -0.585034    23A     -0.583213    24A     -0.576109
      25A     -0.562524    26A     -0.535974    27A     -0.488011
      28A     -0.486483    29A     -0.483328    30A     -0.481360
      31A     -0.476299    32A     -0.473642    33A     -0.330969
      34A     -0.320560

    Virtual:

      35A      0.129082    36A      0.139716    37A      0.175506
      38A      0.196486    39A      0.206596    40A      0.211801
      41A      0.240125    42A      0.249567    43A      0.253433
      44A      0.263465    45A      0.266227    46A      0.274642
      47A      0.287452    48A      0.293735    49A      0.309106
      50A      0.335048    51A      0.361135    52A      0.378014
      53A      0.403812    54A      0.444981    55A      0.457997
      56A      0.471975    57A      0.496942    58A      0.568388
      59A      0.577120    60A      0.592266    61A      0.600259
      62A      0.614460    63A      0.639699    64A      0.654715
      65A      0.671502    66A      0.678480    67A      0.701644
      68A      0.707353    69A      0.736249    70A      0.742349
      71A      0.745899    72A      0.750744    73A      0.782049
      74A      0.790074    75A      0.799740    76A      0.819257
      77A      0.850002    78A      0.856569    79A      0.861427
      80A      0.864949    81A      0.878221    82A      0.887520
      83A      0.891532    84A      0.899245    85A      0.911189
      86A      0.916210    87A      0.923977    88A      0.932143
      89A      0.941255    90A      0.946201    91A      0.981310
      92A      0.986226    93A      0.995760    94A      1.025722
      95A      1.042891    96A      1.058850    97A      1.113158
      98A      1.129040    99A      1.136702   100A      1.144115
     101A      1.154612   102A      1.178334   103A      1.206581
     104A      1.216449   105A      1.242320   106A      1.246860
     107A      1.256097   108A      1.288412   109A      1.294337
     110A      1.301199   111A      1.315304   112A      1.327727
     113A      1.413803   114A      1.487327   115A      1.491391
     116A      1.506604   117A      1.522871   118A      1.550105
     119A      1.581702   120A      1.609394   121A      1.679304
     122A      1.686078   123A      1.687949   124A      1.705421
     125A      1.734152   126A      1.743513   127A      1.770701
     128A      1.786434   129A      1.812771   130A      1.855303
     131A      1.867591   132A      1.881326   133A      1.890639
     134A      1.897520   135A      1.900099   136A      1.907286
     137A      1.920889   138A      1.925867   139A      1.936872
     140A      1.946590   141A      1.952316   142A      1.961706
     143A      1.971430   144A      1.973581   145A      1.975935
     146A      1.992294   147A      2.001175   148A      2.015668
     149A      2.034214   150A      2.053964   151A      2.071382
     152A      2.102720   153A      2.113241   154A      2.128949
     155A      2.140844   156A      2.146840   157A      2.158944
     158A      2.165788   159A      2.193316   160A      2.244269
     161A      2.262253   162A      2.276475   163A      2.283266
     164A      2.313983   165A      2.314542   166A      2.323622
     167A      2.357580   168A      2.438135   169A      2.462547
     170A      2.478237   171A      2.487469   172A      2.517883
     173A      2.520610   174A      2.578141   175A      2.588288
     176A      2.627383   177A      2.724288   178A      2.747009
     179A      2.766902   180A      2.779781   181A      2.786901
     182A      2.801545   183A      2.815105   184A      2.840310
     185A      2.848068   186A      2.862467   187A      2.879547
     188A      2.956738   189A      2.962731   190A      2.988536
     191A      3.007197   192A      3.031532   193A      3.149604
     194A      3.180830   195A      3.281575   196A      3.934542

    Final Occupation by Irrep:
              A
    DOCC [    34 ]

  @RHF Final Energy:  -348.98985477229104

   => Energetics <=

    Nuclear Repulsion Energy =            423.1592163762083487
    One-Electron Energy =               -1309.1381765268213258
    Two-Electron Energy =                 536.9891053783219377
    Total Energy =                       -348.9898547722909825

Computation Completed

Properties will be evaluated at   0.000000,   0.000000,   0.000000 [a0]

Properties computed using the SCF density matrix

  Nuclear Dipole Moment: [e a0]
     X:     1.6480      Y:    -5.7423      Z:    -7.1224

  Electronic Dipole Moment: [e a0]
     X:    -1.7866      Y:     5.7026      Z:     7.2229

  Dipole Moment: [e a0]
     X:    -0.1386      Y:    -0.0398      Z:     0.1005     Total:     0.1758

  Dipole Moment: [D]
     X:    -0.3523      Y:    -0.1011      Z:     0.2556     Total:     0.4468

*** tstop() called on ds3 at Tue Apr 28 20:40:03 2020
Module time:
	user time   =      82.21 seconds =       1.37 minutes
	system time =      28.22 seconds =       0.47 minutes
	total time  =        107 seconds =       1.78 minutes
Total time:
	user time   =      82.21 seconds =       1.37 minutes
	system time =      28.22 seconds =       0.47 minutes
	total time  =        107 seconds =       1.78 minutes
                                     G D M A

                                 by Anthony Stone

                           version 2.2.06, 22 June 2011

               Distributed Multipoles from Gaussian wavefunctions

Starting at 20:40:3 on 28 Apr 2020

Using SCF density matrix from file ./SSI/SSI-162PHE-168LEU-1-dimer.test.31518.fchk

                         Distributed Multipole Analysis

Standard DMA

Positions and radii in angstrom
Multipole moments in atomic units, ea_0^k for rank k

C          x = -1.998182  y = -1.503729  z =  1.132786 angstrom
           Maximum rank =  0   Radius =  0.650 angstrom
                   Q00  =  -0.201982

C          x = -1.372182  y =  0.721271  z =  0.112786 angstrom
           Maximum rank =  0   Radius =  0.650 angstrom
                   Q00  =  -0.093236

C          x = -1.018182  y = -0.387729  z =  0.895786 angstrom
           Maximum rank =  0   Radius =  0.650 angstrom
                   Q00  =  -0.105761

C          x = -0.427182  y =  1.762271  z = -0.100214 angstrom
           Maximum rank =  0   Radius =  0.650 angstrom
                   Q00  =  -0.072817

C          x =  0.821818  y =  1.707271  z =  0.517786 angstrom
           Maximum rank =  0   Radius =  0.650 angstrom
                   Q00  =  -0.057950

C          x =  0.240818  y = -0.419729  z =  1.509786 angstrom
           Maximum rank =  0   Radius =  0.650 angstrom
                   Q00  =  -0.000725

C          x =  1.155818  y =  0.607271  z =  1.334786 angstrom
           Maximum rank =  0   Radius =  0.650 angstrom
                   Q00  =  -0.086540

H          x = -2.342182  y =  0.774271  z = -0.359214 angstrom
           Maximum rank =  0   Radius =  0.325 angstrom
                   Q00  =   0.061780

H          x = -0.683182  y =  2.599271  z = -0.732214 angstrom
           Maximum rank =  0   Radius =  0.325 angstrom
                   Q00  =   0.068118

H          x = -1.516182  y = -2.295729  z =  1.707786 angstrom
           Maximum rank =  0   Radius =  0.325 angstrom
                   Q00  =   0.096650

H          x = -2.273182  y = -1.916729  z =  0.165786 angstrom
           Maximum rank =  0   Radius =  0.325 angstrom
                   Q00  =   0.100477

H          x =  1.533818  y =  2.507271  z =  0.364786 angstrom
           Maximum rank =  0   Radius =  0.325 angstrom
                   Q00  =   0.064358

H          x =  0.495818  y = -1.257729  z =  2.138786 angstrom
           Maximum rank =  0   Radius =  0.325 angstrom
                   Q00  =   0.058429

H          x =  2.125818  y =  0.554271  z =  1.805786 angstrom
           Maximum rank =  0   Radius =  0.325 angstrom
                   Q00  =   0.068239

H          x = -2.903932  y = -1.176237  z =  1.664166 angstrom
           Maximum rank =  0   Radius =  0.325 angstrom
                   Q00  =   0.104316

C          x =  0.471818  y = -0.908729  z = -2.531214 angstrom
           Maximum rank =  0   Radius =  0.650 angstrom
                   Q00  =  -0.235814

C          x =  1.977818  y = -1.063729  z = -2.234214 angstrom
           Maximum rank =  0   Radius =  0.650 angstrom
                   Q00  =  -0.236607

H          x = -0.113182  y = -1.326729  z = -1.713214 angstrom
           Maximum rank =  0   Radius =  0.325 angstrom
                   Q00  =   0.082090

H          x =  0.226818  y =  0.149271  z = -2.621214 angstrom
           Maximum rank =  0   Radius =  0.325 angstrom
                   Q00  =   0.080392

H          x =  0.212818  y = -1.416729  z = -3.459214 angstrom
           Maximum rank =  0   Radius =  0.325 angstrom
                   Q00  =   0.070713

H          x =  2.242818  y = -0.538729  z = -1.317214 angstrom
           Maximum rank =  0   Radius =  0.325 angstrom
                   Q00  =   0.093175

H          x =  2.217118  y = -2.134539  z = -2.156104 angstrom
           Maximum rank =  0   Radius =  0.325 angstrom
                   Q00  =   0.072241

H          x =  2.534728  y = -0.646574  z = -3.086174 angstrom
           Maximum rank =  0   Radius =  0.325 angstrom
                   Q00  =   0.070454

Total multipoles referred to origin at
           x =   0.000000,  y =    0.000000,  z =    0.000000 angstrom
                   Q00  =  -0.000000

Finished at 20:40:3 on 28 Apr 2020

  DMA results are available in the Python driver through the
	  variable('DMA DISTRIBUTED MULTIPOLES')
  and
	  variable('DMA TOTAL MULTIPOLES')
  commands.

    Psi4 stopped on: Tuesday, 28 April 2020 08:40PM
    Psi4 wall time for execution: 0:01:47.24

*** Psi4 exiting successfully. Buy a developer a beer!
