                               Psi4 1.3.2 release

  ==> Input File <==

--------------------------------------------------------------------------
import numpy as np
set {scf_type pk
basis cc-pvdz
d_convergence 10
gdma_switch   0
gdma_limit    0
gdma_origin   [ 0.0,  0.0,  0.0 ]
}
molecule test {
    units Angstrom
    0 1
    --
    0 1
    C                0.591780164338713     2.498344563728258    -2.293115923545976
    C               -1.219219835661287     0.494344563728258     0.451884076454024
    C               -0.166219835661287     0.239344563728258     1.333884076454024
    C               -0.982219835661287     1.275344563728258    -0.699115923545976
    C                0.326780164338713     1.708344563728258    -1.010115923545976
    C                1.130780164338713     0.653344563728258     1.048884076454024
    C                1.375780164338713     1.423344563728258    -0.112115923545976
    H               -2.214219835661287     0.137344563728258     0.665884076454024
    H               -0.352219835661287    -0.328655436271742     2.233884076454024
    H               -1.799219835661287     1.496344563728258    -1.371115923545976
    H                1.938780164338713     0.422344563728258     1.729884076454024
    H               -0.083219835661287     2.113344563728258    -3.051115923545976
    H                1.605780164338713     2.280344563728258    -2.632115923545976
    H                2.376780164338713     1.759344563728258    -0.335115923545976
    H                0.476316164338713     3.589154563728258    -2.210641923545976
    C               -0.817219835661287    -3.171655436271742     0.211884076454024
    C               -0.158219835661287    -4.219655436271742     1.145884076454024
    H               -1.212219835661287    -2.343655436271742     0.800884076454024
    H               -0.080219835661287    -2.791655436271742    -0.497115923545976
    H               -1.637219835661287    -3.633655436271742    -0.340115923545976
    H                0.157780164338713    -5.068655436271742     0.535884076454024
    H               -0.885153835661287    -4.555515436271741     1.900050076454024
    H                0.731640164338713    -3.805685436271742     1.642650076454024

}
e, wfn = energy('scf', return_wfn=True)
gdma(wfn)
dmavals = variable('DMA DISTRIBUTED MULTIPOLES')
charges = np.array(dmavals)
print(charges)
np.save('SSI-041PHE-073ALA-1-dimer.npy', np.array(charges))--------------------------------------------------------------------------

*** tstart() called on ds3
*** at Mon Apr 27 15:55:00 2020

   => Loading Basis Set <=

    Name: CC-PVDZ
    Role: ORBITAL
    Keyword: BASIS
    atoms 1-7, 16-17  entry C          line   138 file /theoryfs2/ds/metcalf/miniconda2/envs/tf2gpu/share/psi4/basis/cc-pvdz.gbs
    atoms 8-15, 18-23 entry H          line    22 file /theoryfs2/ds/metcalf/miniconda2/envs/tf2gpu/share/psi4/basis/cc-pvdz.gbs

         ---------------------------------------------------------
                                   SCF
               by Justin Turney, Rob Parrish, Andy Simmonett
                          and Daniel G. A. Smith
                              RHF Reference
                        1 Threads,    500 MiB Core
         ---------------------------------------------------------

  ==> Geometry <==

    Molecular point group: c1
    Full point group: C1

    Geometry (in Angstrom), charge = 0, multiplicity = 1:

       Center              X                  Y                   Z               Mass
    ------------   -----------------  -----------------  -----------------  -----------------
         C            0.591780164339     2.498344563728    -2.293115923546    12.000000000000
         C           -1.219219835661     0.494344563728     0.451884076454    12.000000000000
         C           -0.166219835661     0.239344563728     1.333884076454    12.000000000000
         C           -0.982219835661     1.275344563728    -0.699115923546    12.000000000000
         C            0.326780164339     1.708344563728    -1.010115923546    12.000000000000
         C            1.130780164339     0.653344563728     1.048884076454    12.000000000000
         C            1.375780164339     1.423344563728    -0.112115923546    12.000000000000
         H           -2.214219835661     0.137344563728     0.665884076454     1.007825032230
         H           -0.352219835661    -0.328655436272     2.233884076454     1.007825032230
         H           -1.799219835661     1.496344563728    -1.371115923546     1.007825032230
         H            1.938780164339     0.422344563728     1.729884076454     1.007825032230
         H           -0.083219835661     2.113344563728    -3.051115923546     1.007825032230
         H            1.605780164339     2.280344563728    -2.632115923546     1.007825032230
         H            2.376780164339     1.759344563728    -0.335115923546     1.007825032230
         H            0.476316164339     3.589154563728    -2.210641923546     1.007825032230
         C           -0.817219835661    -3.171655436272     0.211884076454    12.000000000000
         C           -0.158219835661    -4.219655436272     1.145884076454    12.000000000000
         H           -1.212219835661    -2.343655436272     0.800884076454     1.007825032230
         H           -0.080219835661    -2.791655436272    -0.497115923546     1.007825032230
         H           -1.637219835661    -3.633655436272    -0.340115923546     1.007825032230
         H            0.157780164339    -5.068655436272     0.535884076454     1.007825032230
         H           -0.885153835661    -4.555515436272     1.900050076454     1.007825032230
         H            0.731640164339    -3.805685436272     1.642650076454     1.007825032230

  Running in c1 symmetry.

  Rotational constants: A =      0.08640  B =      0.02159  C =      0.02070 [cm^-1]
  Rotational constants: A =   2590.32131  B =    647.18479  C =    620.42654 [MHz]
  Nuclear repulsion =  403.221479196286964

  Charge       = 0
  Multiplicity = 1
  Electrons    = 68
  Nalpha       = 34
  Nbeta        = 34

  ==> Algorithm <==

  SCF Algorithm Type is PK.
  DIIS enabled.
  MOM disabled.
  Fractional occupation disabled.
  Guess Type is SAD.
  Energy threshold   = 1.00e-06
  Density threshold  = 1.00e-10
  Integral threshold = 0.00e+00

  ==> Primary Basis <==

  Basis Set: CC-PVDZ
    Blend: CC-PVDZ
    Number of shells: 96
    Number of basis function: 196
    Number of Cartesian functions: 205
    Spherical Harmonics?: true
    Max angular momentum: 2

  ==> Pre-Iterations <==

   -------------------------------------------------------
    Irrep   Nso     Nmo     Nalpha   Nbeta   Ndocc  Nsocc
   -------------------------------------------------------
     A        196     196       0       0       0       0
   -------------------------------------------------------
    Total     196     196      34      34      34       0
   -------------------------------------------------------

  ==> Integral Setup <==

  Using integral reordering PK algorithm.
  Sizing the integral batches needed.
  Building batch lookup table.
   Calculation information:
      Number of atoms:                  23
      Number of AO shells:              96
      Number of primitives:            268
      Number of atomic orbitals:       205
      Number of basis functions:       196

      Integral cutoff                 1.00e-12
      Number of threads:                 1

	Batch   1 pq = [       0,    9405] index = [             0,44231715] size =     44231715
	Batch   2 pq = [    9405,   13301] index = [      44231715,88464951] size =     44233236
	Batch   3 pq = [   13301,   16290] index = [      88464951,132690195] size =     44225244
	Batch   4 pq = [   16290,   18810] index = [     132690195,176917455] size =     44227260
	Batch   5 pq = [   18810,   19306] index = [     176917455,186370471] size =      9453016
  Task number: 17
  Buffer size: 11059200
  Buffer per thread: 2
  We computed 9186194 shell quartets total.
  Whereas there are 10841496 unique shell quartets.

  ==> DiskJK: Disk-Based J/K Matrices <==

    J tasked:                  Yes
    K tasked:                  Yes
    wK tasked:                  No
    Memory [MiB]:              375
    Schwarz Cutoff:          1E-12

    OpenMP threads:              1

  Minimum eigenvalue in the overlap matrix is 3.6185570217E-04.
  Using Symmetric Orthogonalization.

  SCF Guess: Superposition of Atomic Densities via on-the-fly atomic UHF.

  ==> Iterations <==

                        Total Energy        Delta E     RMS |[F,P]|

   @RHF iter SAD:  -347.64816373704491   -3.47648e+02   0.00000e+00
   @RHF iter   1:  -348.77107935182266   -1.12292e+00   2.83157e-03 DIIS
   @RHF iter   2:  -348.95800821394744   -1.86929e-01   1.15468e-03 DIIS
   @RHF iter   3:  -348.98616622144453   -2.81580e-02   2.52933e-04 DIIS
   @RHF iter   4:  -348.98858503755412   -2.41882e-03   4.52817e-05 DIIS
   @RHF iter   5:  -348.98864407058363   -5.90330e-05   1.40053e-05 DIIS
   @RHF iter   6:  -348.98864951019834   -5.43961e-06   2.97748e-06 DIIS
   @RHF iter   7:  -348.98864982948680   -3.19288e-07   1.30374e-06 DIIS
   @RHF iter   8:  -348.98864989209733   -6.26105e-08   4.28194e-07 DIIS
   @RHF iter   9:  -348.98864990928791   -1.71906e-08   2.19015e-07 DIIS
   @RHF iter  10:  -348.98864991442980   -5.14189e-09   9.87871e-08 DIIS
   @RHF iter  11:  -348.98864991579165   -1.36185e-09   2.93287e-08 DIIS
   @RHF iter  12:  -348.98864991588283   -9.11768e-11   1.23083e-08 DIIS
   @RHF iter  13:  -348.98864991589210   -9.26548e-12   4.36868e-09 DIIS
   @RHF iter  14:  -348.98864991589170    3.97904e-13   1.55560e-09 DIIS
   @RHF iter  15:  -348.98864991589113    5.68434e-13   7.40925e-10 DIIS
   @RHF iter  16:  -348.98864991589420   -3.06954e-12   3.21709e-10 DIIS
   @RHF iter  17:  -348.98864991589119    3.01270e-12   1.03682e-10 DIIS
   @RHF iter  18:  -348.98864991589380   -2.61480e-12   3.24088e-11 DIIS
  Energy and wave function converged.

  ==> Post-Iterations <==

    Orbital Energies [Eh]
    ---------------------

    Doubly Occupied:

       1A    -11.246993     2A    -11.238972     3A    -11.238874
       4A    -11.236118     5A    -11.235920     6A    -11.232667
       7A    -11.231433     8A    -11.217041     9A    -11.211513
      10A     -1.143815    11A     -1.039162    12A     -1.007510
      13A     -1.006066    14A     -0.929244    15A     -0.832772
      16A     -0.824159    17A     -0.792068    18A     -0.688478
      19A     -0.633536    20A     -0.625333    21A     -0.591629
      22A     -0.589253    23A     -0.582025    24A     -0.575535
      25A     -0.557320    26A     -0.535677    27A     -0.491596
      28A     -0.487598    29A     -0.486629    30A     -0.483513
      31A     -0.478216    32A     -0.474400    33A     -0.328254
      34A     -0.320736

    Virtual:

      35A      0.130666    36A      0.138288    37A      0.174651
      38A      0.193187    39A      0.210428    40A      0.214265
      41A      0.239316    42A      0.244070    43A      0.250817
      44A      0.261946    45A      0.266866    46A      0.273092
      47A      0.283639    48A      0.285221    49A      0.293704
      50A      0.340314    51A      0.357583    52A      0.370191
      53A      0.393979    54A      0.451221    55A      0.461486
      56A      0.472874    57A      0.484692    58A      0.561816
      59A      0.580479    60A      0.600532    61A      0.602219
      62A      0.610267    63A      0.638794    64A      0.653430
      65A      0.663773    66A      0.680916    67A      0.692894
      68A      0.708504    69A      0.729359    70A      0.735335
      71A      0.737855    72A      0.747020    73A      0.752220
      74A      0.762870    75A      0.780598    76A      0.827748
      77A      0.829983    78A      0.856881    79A      0.863864
      80A      0.868675    81A      0.876639    82A      0.888652
      83A      0.894172    84A      0.895025    85A      0.900330
      86A      0.900799    87A      0.916631    88A      0.920707
      89A      0.925797    90A      0.938379    91A      0.940808
      92A      0.949754    93A      0.981368    94A      0.987721
      95A      1.007364    96A      1.066387    97A      1.107263
      98A      1.120513    99A      1.129194   100A      1.138847
     101A      1.150809   102A      1.168615   103A      1.190389
     104A      1.231483   105A      1.235551   106A      1.240092
     107A      1.247151   108A      1.263079   109A      1.285190
     110A      1.303026   111A      1.318954   112A      1.320534
     113A      1.412469   114A      1.478526   115A      1.482786
     116A      1.504634   117A      1.508137   118A      1.544422
     119A      1.578621   120A      1.597988   121A      1.679238
     122A      1.686183   123A      1.695780   124A      1.705635
     125A      1.728156   126A      1.753250   127A      1.767378
     128A      1.780452   129A      1.801119   130A      1.854058
     131A      1.866980   132A      1.870924   133A      1.873704
     134A      1.884227   135A      1.895949   136A      1.905437
     137A      1.907582   138A      1.920622   139A      1.933834
     140A      1.940395   141A      1.941117   142A      1.945239
     143A      1.953081   144A      1.959983   145A      1.963182
     146A      1.967444   147A      1.981684   148A      1.998324
     149A      2.032138   150A      2.051006   151A      2.060361
     152A      2.100319   153A      2.116443   154A      2.122330
     155A      2.138282   156A      2.142999   157A      2.152195
     158A      2.164047   159A      2.168523   160A      2.237236
     161A      2.267004   162A      2.280888   163A      2.288475
     164A      2.296463   165A      2.305211   166A      2.313658
     167A      2.329231   168A      2.449149   169A      2.459578
     170A      2.466954   171A      2.469635   172A      2.475280
     173A      2.528409   174A      2.562472   175A      2.579664
     176A      2.599754   177A      2.734797   178A      2.736083
     179A      2.763827   180A      2.765963   181A      2.771582
     182A      2.793576   183A      2.805504   184A      2.845839
     185A      2.848582   186A      2.852018   187A      2.872000
     188A      2.941688   189A      2.955073   190A      2.965937
     191A      2.985122   192A      2.993582   193A      3.120826
     194A      3.168926   195A      3.270076   196A      3.912569

    Final Occupation by Irrep:
              A
    DOCC [    34 ]

  @RHF Final Energy:  -348.98864991589380

   => Energetics <=

    Nuclear Repulsion Energy =            403.2214791962869640
    One-Electron Energy =               -1269.2321474023578958
    Two-Electron Energy =                 517.0220182901771295
    Total Energy =                       -348.9886499158938022

Computation Completed

Properties will be evaluated at   0.000000,   0.000000,   0.000000 [a0]

Properties computed using the SCF density matrix

  Nuclear Dipole Moment: [e a0]
     X:    -0.9155      Y:   -10.0584      Z:    -0.8702

  Electronic Dipole Moment: [e a0]
     X:     0.9446      Y:    10.1670      Z:     0.7303

  Dipole Moment: [e a0]
     X:     0.0291      Y:     0.1087      Z:    -0.1399     Total:     0.1795

  Dipole Moment: [D]
     X:     0.0739      Y:     0.2762      Z:    -0.3555     Total:     0.4562

*** tstop() called on ds3 at Mon Apr 27 15:56:26 2020
Module time:
	user time   =      60.67 seconds =       1.01 minutes
	system time =      28.25 seconds =       0.47 minutes
	total time  =         86 seconds =       1.43 minutes
Total time:
	user time   =      60.67 seconds =       1.01 minutes
	system time =      28.25 seconds =       0.47 minutes
	total time  =         86 seconds =       1.43 minutes
                                     G D M A

                                 by Anthony Stone

                           version 2.2.06, 22 June 2011

               Distributed Multipoles from Gaussian wavefunctions

Starting at 15:56:26 on 27 Apr 2020

Using SCF density matrix from file ./SSI/SSI-041PHE-073ALA-1-dimer.test.20786.fchk

                         Distributed Multipole Analysis

Standard DMA

Positions and radii in angstrom
Multipole moments in atomic units, ea_0^k for rank k

C          x =  0.591780  y =  2.498345  z = -2.293116 angstrom
           Maximum rank =  0   Radius =  0.650 angstrom
                   Q00  =  -0.201365

C          x = -1.219220  y =  0.494345  z =  0.451884 angstrom
           Maximum rank =  0   Radius =  0.650 angstrom
                   Q00  =  -0.069936

C          x = -0.166220  y =  0.239345  z =  1.333884 angstrom
           Maximum rank =  0   Radius =  0.650 angstrom
                   Q00  =  -0.028960

C          x = -0.982220  y =  1.275345  z = -0.699116 angstrom
           Maximum rank =  0   Radius =  0.650 angstrom
                   Q00  =  -0.090697

C          x =  0.326780  y =  1.708345  z = -1.010116 angstrom
           Maximum rank =  0   Radius =  0.650 angstrom
                   Q00  =  -0.113134

C          x =  1.130780  y =  0.653345  z =  1.048884 angstrom
           Maximum rank =  0   Radius =  0.650 angstrom
                   Q00  =  -0.070946

C          x =  1.375780  y =  1.423345  z = -0.112116 angstrom
           Maximum rank =  0   Radius =  0.650 angstrom
                   Q00  =  -0.052145

H          x = -2.214220  y =  0.137345  z =  0.665884 angstrom
           Maximum rank =  0   Radius =  0.325 angstrom
                   Q00  =   0.068732

H          x = -0.352220  y = -0.328655  z =  2.233884 angstrom
           Maximum rank =  0   Radius =  0.325 angstrom
                   Q00  =   0.060367

H          x = -1.799220  y =  1.496345  z = -1.371116 angstrom
           Maximum rank =  0   Radius =  0.325 angstrom
                   Q00  =   0.062619

H          x =  1.938780  y =  0.422345  z =  1.729884 angstrom
           Maximum rank =  0   Radius =  0.325 angstrom
                   Q00  =   0.068540

H          x = -0.083220  y =  2.113345  z = -3.051116 angstrom
           Maximum rank =  0   Radius =  0.325 angstrom
                   Q00  =   0.099484

H          x =  1.605780  y =  2.280345  z = -2.632116 angstrom
           Maximum rank =  0   Radius =  0.325 angstrom
                   Q00  =   0.098575

H          x =  2.376780  y =  1.759345  z = -0.335116 angstrom
           Maximum rank =  0   Radius =  0.325 angstrom
                   Q00  =   0.062447

H          x =  0.476316  y =  3.589155  z = -2.210642 angstrom
           Maximum rank =  0   Radius =  0.325 angstrom
                   Q00  =   0.106699

C          x = -0.817220  y = -3.171655  z =  0.211884 angstrom
           Maximum rank =  0   Radius =  0.650 angstrom
                   Q00  =  -0.227362

C          x = -0.158220  y = -4.219655  z =  1.145884 angstrom
           Maximum rank =  0   Radius =  0.650 angstrom
                   Q00  =  -0.250278

H          x = -1.212220  y = -2.343655  z =  0.800884 angstrom
           Maximum rank =  0   Radius =  0.325 angstrom
                   Q00  =   0.080037

H          x = -0.080220  y = -2.791655  z = -0.497116 angstrom
           Maximum rank =  0   Radius =  0.325 angstrom
                   Q00  =   0.086719

H          x = -1.637220  y = -3.633655  z = -0.340116 angstrom
           Maximum rank =  0   Radius =  0.325 angstrom
                   Q00  =   0.075206

H          x =  0.157780  y = -5.068655  z =  0.535884 angstrom
           Maximum rank =  0   Radius =  0.325 angstrom
                   Q00  =   0.078867

H          x = -0.885154  y = -4.555515  z =  1.900050 angstrom
           Maximum rank =  0   Radius =  0.325 angstrom
                   Q00  =   0.077373

H          x =  0.731640  y = -3.805685  z =  1.642650 angstrom
           Maximum rank =  0   Radius =  0.325 angstrom
                   Q00  =   0.079159

Total multipoles referred to origin at
           x =   0.000000,  y =    0.000000,  z =    0.000000 angstrom
                   Q00  =  -0.000000

Finished at 15:56:26 on 27 Apr 2020

  DMA results are available in the Python driver through the
	  variable('DMA DISTRIBUTED MULTIPOLES')
  and
	  variable('DMA TOTAL MULTIPOLES')
  commands.

    Psi4 stopped on: Monday, 27 April 2020 03:56PM
    Psi4 wall time for execution: 0:01:26.40

*** Psi4 exiting successfully. Buy a developer a beer!
