                               Psi4 1.3.2 release

  ==> Input File <==

--------------------------------------------------------------------------
import numpy as np
set {scf_type pk
basis cc-pvdz
d_convergence 10
gdma_switch   0
gdma_limit    0
gdma_origin   [ 0.0,  0.0,  0.0 ]
}
molecule test {
    units Angstrom
    0 1
    --
    0 1
    C                1.385464012188026    -0.457319931050756    -1.698880947634553
    C                0.021464012188025    -1.145319931050756    -1.896880947634553
    H                1.359464012188025     0.559680068949244    -2.088880947634553
    H                1.627464012188025    -0.419319931050756    -0.638880947634553
    H                2.166464012188026    -1.024319931050756    -2.205880947634554
    H               -0.765535987811975    -0.487319931050756    -1.526880947634553
    H                0.023464012188025    -2.047319931050756    -1.284880947634553
    H               -0.164305987811975    -1.425029931050756    -2.944380947634553
    C               -0.081535987811975     1.050680068949243     1.396119052365447
    C               -1.330535987811975     0.558680068949244     2.187119052365447
    H                0.475464012188025     1.789680068949244     1.971119052365446
    H                0.571464012188025     0.198680068949244     1.217119052365447
    H               -0.387535987811975     1.484680068949244     0.443119052365447
    H               -0.962535987811975     0.103680068949244     3.107119052365447
    H               -1.986215987811975     1.400164068949244     2.455419052365447
    H               -1.896405987811975    -0.213271931050756     1.645009052365446

}
e, wfn = energy('scf', return_wfn=True)
gdma(wfn)
dmavals = variable('DMA DISTRIBUTED MULTIPOLES')
charges = np.array(dmavals)
print(charges)
np.save('SSI-007ILE-097VAL-1-dimer.npy', np.array(charges))--------------------------------------------------------------------------

*** tstart() called on ds3
*** at Mon Apr 27 00:46:12 2020

   => Loading Basis Set <=

    Name: CC-PVDZ
    Role: ORBITAL
    Keyword: BASIS
    atoms 1-2, 9-10  entry C          line   138 file /theoryfs2/ds/metcalf/miniconda2/envs/tf2gpu/share/psi4/basis/cc-pvdz.gbs
    atoms 3-8, 11-16 entry H          line    22 file /theoryfs2/ds/metcalf/miniconda2/envs/tf2gpu/share/psi4/basis/cc-pvdz.gbs

         ---------------------------------------------------------
                                   SCF
               by Justin Turney, Rob Parrish, Andy Simmonett
                          and Daniel G. A. Smith
                              RHF Reference
                        1 Threads,    500 MiB Core
         ---------------------------------------------------------

  ==> Geometry <==

    Molecular point group: c1
    Full point group: C1

    Geometry (in Angstrom), charge = 0, multiplicity = 1:

       Center              X                  Y                   Z               Mass
    ------------   -----------------  -----------------  -----------------  -----------------
         C            1.385464012188    -0.457319931051    -1.698880947635    12.000000000000
         C            0.021464012188    -1.145319931051    -1.896880947635    12.000000000000
         H            1.359464012188     0.559680068949    -2.088880947635     1.007825032230
         H            1.627464012188    -0.419319931051    -0.638880947635     1.007825032230
         H            2.166464012188    -1.024319931051    -2.205880947635     1.007825032230
         H           -0.765535987812    -0.487319931051    -1.526880947635     1.007825032230
         H            0.023464012188    -2.047319931051    -1.284880947635     1.007825032230
         H           -0.164305987812    -1.425029931051    -2.944380947635     1.007825032230
         C           -0.081535987812     1.050680068949     1.396119052365    12.000000000000
         C           -1.330535987812     0.558680068949     2.187119052365    12.000000000000
         H            0.475464012188     1.789680068949     1.971119052365     1.007825032230
         H            0.571464012188     0.198680068949     1.217119052365     1.007825032230
         H           -0.387535987812     1.484680068949     0.443119052365     1.007825032230
         H           -0.962535987812     0.103680068949     3.107119052365     1.007825032230
         H           -1.986215987812     1.400164068949     2.455419052365     1.007825032230
         H           -1.896405987812    -0.213271931051     1.645009052365     1.007825032230

  Running in c1 symmetry.

  Rotational constants: A =      0.38268  B =      0.05968  C =      0.05394 [cm^-1]
  Rotational constants: A =  11472.37922  B =   1789.23044  C =   1617.05116 [MHz]
  Nuclear repulsion =  124.335347523734342

  Charge       = 0
  Multiplicity = 1
  Electrons    = 36
  Nalpha       = 18
  Nbeta        = 18

  ==> Algorithm <==

  SCF Algorithm Type is PK.
  DIIS enabled.
  MOM disabled.
  Fractional occupation disabled.
  Guess Type is SAD.
  Energy threshold   = 1.00e-06
  Density threshold  = 1.00e-10
  Integral threshold = 0.00e+00

  ==> Primary Basis <==

  Basis Set: CC-PVDZ
    Blend: CC-PVDZ
    Number of shells: 60
    Number of basis function: 116
    Number of Cartesian functions: 120
    Spherical Harmonics?: true
    Max angular momentum: 2

  ==> Pre-Iterations <==

   -------------------------------------------------------
    Irrep   Nso     Nmo     Nalpha   Nbeta   Ndocc  Nsocc
   -------------------------------------------------------
     A        116     116       0       0       0       0
   -------------------------------------------------------
    Total     116     116      18      18      18       0
   -------------------------------------------------------

  ==> Integral Setup <==

  Using integral reordering PK algorithm.
  Sizing the integral batches needed.
  Building batch lookup table.
   Calculation information:
      Number of atoms:                  16
      Number of AO shells:              60
      Number of primitives:            148
      Number of atomic orbitals:       120
      Number of basis functions:       116

      Integral cutoff                 1.00e-12
      Number of threads:                 1

	Batch   1 pq = [       0,    6786] index = [             0,23028291] size =     23028291
  Task number: 3
  Buffer size: 11059200
  Buffer per thread: 2
  We computed 1548745 shell quartets total.
  Whereas there are 1675365 unique shell quartets.

  ==> DiskJK: Disk-Based J/K Matrices <==

    J tasked:                  Yes
    K tasked:                  Yes
    wK tasked:                  No
    Memory [MiB]:              375
    Schwarz Cutoff:          1E-12

    OpenMP threads:              1

  Minimum eigenvalue in the overlap matrix is 7.8988287534E-03.
  Using Symmetric Orthogonalization.

  SCF Guess: Superposition of Atomic Densities via on-the-fly atomic UHF.

  ==> Iterations <==

                        Total Energy        Delta E     RMS |[F,P]|

   @RHF iter SAD:  -157.29595869952684   -1.57296e+02   0.00000e+00
   @RHF iter   1:  -158.30980152720898   -1.01384e+00   4.14987e-03 DIIS
   @RHF iter   2:  -158.44043276974259   -1.30631e-01   1.75356e-03 DIIS
   @RHF iter   3:  -158.46284878737157   -2.24160e-02   3.46295e-04 DIIS
   @RHF iter   4:  -158.46463762815506   -1.78884e-03   3.83383e-05 DIIS
   @RHF iter   5:  -158.46466060669118   -2.29785e-05   6.51291e-06 DIIS
   @RHF iter   6:  -158.46466124080871   -6.34118e-07   1.04117e-06 DIIS
   @RHF iter   7:  -158.46466125216597   -1.13573e-08   3.21773e-07 DIIS
   @RHF iter   8:  -158.46466125310127   -9.35302e-10   4.22801e-08 DIIS
   @RHF iter   9:  -158.46466125313094   -2.96723e-11   8.50787e-09 DIIS
   @RHF iter  10:  -158.46466125313202   -1.08002e-12   2.29593e-09 DIIS
   @RHF iter  11:  -158.46466125313276   -7.38964e-13   6.09690e-10 DIIS
   @RHF iter  12:  -158.46466125313233    4.26326e-13   1.61357e-10 DIIS
   @RHF iter  13:  -158.46466125313222    1.13687e-13   2.26005e-11 DIIS
  Energy and wave function converged.

  ==> Post-Iterations <==

    Orbital Energies [Eh]
    ---------------------

    Doubly Occupied:

       1A    -11.221938     2A    -11.219972     3A    -11.218750
       4A    -11.216207     5A     -1.016163     6A     -1.011070
       7A     -0.841158     8A     -0.837036     9A     -0.603490
      10A     -0.599388    11A     -0.593404    12A     -0.588377
      13A     -0.501152    14A     -0.497206    15A     -0.492250
      16A     -0.486521    17A     -0.485552    18A     -0.479873

    Virtual:

      19A      0.167208    20A      0.204328    21A      0.224292
      22A      0.226700    23A      0.246097    24A      0.253972
      25A      0.267321    26A      0.276251    27A      0.284044
      28A      0.290933    29A      0.329030    30A      0.364658
      31A      0.383265    32A      0.404947    33A      0.560825
      34A      0.594775    35A      0.596462    36A      0.603229
      37A      0.607060    38A      0.633071    39A      0.671310
      40A      0.680293    41A      0.715490    42A      0.789302
      43A      0.840079    44A      0.842529    45A      0.880863
      46A      0.890239    47A      0.894321    48A      0.900529
      49A      0.904036    50A      0.908832    51A      0.911868
      52A      0.919291    53A      0.947893    54A      0.970930
      55A      0.983688    56A      0.995094    57A      1.116278
      58A      1.118969    59A      1.125911    60A      1.152993
      61A      1.218971    62A      1.261596    63A      1.458264
      64A      1.471100    65A      1.471435    66A      1.487431
      67A      1.577810    68A      1.579402    69A      1.679859
      70A      1.684988    71A      1.689410    72A      1.706848
      73A      1.858174    74A      1.862553    75A      1.866680
      76A      1.868608    77A      1.884652    78A      1.913224
      79A      1.928957    80A      1.933245    81A      1.937387
      82A      1.943866    83A      1.946390    84A      1.957448
      85A      1.962044    86A      1.971517    87A      1.975609
      88A      2.014658    89A      2.079162    90A      2.118400
      91A      2.126012    92A      2.146882    93A      2.291654
      94A      2.297082    95A      2.309352    96A      2.313509
      97A      2.435942    98A      2.442062    99A      2.456316
     100A      2.476022   101A      2.544673   102A      2.568088
     103A      2.573850   104A      2.598027   105A      2.755847
     106A      2.771551   107A      2.792223   108A      2.798082
     109A      2.840445   110A      2.842919   111A      2.858948
     112A      2.860402   113A      2.935959   114A      2.952988
     115A      2.958160   116A      2.965625

    Final Occupation by Irrep:
              A
    DOCC [    18 ]

  @RHF Final Energy:  -158.46466125313222

   => Energetics <=

    Nuclear Repulsion Energy =            124.3353475237343417
    One-Electron Energy =                -457.7810023677433264
    Two-Electron Energy =                 174.9809935908767500
    Total Energy =                       -158.4646612531322205

Computation Completed

Properties will be evaluated at   0.000000,   0.000000,   0.000000 [a0]

Properties computed using the SCF density matrix

  Nuclear Dipole Moment: [e a0]
     X:     0.0574      Y:    -0.0750      Z:     0.1398

  Electronic Dipole Moment: [e a0]
     X:    -0.0401      Y:     0.0733      Z:    -0.1127

  Dipole Moment: [e a0]
     X:     0.0173      Y:    -0.0018      Z:     0.0271     Total:     0.0322

  Dipole Moment: [D]
     X:     0.0439      Y:    -0.0045      Z:     0.0688     Total:     0.0817

*** tstop() called on ds3 at Mon Apr 27 00:46:33 2020
Module time:
	user time   =       7.87 seconds =       0.13 minutes
	system time =       2.49 seconds =       0.04 minutes
	total time  =         21 seconds =       0.35 minutes
Total time:
	user time   =       7.87 seconds =       0.13 minutes
	system time =       2.49 seconds =       0.04 minutes
	total time  =         21 seconds =       0.35 minutes
                                     G D M A

                                 by Anthony Stone

                           version 2.2.06, 22 June 2011

               Distributed Multipoles from Gaussian wavefunctions

Starting at 0:46:33 on 27 Apr 2020

Using SCF density matrix from file ./SSI/SSI-007ILE-097VAL-1-dimer.test.10776.fchk

                         Distributed Multipole Analysis

Standard DMA

Positions and radii in angstrom
Multipole moments in atomic units, ea_0^k for rank k

C          x =  1.385464  y = -0.457320  z = -1.698881 angstrom
           Maximum rank =  0   Radius =  0.650 angstrom
                   Q00  =  -0.238444

C          x =  0.021464  y = -1.145320  z = -1.896881 angstrom
           Maximum rank =  0   Radius =  0.650 angstrom
                   Q00  =  -0.240122

H          x =  1.359464  y =  0.559680  z = -2.088881 angstrom
           Maximum rank =  0   Radius =  0.325 angstrom
                   Q00  =   0.079169

H          x =  1.627464  y = -0.419320  z = -0.638881 angstrom
           Maximum rank =  0   Radius =  0.325 angstrom
                   Q00  =   0.081095

H          x =  2.166464  y = -1.024320  z = -2.205881 angstrom
           Maximum rank =  0   Radius =  0.325 angstrom
                   Q00  =   0.078943

H          x = -0.765536  y = -0.487320  z = -1.526881 angstrom
           Maximum rank =  0   Radius =  0.325 angstrom
                   Q00  =   0.080514

H          x =  0.023464  y = -2.047320  z = -1.284881 angstrom
           Maximum rank =  0   Radius =  0.325 angstrom
                   Q00  =   0.075878

H          x = -0.164306  y = -1.425030  z = -2.944381 angstrom
           Maximum rank =  0   Radius =  0.325 angstrom
                   Q00  =   0.083026

C          x = -0.081536  y =  1.050680  z =  1.396119 angstrom
           Maximum rank =  0   Radius =  0.650 angstrom
                   Q00  =  -0.242364

C          x = -1.330536  y =  0.558680  z =  2.187119 angstrom
           Maximum rank =  0   Radius =  0.650 angstrom
                   Q00  =  -0.248313

H          x =  0.475464  y =  1.789680  z =  1.971119 angstrom
           Maximum rank =  0   Radius =  0.325 angstrom
                   Q00  =   0.084723

H          x =  0.571464  y =  0.198680  z =  1.217119 angstrom
           Maximum rank =  0   Radius =  0.325 angstrom
                   Q00  =   0.080423

H          x = -0.387536  y =  1.484680  z =  0.443119 angstrom
           Maximum rank =  0   Radius =  0.325 angstrom
                   Q00  =   0.081022

H          x = -0.962536  y =  0.103680  z =  3.107119 angstrom
           Maximum rank =  0   Radius =  0.325 angstrom
                   Q00  =   0.077979

H          x = -1.986216  y =  1.400164  z =  2.455419 angstrom
           Maximum rank =  0   Radius =  0.325 angstrom
                   Q00  =   0.082362

H          x = -1.896406  y = -0.213272  z =  1.645009 angstrom
           Maximum rank =  0   Radius =  0.325 angstrom
                   Q00  =   0.084107

Total multipoles referred to origin at
           x =   0.000000,  y =    0.000000,  z =    0.000000 angstrom
                   Q00  =  -0.000000

Finished at 0:46:33 on 27 Apr 2020

  DMA results are available in the Python driver through the
	  variable('DMA DISTRIBUTED MULTIPOLES')
  and
	  variable('DMA TOTAL MULTIPOLES')
  commands.

    Psi4 stopped on: Monday, 27 April 2020 12:46AM
    Psi4 wall time for execution: 0:00:21.17

*** Psi4 exiting successfully. Buy a developer a beer!
