                               Psi4 1.3.2 release

  ==> Input File <==

--------------------------------------------------------------------------
import numpy as np
set {scf_type pk
basis cc-pvdz
d_convergence 10
gdma_switch   0
gdma_limit    0
gdma_origin   [ 0.0,  0.0,  0.0 ]
}
molecule test {
    units Angstrom
    -1 1
    --
    -1 1
    C                0.604783275631948    -2.258738582463433    -1.226978668519382
    C               -0.228216724368052    -3.413738582463433    -0.660978668519382
    C                2.100783275631948    -2.463738582463433    -1.013978668519382
    O                2.493783275631948    -3.386738582463433    -0.265978668519382
    O                2.880783275631948    -1.681738582463433    -1.587978668519382
    H                0.393783275631948    -2.143738582463433    -2.291978668519382
    H                0.306783275631948    -1.336738582463433    -0.728978668519382
    H               -1.277216724368052    -3.218738582463433    -0.884978668519382
    H               -0.078799724368052    -3.488822582463433     0.426236331480618
    H                0.043492275631948    -4.356095582463432    -1.159112668519382
    C               -0.800216724368052     1.097261417536567     3.476021331480618
    C               -1.462216724368052     0.824261417536567    -0.261978668519382
    C               -1.322216724368052     0.492261417536567     1.082021331480618
    C               -1.194216724368052     2.125261417536567    -0.681978668519382
    C               -0.931216724368052     1.450261417536568     2.017021331480618
    C               -0.796216724368052     3.081261417536567     0.238021331480618
    C               -0.667216724368052     2.745261417536567     1.580021331480618
    O               -1.303216724368052     2.476261417536567    -1.995978668519382
    H               -1.773216724368052     0.075261417536567    -0.975978668519382
    H               -1.531216724368052    -0.517738582463433     1.406021331480618
    H               -1.588216724368052     1.735261417536567    -2.538978668519382
    H               -0.587216724368052     4.082261417536567    -0.101978668519382
    H               -0.061216724368052     1.752261417536568     3.938021331480618
    H               -0.426216724368052     0.076261417536567     3.554021331480618
    H               -0.367216724368052     3.498261417536567     2.294021331480618
    H               -1.752342724368052     1.170113417536567     4.022051331480617

}
e, wfn = energy('scf', return_wfn=True)
gdma(wfn)
dmavals = variable('DMA DISTRIBUTED MULTIPOLES')
charges = np.array(dmavals)
print(charges)
np.save('SSI-043ASP-062TYR-1-dimer.npy', np.array(charges))--------------------------------------------------------------------------

*** tstart() called on ds3
*** at Mon Apr 27 21:23:42 2020

   => Loading Basis Set <=

    Name: CC-PVDZ
    Role: ORBITAL
    Keyword: BASIS
    atoms 1-3, 11-17  entry C          line   138 file /theoryfs2/ds/metcalf/miniconda2/envs/tf2gpu/share/psi4/basis/cc-pvdz.gbs
    atoms 4-5, 18     entry O          line   198 file /theoryfs2/ds/metcalf/miniconda2/envs/tf2gpu/share/psi4/basis/cc-pvdz.gbs
    atoms 6-10, 19-26 entry H          line    22 file /theoryfs2/ds/metcalf/miniconda2/envs/tf2gpu/share/psi4/basis/cc-pvdz.gbs

         ---------------------------------------------------------
                                   SCF
               by Justin Turney, Rob Parrish, Andy Simmonett
                          and Daniel G. A. Smith
                              RHF Reference
                        1 Threads,    500 MiB Core
         ---------------------------------------------------------

  ==> Geometry <==

    Molecular point group: c1
    Full point group: C1

    Geometry (in Angstrom), charge = -1, multiplicity = 1:

       Center              X                  Y                   Z               Mass
    ------------   -----------------  -----------------  -----------------  -----------------
         C            0.604783275632    -2.258738582463    -1.226978668519    12.000000000000
         C           -0.228216724368    -3.413738582463    -0.660978668519    12.000000000000
         C            2.100783275632    -2.463738582463    -1.013978668519    12.000000000000
         O            2.493783275632    -3.386738582463    -0.265978668519    15.994914619570
         O            2.880783275632    -1.681738582463    -1.587978668519    15.994914619570
         H            0.393783275632    -2.143738582463    -2.291978668519     1.007825032230
         H            0.306783275632    -1.336738582463    -0.728978668519     1.007825032230
         H           -1.277216724368    -3.218738582463    -0.884978668519     1.007825032230
         H           -0.078799724368    -3.488822582463     0.426236331481     1.007825032230
         H            0.043492275632    -4.356095582463    -1.159112668519     1.007825032230
         C           -0.800216724368     1.097261417537     3.476021331481    12.000000000000
         C           -1.462216724368     0.824261417537    -0.261978668519    12.000000000000
         C           -1.322216724368     0.492261417537     1.082021331481    12.000000000000
         C           -1.194216724368     2.125261417537    -0.681978668519    12.000000000000
         C           -0.931216724368     1.450261417537     2.017021331481    12.000000000000
         C           -0.796216724368     3.081261417537     0.238021331481    12.000000000000
         C           -0.667216724368     2.745261417537     1.580021331481    12.000000000000
         O           -1.303216724368     2.476261417537    -1.995978668519    15.994914619570
         H           -1.773216724368     0.075261417537    -0.975978668519     1.007825032230
         H           -1.531216724368    -0.517738582463     1.406021331481     1.007825032230
         H           -1.588216724368     1.735261417537    -2.538978668519     1.007825032230
         H           -0.587216724368     4.082261417537    -0.101978668519     1.007825032230
         H           -0.061216724368     1.752261417537     3.938021331481     1.007825032230
         H           -0.426216724368     0.076261417537     3.554021331481     1.007825032230
         H           -0.367216724368     3.498261417537     2.294021331481     1.007825032230
         H           -1.752342724368     1.170113417537     4.022051331481     1.007825032230

  Running in c1 symmetry.

  Rotational constants: A =      0.03165  B =      0.01123  C =      0.00983 [cm^-1]
  Rotational constants: A =    948.86444  B =    336.77362  C =    294.59315 [MHz]
  Nuclear repulsion =  722.573318665916076

  Charge       = -1
  Multiplicity = 1
  Electrons    = 98
  Nalpha       = 49
  Nbeta        = 49

  ==> Algorithm <==

  SCF Algorithm Type is PK.
  DIIS enabled.
  MOM disabled.
  Fractional occupation disabled.
  Guess Type is SAD.
  Energy threshold   = 1.00e-06
  Density threshold  = 1.00e-10
  Integral threshold = 0.00e+00

  ==> Primary Basis <==

  Basis Set: CC-PVDZ
    Blend: CC-PVDZ
    Number of shells: 117
    Number of basis function: 247
    Number of Cartesian functions: 260
    Spherical Harmonics?: true
    Max angular momentum: 2

  ==> Pre-Iterations <==

   -------------------------------------------------------
    Irrep   Nso     Nmo     Nalpha   Nbeta   Ndocc  Nsocc
   -------------------------------------------------------
     A        247     247       0       0       0       0
   -------------------------------------------------------
    Total     247     247      49      49      49       0
   -------------------------------------------------------

  ==> Integral Setup <==

  Using integral reordering PK algorithm.
  Sizing the integral batches needed.
  Building batch lookup table.
   Calculation information:
      Number of atoms:                  26
      Number of AO shells:             117
      Number of primitives:            351
      Number of atomic orbitals:       260
      Number of basis functions:       247

      Integral cutoff                 1.00e-12
      Number of threads:                 1

	Batch   1 pq = [       0,    9405] index = [             0,44231715] size =     44231715
	Batch   2 pq = [    9405,   13301] index = [      44231715,88464951] size =     44233236
	Batch   3 pq = [   13301,   16290] index = [      88464951,132690195] size =     44225244
	Batch   4 pq = [   16290,   18810] index = [     132690195,176917455] size =     44227260
	Batch   5 pq = [   18810,   21030] index = [     176917455,221140965] size =     44223510
	Batch   6 pq = [   21030,   23037] index = [     221140965,265363203] size =     44222238
	Batch   7 pq = [   23037,   24883] index = [     265363203,309594286] size =     44231083
	Batch   8 pq = [   24883,   26601] index = [     309594286,353819901] size =     44225615
	Batch   9 pq = [   26601,   28214] index = [     353819901,398029005] size =     44209104
	Batch  10 pq = [   28214,   29740] index = [     398029005,442248670] size =     44219665
	Batch  11 pq = [   29740,   30628] index = [     442248670,469052506] size =     26803836
  Task number: 43
  Buffer size: 11059200
  Buffer per thread: 2
  We computed 19883219 shell quartets total.
  Whereas there are 23829156 unique shell quartets.

  ==> DiskJK: Disk-Based J/K Matrices <==

    J tasked:                  Yes
    K tasked:                  Yes
    wK tasked:                  No
    Memory [MiB]:              375
    Schwarz Cutoff:          1E-12

    OpenMP threads:              1

  Minimum eigenvalue in the overlap matrix is 3.1838531654E-04.
  Using Symmetric Orthogonalization.

  SCF Guess: Superposition of Atomic Densities via on-the-fly atomic UHF.

  ==> Iterations <==

                        Total Energy        Delta E     RMS |[F,P]|

   @RHF iter SAD:  -609.21554601942626   -6.09216e+02   0.00000e+00
   @RHF iter   1:  -610.51343630505744   -1.29789e+00   3.43965e-03 DIIS
   @RHF iter   2:  -610.82049343376696   -3.07057e-01   1.80231e-03 DIIS
   @RHF iter   3:  -610.89692063777625   -7.64272e-02   3.22653e-04 DIIS
   @RHF iter   4:  -610.90116111820771   -4.24048e-03   1.25663e-04 DIIS
   @RHF iter   5:  -610.90176886606446   -6.07748e-04   1.99442e-05 DIIS
   @RHF iter   6:  -610.90179139151087   -2.25254e-05   7.86676e-06 DIIS
   @RHF iter   7:  -610.90179409046391   -2.69895e-06   2.64431e-06 DIIS
   @RHF iter   8:  -610.90179446561353   -3.75150e-07   7.88060e-07 DIIS
   @RHF iter   9:  -610.90179450729556   -4.16820e-08   2.74684e-07 DIIS
   @RHF iter  10:  -610.90179451324775   -5.95219e-09   9.93936e-08 DIIS
   @RHF iter  11:  -610.90179451420329   -9.55538e-10   5.12050e-08 DIIS
   @RHF iter  12:  -610.90179451449421   -2.90925e-10   2.35362e-08 DIIS
   @RHF iter  13:  -610.90179451460449   -1.10276e-10   9.76635e-09 DIIS
   @RHF iter  14:  -610.90179451461177   -7.27596e-12   3.59236e-09 DIIS
   @RHF iter  15:  -610.90179451462279   -1.10276e-11   1.05553e-09 DIIS
   @RHF iter  16:  -610.90179451461017    1.26192e-11   5.05370e-10 DIIS
   @RHF iter  17:  -610.90179451462029   -1.01181e-11   1.93560e-10 DIIS
   @RHF iter  18:  -610.90179451462006    2.27374e-13   7.37047e-11 DIIS
  Energy and wave function converged.

  ==> Post-Iterations <==

    Orbital Energies [Eh]
    ---------------------

    Doubly Occupied:

       1A    -20.501612     2A    -20.255985     3A    -20.249872
       4A    -11.215161     5A    -11.156282     6A    -11.153635
       7A    -11.150993     8A    -11.150312     9A    -11.147929
      10A    -11.147400    11A    -11.108644    12A    -11.073394
      13A    -11.053254    14A     -1.317684    15A     -1.146205
      16A     -1.069151    17A     -1.031390    18A     -0.956937
      19A     -0.935345    20A     -0.870015    21A     -0.846661
      22A     -0.762149    23A     -0.720238    24A     -0.700574
      25A     -0.649841    26A     -0.585697    27A     -0.559530
      28A     -0.525043    29A     -0.507886    30A     -0.505448
      31A     -0.501463    32A     -0.492235    33A     -0.488141
      34A     -0.459212    35A     -0.447310    36A     -0.429438
      37A     -0.417140    38A     -0.402440    39A     -0.386276
      40A     -0.384825    41A     -0.359860    42A     -0.355270
      43A     -0.325774    44A     -0.298663    45A     -0.254211
      46A     -0.219485    47A     -0.177959    48A     -0.165311
      49A     -0.155168

    Virtual:

      50A      0.214153    51A      0.237882    52A      0.262715
      53A      0.262935    54A      0.290378    55A      0.292988
      56A      0.328949    57A      0.335127    58A      0.356692
      59A      0.361418    60A      0.370453    61A      0.392955
      62A      0.408733    63A      0.414054    64A      0.425489
      65A      0.453689    66A      0.457498    67A      0.497134
      68A      0.514581    69A      0.535497    70A      0.549313
      71A      0.568510    72A      0.578192    73A      0.585795
      74A      0.628143    75A      0.689786    76A      0.697533
      77A      0.715795    78A      0.720668    79A      0.728955
      80A      0.743938    81A      0.761867    82A      0.771197
      83A      0.776935    84A      0.788409    85A      0.794625
      86A      0.811177    87A      0.820149    88A      0.851303
      89A      0.857727    90A      0.867958    91A      0.873682
      92A      0.883527    93A      0.899189    94A      0.909905
      95A      0.930316    96A      0.934428    97A      0.952234
      98A      0.956764    99A      0.962278   100A      0.971413
     101A      0.978806   102A      0.998071   103A      1.004869
     104A      1.009124   105A      1.014610   106A      1.021545
     107A      1.024146   108A      1.039182   109A      1.048984
     110A      1.055819   111A      1.062360   112A      1.067527
     113A      1.081644   114A      1.097212   115A      1.101965
     116A      1.130762   117A      1.155271   118A      1.161379
     119A      1.208359   120A      1.226974   121A      1.231003
     122A      1.251400   123A      1.283214   124A      1.302366
     125A      1.312356   126A      1.321369   127A      1.332044
     128A      1.337243   129A      1.365844   130A      1.368099
     131A      1.388164   132A      1.395920   133A      1.397627
     134A      1.402889   135A      1.440490   136A      1.448020
     137A      1.460935   138A      1.474289   139A      1.492929
     140A      1.530395   141A      1.565542   142A      1.581579
     143A      1.608759   144A      1.613415   145A      1.622368
     146A      1.636902   147A      1.648198   148A      1.664049
     149A      1.696760   150A      1.699702   151A      1.738123
     152A      1.765285   153A      1.781063   154A      1.814889
     155A      1.825231   156A      1.827310   157A      1.837685
     158A      1.862878   159A      1.869003   160A      1.888226
     161A      1.892756   162A      1.938958   163A      1.958512
     164A      1.966380   165A      1.975792   166A      1.987980
     167A      1.995328   168A      2.001161   169A      2.018946
     170A      2.034527   171A      2.044007   172A      2.046943
     173A      2.055781   174A      2.064087   175A      2.066604
     176A      2.106627   177A      2.124044   178A      2.133112
     179A      2.135412   180A      2.140002   181A      2.146325
     182A      2.154355   183A      2.159973   184A      2.180898
     185A      2.196682   186A      2.217884   187A      2.232565
     188A      2.235124   189A      2.253651   190A      2.258397
     191A      2.292853   192A      2.312132   193A      2.339327
     194A      2.350862   195A      2.361553   196A      2.378844
     197A      2.385954   198A      2.405645   199A      2.450542
     200A      2.457264   201A      2.505572   202A      2.511656
     203A      2.535143   204A      2.542757   205A      2.561826
     206A      2.573246   207A      2.615812   208A      2.621572
     209A      2.632953   210A      2.657402   211A      2.685373
     212A      2.707492   213A      2.727095   214A      2.771620
     215A      2.807609   216A      2.836348   217A      2.853055
     218A      2.873338   219A      2.893552   220A      2.919171
     221A      2.924535   222A      2.980973   223A      2.988007
     224A      3.002623   225A      3.045547   226A      3.079177
     227A      3.090288   228A      3.131089   229A      3.175660
     230A      3.195008   231A      3.249266   232A      3.295843
     233A      3.310994   234A      3.332202   235A      3.370824
     236A      3.372822   237A      3.428499   238A      3.647470
     239A      3.655288   240A      3.764019   241A      3.791883
     242A      3.838079   243A      4.050299   244A      4.061597
     245A      4.088153   246A      4.219657   247A      4.279967

    Final Occupation by Irrep:
              A
    DOCC [    49 ]

  @RHF Final Energy:  -610.90179451462006

   => Energetics <=

    Nuclear Repulsion Energy =            722.5733186659160765
    One-Electron Energy =               -2281.4013382673851993
    Two-Electron Energy =                 947.9262250868490582
    Total Energy =                       -610.9017945146200645

Computation Completed

Properties will be evaluated at   0.000000,   0.000000,   0.000000 [a0]

Properties computed using the SCF density matrix

  Nuclear Dipole Moment: [e a0]
     X:    -8.1353      Y:    -2.5176      Z:     6.5048

  Electronic Dipole Moment: [e a0]
     X:     3.0563      Y:     6.5987      Z:    -4.8744

  Dipole Moment: [e a0]
     X:    -5.0790      Y:     4.0812      Z:     1.6304     Total:     6.7164

  Dipole Moment: [D]
     X:   -12.9096      Y:    10.3733      Z:     4.1441     Total:    17.0715

*** tstop() called on ds3 at Mon Apr 27 21:28:31 2020
Module time:
	user time   =     156.61 seconds =       2.61 minutes
	system time =      73.14 seconds =       1.22 minutes
	total time  =        289 seconds =       4.82 minutes
Total time:
	user time   =     156.61 seconds =       2.61 minutes
	system time =      73.14 seconds =       1.22 minutes
	total time  =        289 seconds =       4.82 minutes
                                     G D M A

                                 by Anthony Stone

                           version 2.2.06, 22 June 2011

               Distributed Multipoles from Gaussian wavefunctions

Starting at 21:28:31 on 27 Apr 2020

Using SCF density matrix from file ./SSI/SSI-043ASP-062TYR-1-dimer.test.4392.fchk

                         Distributed Multipole Analysis

Standard DMA

Positions and radii in angstrom
Multipole moments in atomic units, ea_0^k for rank k

C          x =  0.604783  y = -2.258739  z = -1.226979 angstrom
           Maximum rank =  0   Radius =  0.650 angstrom
                   Q00  =  -0.165612

C          x = -0.228217  y = -3.413739  z = -0.660979 angstrom
           Maximum rank =  0   Radius =  0.650 angstrom
                   Q00  =  -0.230583

C          x =  2.100783  y = -2.463739  z = -1.013979 angstrom
           Maximum rank =  0   Radius =  0.650 angstrom
                   Q00  =   1.049547

O          x =  2.493783  y = -3.386739  z = -0.265979 angstrom
           Maximum rank =  0   Radius =  0.650 angstrom
                   Q00  =  -0.973562

O          x =  2.880783  y = -1.681739  z = -1.587979 angstrom
           Maximum rank =  0   Radius =  0.650 angstrom
                   Q00  =  -0.941669

H          x =  0.393783  y = -2.143739  z = -2.291979 angstrom
           Maximum rank =  0   Radius =  0.325 angstrom
                   Q00  =   0.032918

H          x =  0.306783  y = -1.336739  z = -0.728979 angstrom
           Maximum rank =  0   Radius =  0.325 angstrom
                   Q00  =   0.061632

H          x = -1.277217  y = -3.218739  z = -0.884979 angstrom
           Maximum rank =  0   Radius =  0.325 angstrom
                   Q00  =   0.000704

H          x = -0.078800  y = -3.488823  z =  0.426236 angstrom
           Maximum rank =  0   Radius =  0.325 angstrom
                   Q00  =   0.084457

H          x =  0.043492  y = -4.356096  z = -1.159113 angstrom
           Maximum rank =  0   Radius =  0.325 angstrom
                   Q00  =   0.079884

C          x = -0.800217  y =  1.097261  z =  3.476021 angstrom
           Maximum rank =  0   Radius =  0.650 angstrom
                   Q00  =  -0.194565

C          x = -1.462217  y =  0.824261  z = -0.261979 angstrom
           Maximum rank =  0   Radius =  0.650 angstrom
                   Q00  =  -0.183200

C          x = -1.322217  y =  0.492261  z =  1.082021 angstrom
           Maximum rank =  0   Radius =  0.650 angstrom
                   Q00  =  -0.011832

C          x = -1.194217  y =  2.125261  z = -0.681979 angstrom
           Maximum rank =  0   Radius =  0.650 angstrom
                   Q00  =   0.317751

C          x = -0.931217  y =  1.450261  z =  2.017021 angstrom
           Maximum rank =  0   Radius =  0.650 angstrom
                   Q00  =  -0.136059

C          x = -0.796217  y =  3.081261  z =  0.238021 angstrom
           Maximum rank =  0   Radius =  0.650 angstrom
                   Q00  =  -0.113581

C          x = -0.667217  y =  2.745261  z =  1.580021 angstrom
           Maximum rank =  0   Radius =  0.650 angstrom
                   Q00  =   0.033163

O          x = -1.303217  y =  2.476261  z = -1.995979 angstrom
           Maximum rank =  0   Radius =  0.650 angstrom
                   Q00  =  -0.675049

H          x = -1.773217  y =  0.075261  z = -0.975979 angstrom
           Maximum rank =  0   Radius =  0.325 angstrom
                   Q00  =   0.084471

H          x = -1.531217  y = -0.517739  z =  1.406021 angstrom
           Maximum rank =  0   Radius =  0.325 angstrom
                   Q00  =   0.075299

H          x = -1.588217  y =  1.735261  z = -2.538979 angstrom
           Maximum rank =  0   Radius =  0.325 angstrom
                   Q00  =   0.406652

H          x = -0.587217  y =  4.082261  z = -0.101979 angstrom
           Maximum rank =  0   Radius =  0.325 angstrom
                   Q00  =   0.067213

H          x = -0.061217  y =  1.752261  z =  3.938021 angstrom
           Maximum rank =  0   Radius =  0.325 angstrom
                   Q00  =   0.091474

H          x = -0.426217  y =  0.076261  z =  3.554021 angstrom
           Maximum rank =  0   Radius =  0.325 angstrom
                   Q00  =   0.108161

H          x = -0.367217  y =  3.498261  z =  2.294021 angstrom
           Maximum rank =  0   Radius =  0.325 angstrom
                   Q00  =   0.048529

H          x = -1.752343  y =  1.170113  z =  4.022051 angstrom
           Maximum rank =  0   Radius =  0.325 angstrom
                   Q00  =   0.083857

Total multipoles referred to origin at
           x =   0.000000,  y =    0.000000,  z =    0.000000 angstrom
                   Q00  =  -1.000000

Finished at 21:28:31 on 27 Apr 2020

  DMA results are available in the Python driver through the
	  variable('DMA DISTRIBUTED MULTIPOLES')
  and
	  variable('DMA TOTAL MULTIPOLES')
  commands.

    Psi4 stopped on: Monday, 27 April 2020 09:28PM
    Psi4 wall time for execution: 0:04:49.51

*** Psi4 exiting successfully. Buy a developer a beer!
