                               Psi4 1.3.2 release

  ==> Input File <==

--------------------------------------------------------------------------
import numpy as np
set {scf_type pk
basis cc-pvdz
d_convergence 10
gdma_switch   0
gdma_limit    0
gdma_origin   [ 0.0,  0.0,  0.0 ]
}
molecule test {
    units Angstrom
    0 1
    --
    0 1
    C               -3.908191153848620    -2.823124365395398    -0.318299438848729
    C               -1.024191153848620    -0.311124365395398    -0.203299438848729
    C               -1.975191153848620    -1.261124365395398     0.190700561151271
    C               -0.953191153848620     0.095875634604602    -1.524299438848729
    C               -2.887191153848620    -1.782124365395398    -0.729299438848729
    C               -1.842191153848620    -0.435124365395398    -2.450299438848729
    C               -2.796191153848620    -1.375124365395398    -2.057299438848729
    H               -0.332191153848620     0.092875634604602     0.520700561151271
    H               -1.992191153848620    -1.586124365395398     1.220700561151271
    H               -0.207191153848620     0.815875634604602    -1.829299438848729
    H               -1.790191153848620    -0.118124365395398    -3.483299438848729
    H               -3.397191153848620    -3.595124365395398     0.256700561151271
    H               -4.305191153848620    -3.309124365395398    -1.210299438848729
    H               -3.479191153848620    -1.778124365395398    -2.791299438848729
    H               -4.750095153848621    -2.448234365395398     0.282244561151271
    C                1.883808846151380     0.096875634604602     3.174700561151271
    C                2.071808846151380     0.756875634604602     1.840700561151271
    C                1.632808846151380     2.050875634604603     1.602700561151271
    C                2.728808846151380     0.068875634604602     0.821700561151271
    C                1.841808846151380     2.650875634604602     0.360700561151271
    C                2.945808846151380     0.666875634604602    -0.420299438848729
    C                2.500808846151380     1.954875634604602    -0.649299438848729
    H                2.875808846151380     0.010875634604602     3.621700561151271
    H                1.509808846151380    -0.917124365395398     3.022700561151271
    H                1.130808846151380     2.640875634604603     2.346700561151271
    H                3.094808846151381    -0.933124365395398     0.998700561151271
    H                1.523808846151380     3.670875634604602     0.192700561151271
    H                3.516808846151380     0.146875634604602    -1.168299438848729
    H                2.754808846151380     2.458875634604602    -1.565299438848729
    H                1.235319846151380     0.629875634604602     3.885600561151271

}
e, wfn = energy('scf', return_wfn=True)
gdma(wfn)
dmavals = variable('DMA DISTRIBUTED MULTIPOLES')
charges = np.array(dmavals)
print(charges)
np.save('SSI-138PHE-153PHE-1-dimer.npy', np.array(charges))--------------------------------------------------------------------------

*** tstart() called on ds3
*** at Tue Apr 28 11:46:53 2020

   => Loading Basis Set <=

    Name: CC-PVDZ
    Role: ORBITAL
    Keyword: BASIS
    atoms 1-7, 16-22  entry C          line   138 file /theoryfs2/ds/metcalf/miniconda2/envs/tf2gpu/share/psi4/basis/cc-pvdz.gbs
    atoms 8-15, 23-30 entry H          line    22 file /theoryfs2/ds/metcalf/miniconda2/envs/tf2gpu/share/psi4/basis/cc-pvdz.gbs

         ---------------------------------------------------------
                                   SCF
               by Justin Turney, Rob Parrish, Andy Simmonett
                          and Daniel G. A. Smith
                              RHF Reference
                        1 Threads,    500 MiB Core
         ---------------------------------------------------------

  ==> Geometry <==

    Molecular point group: c1
    Full point group: C1

    Geometry (in Angstrom), charge = 0, multiplicity = 1:

       Center              X                  Y                   Z               Mass
    ------------   -----------------  -----------------  -----------------  -----------------
         C           -3.908191153849    -2.823124365395    -0.318299438849    12.000000000000
         C           -1.024191153849    -0.311124365395    -0.203299438849    12.000000000000
         C           -1.975191153849    -1.261124365395     0.190700561151    12.000000000000
         C           -0.953191153849     0.095875634605    -1.524299438849    12.000000000000
         C           -2.887191153849    -1.782124365395    -0.729299438849    12.000000000000
         C           -1.842191153849    -0.435124365395    -2.450299438849    12.000000000000
         C           -2.796191153849    -1.375124365395    -2.057299438849    12.000000000000
         H           -0.332191153849     0.092875634605     0.520700561151     1.007825032230
         H           -1.992191153849    -1.586124365395     1.220700561151     1.007825032230
         H           -0.207191153849     0.815875634605    -1.829299438849     1.007825032230
         H           -1.790191153849    -0.118124365395    -3.483299438849     1.007825032230
         H           -3.397191153849    -3.595124365395     0.256700561151     1.007825032230
         H           -4.305191153849    -3.309124365395    -1.210299438849     1.007825032230
         H           -3.479191153849    -1.778124365395    -2.791299438849     1.007825032230
         H           -4.750095153849    -2.448234365395     0.282244561151     1.007825032230
         C            1.883808846151     0.096875634605     3.174700561151    12.000000000000
         C            2.071808846151     0.756875634605     1.840700561151    12.000000000000
         C            1.632808846151     2.050875634605     1.602700561151    12.000000000000
         C            2.728808846151     0.068875634605     0.821700561151    12.000000000000
         C            1.841808846151     2.650875634605     0.360700561151    12.000000000000
         C            2.945808846151     0.666875634605    -0.420299438849    12.000000000000
         C            2.500808846151     1.954875634605    -0.649299438849    12.000000000000
         H            2.875808846151     0.010875634605     3.621700561151     1.007825032230
         H            1.509808846151    -0.917124365395     3.022700561151     1.007825032230
         H            1.130808846151     2.640875634605     2.346700561151     1.007825032230
         H            3.094808846151    -0.933124365395     0.998700561151     1.007825032230
         H            1.523808846151     3.670875634605     0.192700561151     1.007825032230
         H            3.516808846151     0.146875634605    -1.168299438849     1.007825032230
         H            2.754808846151     2.458875634605    -1.565299438849     1.007825032230
         H            1.235319846151     0.629875634605     3.885600561151     1.007825032230

  Running in c1 symmetry.

  Rotational constants: A =      0.03990  B =      0.01059  C =      0.00921 [cm^-1]
  Rotational constants: A =   1196.15485  B =    317.41034  C =    276.07694 [MHz]
  Nuclear repulsion =  777.264587769173431

  Charge       = 0
  Multiplicity = 1
  Electrons    = 100
  Nalpha       = 50
  Nbeta        = 50

  ==> Algorithm <==

  SCF Algorithm Type is PK.
  DIIS enabled.
  MOM disabled.
  Fractional occupation disabled.
  Guess Type is SAD.
  Energy threshold   = 1.00e-06
  Density threshold  = 1.00e-10
  Integral threshold = 0.00e+00

  ==> Primary Basis <==

  Basis Set: CC-PVDZ
    Blend: CC-PVDZ
    Number of shells: 132
    Number of basis function: 276
    Number of Cartesian functions: 290
    Spherical Harmonics?: true
    Max angular momentum: 2

  ==> Pre-Iterations <==

   -------------------------------------------------------
    Irrep   Nso     Nmo     Nalpha   Nbeta   Ndocc  Nsocc
   -------------------------------------------------------
     A        276     276       0       0       0       0
   -------------------------------------------------------
    Total     276     276      50      50      50       0
   -------------------------------------------------------

  ==> Integral Setup <==

  Using integral reordering PK algorithm.
  Sizing the integral batches needed.
  Building batch lookup table.
   Calculation information:
      Number of atoms:                  30
      Number of AO shells:             132
      Number of primitives:            388
      Number of atomic orbitals:       290
      Number of basis functions:       276

      Integral cutoff                 1.00e-12
      Number of threads:                 1

	Batch   1 pq = [       0,    9405] index = [             0,44231715] size =     44231715
	Batch   2 pq = [    9405,   13301] index = [      44231715,88464951] size =     44233236
	Batch   3 pq = [   13301,   16290] index = [      88464951,132690195] size =     44225244
	Batch   4 pq = [   16290,   18810] index = [     132690195,176917455] size =     44227260
	Batch   5 pq = [   18810,   21030] index = [     176917455,221140965] size =     44223510
	Batch   6 pq = [   21030,   23037] index = [     221140965,265363203] size =     44222238
	Batch   7 pq = [   23037,   24883] index = [     265363203,309594286] size =     44231083
	Batch   8 pq = [   24883,   26601] index = [     309594286,353819901] size =     44225615
	Batch   9 pq = [   26601,   28214] index = [     353819901,398029005] size =     44209104
	Batch  10 pq = [   28214,   29740] index = [     398029005,442248670] size =     44219665
	Batch  11 pq = [   29740,   31191] index = [     442248670,486454836] size =     44206166
	Batch  12 pq = [   31191,   32578] index = [     486454836,530679331] size =     44224495
	Batch  13 pq = [   32578,   33908] index = [     530679331,574893186] size =     44213855
	Batch  14 pq = [   33908,   35188] index = [     574893186,619115266] size =     44222080
	Batch  15 pq = [   35188,   36423] index = [     619115266,663335676] size =     44220410
	Batch  16 pq = [   36423,   37617] index = [     663335676,707538153] size =     44202477
	Batch  17 pq = [   37617,   38226] index = [     707538153,730632651] size =     23094498
  Task number: 67
  Buffer size: 11059200
  Buffer per thread: 2
  We computed 37077608 shell quartets total.
  Whereas there are 38531031 unique shell quartets.

  ==> DiskJK: Disk-Based J/K Matrices <==

    J tasked:                  Yes
    K tasked:                  Yes
    wK tasked:                  No
    Memory [MiB]:              375
    Schwarz Cutoff:          1E-12

    OpenMP threads:              1

  Minimum eigenvalue in the overlap matrix is 2.9652762532E-04.
  Using Symmetric Orthogonalization.

  SCF Guess: Superposition of Atomic Densities via on-the-fly atomic UHF.

  ==> Iterations <==

                        Total Energy        Delta E     RMS |[F,P]|

   @RHF iter SAD:  -538.40065137182467   -5.38401e+02   0.00000e+00
   @RHF iter   1:  -539.22768037086337   -8.27029e-01   2.30007e-03 DIIS
   @RHF iter   2:  -539.47909886700461   -2.51418e-01   9.30282e-04 DIIS
   @RHF iter   3:  -539.51525061281438   -3.61517e-02   2.11903e-04 DIIS
   @RHF iter   4:  -539.51833861077546   -3.08800e-03   4.45161e-05 DIIS
   @RHF iter   5:  -539.51844103944632   -1.02429e-04   1.31234e-05 DIIS
   @RHF iter   6:  -539.51844962607163   -8.58663e-06   4.02397e-06 DIIS
   @RHF iter   7:  -539.51845053007014   -9.03999e-07   1.14753e-06 DIIS
   @RHF iter   8:  -539.51845062627217   -9.62020e-08   3.02936e-07 DIIS
   @RHF iter   9:  -539.51845064065458   -1.43824e-08   1.31805e-07 DIIS
   @RHF iter  10:  -539.51845064357076   -2.91618e-09   6.25066e-08 DIIS
   @RHF iter  11:  -539.51845064452937   -9.58607e-10   2.52152e-08 DIIS
   @RHF iter  12:  -539.51845064469148   -1.62117e-10   1.23705e-08 DIIS
   @RHF iter  13:  -539.51845064471593   -2.44427e-11   3.58141e-09 DIIS
   @RHF iter  14:  -539.51845064471433    1.59162e-12   9.29488e-10 DIIS
   @RHF iter  15:  -539.51845064471752   -3.18323e-12   2.80073e-10 DIIS
   @RHF iter  16:  -539.51845064471388    3.63798e-12   9.88701e-11 DIIS
  Energy and wave function converged.

  ==> Post-Iterations <==

    Orbital Energies [Eh]
    ---------------------

    Doubly Occupied:

       1A    -11.243948     2A    -11.237725     3A    -11.237180
       4A    -11.234930     5A    -11.232741     6A    -11.232065
       7A    -11.231750     8A    -11.231587     9A    -11.227302
      10A    -11.225672    11A    -11.224349    12A    -11.223407
      13A    -11.223171    14A    -11.220003    15A     -1.157200
      16A     -1.143797    17A     -1.049432    18A     -1.036391
      19A     -1.014186    20A     -1.001086    21A     -0.934982
      22A     -0.925311    23A     -0.827900    24A     -0.816796
      25A     -0.799244    26A     -0.787062    27A     -0.694403
      28A     -0.682953    29A     -0.634908    30A     -0.633291
      31A     -0.622997    32A     -0.621440    33A     -0.584957
      34A     -0.580690    35A     -0.570352    36A     -0.569862
      37A     -0.567744    38A     -0.555968    39A     -0.539934
      40A     -0.529103    41A     -0.490097    42A     -0.488908
      43A     -0.483397    44A     -0.479319    45A     -0.474657
      46A     -0.473715    47A     -0.335825    48A     -0.325132
      49A     -0.321257    50A     -0.315318

    Virtual:

      51A      0.129676    52A      0.140194    53A      0.142445
      54A      0.152760    55A      0.174568    56A      0.192053
      57A      0.196539    58A      0.214109    59A      0.215670
      60A      0.229916    61A      0.245131    62A      0.251037
      63A      0.254979    64A      0.265225    65A      0.272390
      66A      0.274065    67A      0.282381    68A      0.289361
      69A      0.297401    70A      0.315867    71A      0.364471
      72A      0.373272    73A      0.375956    74A      0.381692
      75A      0.450267    76A      0.457613    77A      0.461659
      78A      0.466770    79A      0.475460    80A      0.482103
      81A      0.496973    82A      0.503712    83A      0.560147
      84A      0.564977    85A      0.591094    86A      0.604263
      87A      0.629565    88A      0.636664    89A      0.671425
      90A      0.677093    91A      0.683642    92A      0.693163
      93A      0.705187    94A      0.708880    95A      0.718019
      96A      0.725050    97A      0.735246    98A      0.738226
      99A      0.741865   100A      0.743351   101A      0.746972
     102A      0.753508   103A      0.758728   104A      0.762421
     105A      0.765867   106A      0.780941   107A      0.788371
     108A      0.805263   109A      0.813351   110A      0.822699
     111A      0.835682   112A      0.854201   113A      0.858799
     114A      0.860321   115A      0.864142   116A      0.874894
     117A      0.878462   118A      0.888567   119A      0.889205
     120A      0.895856   121A      0.902462   122A      0.902785
     123A      0.916729   124A      0.925063   125A      0.926868
     126A      0.933056   127A      0.938258   128A      0.945333
     129A      0.952143   130A      0.980117   131A      0.989575
     132A      1.005199   133A      1.013650   134A      1.040069
     135A      1.052633   136A      1.091037   137A      1.119515
     138A      1.135512   139A      1.147845   140A      1.149624
     141A      1.152362   142A      1.164906   143A      1.168916
     144A      1.195277   145A      1.206044   146A      1.217356
     147A      1.229917   148A      1.239549   149A      1.244759
     150A      1.252127   151A      1.258363   152A      1.261492
     153A      1.276024   154A      1.295245   155A      1.298785
     156A      1.305607   157A      1.314700   158A      1.317442
     159A      1.329073   160A      1.331819   161A      1.340425
     162A      1.361648   163A      1.421827   164A      1.430071
     165A      1.500173   166A      1.516957   167A      1.533143
     168A      1.538043   169A      1.560707   170A      1.579338
     171A      1.590891   172A      1.613726   173A      1.667319
     174A      1.683105   175A      1.686838   176A      1.697435
     177A      1.730335   178A      1.738439   179A      1.740865
     180A      1.751738   181A      1.760575   182A      1.773367
     183A      1.788225   184A      1.799816   185A      1.819676
     186A      1.830206   187A      1.851070   188A      1.870884
     189A      1.884531   190A      1.894485   191A      1.902505
     192A      1.903544   193A      1.911244   194A      1.914393
     195A      1.920195   196A      1.928991   197A      1.929233
     198A      1.933910   199A      1.943267   200A      1.950505
     201A      1.951061   202A      1.961022   203A      1.974459
     204A      1.980112   205A      1.990650   206A      1.991773
     207A      1.995869   208A      2.019476   209A      2.029394
     210A      2.042844   211A      2.058411   212A      2.071622
     213A      2.082652   214A      2.091389   215A      2.111666
     216A      2.118485   217A      2.130360   218A      2.140374
     219A      2.157841   220A      2.163297   221A      2.169886
     222A      2.172487   223A      2.193666   224A      2.195768
     225A      2.199236   226A      2.225691   227A      2.247371
     228A      2.253396   229A      2.268985   230A      2.272989
     231A      2.282058   232A      2.294761   233A      2.297757
     234A      2.313155   235A      2.329613   236A      2.351535
     237A      2.358647   238A      2.389805   239A      2.451369
     240A      2.458753   241A      2.481999   242A      2.490490
     243A      2.502425   244A      2.521793   245A      2.533508
     246A      2.540594   247A      2.629444   248A      2.639448
     249A      2.723200   250A      2.736702   251A      2.757658
     252A      2.762558   253A      2.772969   254A      2.778804
     255A      2.798271   256A      2.800090   257A      2.811549
     258A      2.829619   259A      2.850091   260A      2.860261
     261A      2.864288   262A      2.887465   263A      2.989377
     264A      2.995117   265A      3.012102   266A      3.024045
     267A      3.034965   268A      3.056832   269A      3.167934
     270A      3.178113   271A      3.208002   272A      3.213226
     273A      3.303933   274A      3.313885   275A      3.971231
     276A      3.971684

    Final Occupation by Irrep:
              A
    DOCC [    50 ]

  @RHF Final Energy:  -539.51845064471388

   => Energetics <=

    Nuclear Repulsion Energy =            777.2645877691734313
    One-Electron Energy =               -2270.9751892345411761
    Two-Electron Energy =                 954.1921508206538647
    Total Energy =                       -539.5184506447138801

Computation Completed

Properties will be evaluated at   0.000000,   0.000000,   0.000000 [a0]

Properties computed using the SCF density matrix

  Nuclear Dipole Moment: [e a0]
     X:    -2.4482      Y:    -3.9543      Z:     4.0317

  Electronic Dipole Moment: [e a0]
     X:     2.6172      Y:     3.9063      Z:    -3.7997

  Dipole Moment: [e a0]
     X:     0.1690      Y:    -0.0480      Z:     0.2320     Total:     0.2910

  Dipole Moment: [D]
     X:     0.4296      Y:    -0.1221      Z:     0.5898     Total:     0.7398

*** tstop() called on ds3 at Tue Apr 28 11:54:44 2020
Module time:
	user time   =     313.37 seconds =       5.22 minutes
	system time =     111.55 seconds =       1.86 minutes
	total time  =        471 seconds =       7.85 minutes
Total time:
	user time   =     313.37 seconds =       5.22 minutes
	system time =     111.55 seconds =       1.86 minutes
	total time  =        471 seconds =       7.85 minutes
                                     G D M A

                                 by Anthony Stone

                           version 2.2.06, 22 June 2011

               Distributed Multipoles from Gaussian wavefunctions

Starting at 11:54:44 on 28 Apr 2020

Using SCF density matrix from file ./SSI/SSI-138PHE-153PHE-1-dimer.test.1169.fchk

                         Distributed Multipole Analysis

Standard DMA

Positions and radii in angstrom
Multipole moments in atomic units, ea_0^k for rank k

C          x = -3.908191  y = -2.823124  z = -0.318299 angstrom
           Maximum rank =  0   Radius =  0.650 angstrom
                   Q00  =  -0.207852

C          x = -1.024191  y = -0.311124  z = -0.203299 angstrom
           Maximum rank =  0   Radius =  0.650 angstrom
                   Q00  =  -0.072945

C          x = -1.975191  y = -1.261124  z =  0.190701 angstrom
           Maximum rank =  0   Radius =  0.650 angstrom
                   Q00  =  -0.033354

C          x = -0.953191  y =  0.095876  z = -1.524299 angstrom
           Maximum rank =  0   Radius =  0.650 angstrom
                   Q00  =  -0.081054

C          x = -2.887191  y = -1.782124  z = -0.729299 angstrom
           Maximum rank =  0   Radius =  0.650 angstrom
                   Q00  =  -0.103984

C          x = -1.842191  y = -0.435124  z = -2.450299 angstrom
           Maximum rank =  0   Radius =  0.650 angstrom
                   Q00  =  -0.014346

C          x = -2.796191  y = -1.375124  z = -2.057299 angstrom
           Maximum rank =  0   Radius =  0.650 angstrom
                   Q00  =  -0.089887

H          x = -0.332191  y =  0.092876  z =  0.520701 angstrom
           Maximum rank =  0   Radius =  0.325 angstrom
                   Q00  =   0.075846

H          x = -1.992191  y = -1.586124  z =  1.220701 angstrom
           Maximum rank =  0   Radius =  0.325 angstrom
                   Q00  =   0.048445

H          x = -0.207191  y =  0.815876  z = -1.829299 angstrom
           Maximum rank =  0   Radius =  0.325 angstrom
                   Q00  =   0.062514

H          x = -1.790191  y = -0.118124  z = -3.483299 angstrom
           Maximum rank =  0   Radius =  0.325 angstrom
                   Q00  =   0.059707

H          x = -3.397191  y = -3.595124  z =  0.256701 angstrom
           Maximum rank =  0   Radius =  0.325 angstrom
                   Q00  =   0.097790

H          x = -4.305191  y = -3.309124  z = -1.210299 angstrom
           Maximum rank =  0   Radius =  0.325 angstrom
                   Q00  =   0.096067

H          x = -3.479191  y = -1.778124  z = -2.791299 angstrom
           Maximum rank =  0   Radius =  0.325 angstrom
                   Q00  =   0.055297

H          x = -4.750095  y = -2.448234  z =  0.282245 angstrom
           Maximum rank =  0   Radius =  0.325 angstrom
                   Q00  =   0.103715

C          x =  1.883809  y =  0.096876  z =  3.174701 angstrom
           Maximum rank =  0   Radius =  0.650 angstrom
                   Q00  =  -0.211011

C          x =  2.071809  y =  0.756876  z =  1.840701 angstrom
           Maximum rank =  0   Radius =  0.650 angstrom
                   Q00  =  -0.099528

C          x =  1.632809  y =  2.050876  z =  1.602701 angstrom
           Maximum rank =  0   Radius =  0.650 angstrom
                   Q00  =  -0.084539

C          x =  2.728809  y =  0.068876  z =  0.821701 angstrom
           Maximum rank =  0   Radius =  0.650 angstrom
                   Q00  =   0.007603

C          x =  1.841809  y =  2.650876  z =  0.360701 angstrom
           Maximum rank =  0   Radius =  0.650 angstrom
                   Q00  =  -0.057775

C          x =  2.945809  y =  0.666876  z = -0.420299 angstrom
           Maximum rank =  0   Radius =  0.650 angstrom
                   Q00  =  -0.063540

C          x =  2.500809  y =  1.954876  z = -0.649299 angstrom
           Maximum rank =  0   Radius =  0.650 angstrom
                   Q00  =  -0.102322

H          x =  2.875809  y =  0.010876  z =  3.621701 angstrom
           Maximum rank =  0   Radius =  0.325 angstrom
                   Q00  =   0.102557

H          x =  1.509809  y = -0.917124  z =  3.022701 angstrom
           Maximum rank =  0   Radius =  0.325 angstrom
                   Q00  =   0.099822

H          x =  1.130809  y =  2.640876  z =  2.346701 angstrom
           Maximum rank =  0   Radius =  0.325 angstrom
                   Q00  =   0.057053

H          x =  3.094809  y = -0.933124  z =  0.998701 angstrom
           Maximum rank =  0   Radius =  0.325 angstrom
                   Q00  =   0.057137

H          x =  1.523809  y =  3.670876  z =  0.192701 angstrom
           Maximum rank =  0   Radius =  0.325 angstrom
                   Q00  =   0.066976

H          x =  3.516809  y =  0.146876  z = -1.168299 angstrom
           Maximum rank =  0   Radius =  0.325 angstrom
                   Q00  =   0.067432

H          x =  2.754809  y =  2.458876  z = -1.565299 angstrom
           Maximum rank =  0   Radius =  0.325 angstrom
                   Q00  =   0.061767

H          x =  1.235320  y =  0.629876  z =  3.885601 angstrom
           Maximum rank =  0   Radius =  0.325 angstrom
                   Q00  =   0.102407

Total multipoles referred to origin at
           x =   0.000000,  y =    0.000000,  z =    0.000000 angstrom
                   Q00  =  -0.000000

Finished at 11:54:44 on 28 Apr 2020

  DMA results are available in the Python driver through the
	  variable('DMA DISTRIBUTED MULTIPOLES')
  and
	  variable('DMA TOTAL MULTIPOLES')
  commands.

    Psi4 stopped on: Tuesday, 28 April 2020 11:54AM
    Psi4 wall time for execution: 0:07:50.59

*** Psi4 exiting successfully. Buy a developer a beer!
