                               Psi4 1.3.2 release

  ==> Input File <==

--------------------------------------------------------------------------
import numpy as np
set {scf_type pk
basis cc-pvdz
d_convergence 10
gdma_switch   0
gdma_limit    0
gdma_origin   [ 0.0,  0.0,  0.0 ]
}
molecule test {
    units Angstrom
    0 1
    --
    0 1
    C               -2.482816272320236    -1.252915870514113     2.023072742680778
    C               -0.169816272320236    -0.564915870514113    -0.920927257319222
    C               -0.481816272320236     0.765084129485888    -1.212927257319222
    C               -0.796816272320236    -1.223915870514112     0.125072742680778
    C               -1.778816272320236    -0.560915870514113     0.879072742680778
    C               -1.443816272320236     1.449084129485888    -0.461927257319222
    C               -2.088816272320236     0.774084129485887     0.589072742680778
    H                0.584183727679764    -1.079915870514113    -1.495927257319222
    H                0.034183727679764     1.253084129485887    -2.024927257319222
    H               -0.539816272320236    -2.251915870514113     0.343072742680778
    H               -1.692816272320236     2.478084129485887    -0.681927257319222
    H               -2.410816272320236    -0.637915870514112     2.922072742680778
    H               -1.966816272320236    -2.188915870514113     2.229072742680778
    H               -2.838816272320236     1.289084129485888     1.171072742680779
    H               -3.546240272320236    -1.450031870514112     1.822382742680779
    C                3.562183727679764     0.349084129485888    -1.118927257319221
    C                4.653183727679765     0.320084129485887     0.015072742680778
    H                3.798183727679764     1.127084129485888    -1.845927257319221
    H                3.517183727679764    -0.612915870514112    -1.627927257319221
    H                2.574183727679765     0.539084129485887    -0.700927257319222
    H                4.379183727679764    -0.449915870514112     0.731072742680778
    H                4.706293727679764     1.274734129485888     0.558972742680778
    H                5.634363727679764     0.058388129485888    -0.407777257319222

}
e, wfn = energy('scf', return_wfn=True)
gdma(wfn)
dmavals = variable('DMA DISTRIBUTED MULTIPOLES')
charges = np.array(dmavals)
print(charges)
np.save('SSI-109PHE-181ILE-1-dimer.npy', np.array(charges))--------------------------------------------------------------------------

*** tstart() called on ds3
*** at Tue Apr 28 11:50:21 2020

   => Loading Basis Set <=

    Name: CC-PVDZ
    Role: ORBITAL
    Keyword: BASIS
    atoms 1-7, 16-17  entry C          line   138 file /theoryfs2/ds/metcalf/miniconda2/envs/tf2gpu/share/psi4/basis/cc-pvdz.gbs
    atoms 8-15, 18-23 entry H          line    22 file /theoryfs2/ds/metcalf/miniconda2/envs/tf2gpu/share/psi4/basis/cc-pvdz.gbs

         ---------------------------------------------------------
                                   SCF
               by Justin Turney, Rob Parrish, Andy Simmonett
                          and Daniel G. A. Smith
                              RHF Reference
                        1 Threads,    500 MiB Core
         ---------------------------------------------------------

  ==> Geometry <==

    Molecular point group: c1
    Full point group: C1

    Geometry (in Angstrom), charge = 0, multiplicity = 1:

       Center              X                  Y                   Z               Mass
    ------------   -----------------  -----------------  -----------------  -----------------
         C           -2.482816272320    -1.252915870514     2.023072742681    12.000000000000
         C           -0.169816272320    -0.564915870514    -0.920927257319    12.000000000000
         C           -0.481816272320     0.765084129486    -1.212927257319    12.000000000000
         C           -0.796816272320    -1.223915870514     0.125072742681    12.000000000000
         C           -1.778816272320    -0.560915870514     0.879072742681    12.000000000000
         C           -1.443816272320     1.449084129486    -0.461927257319    12.000000000000
         C           -2.088816272320     0.774084129486     0.589072742681    12.000000000000
         H            0.584183727680    -1.079915870514    -1.495927257319     1.007825032230
         H            0.034183727680     1.253084129486    -2.024927257319     1.007825032230
         H           -0.539816272320    -2.251915870514     0.343072742681     1.007825032230
         H           -1.692816272320     2.478084129486    -0.681927257319     1.007825032230
         H           -2.410816272320    -0.637915870514     2.922072742681     1.007825032230
         H           -1.966816272320    -2.188915870514     2.229072742681     1.007825032230
         H           -2.838816272320     1.289084129486     1.171072742681     1.007825032230
         H           -3.546240272320    -1.450031870514     1.822382742681     1.007825032230
         C            3.562183727680     0.349084129486    -1.118927257319    12.000000000000
         C            4.653183727680     0.320084129486     0.015072742681    12.000000000000
         H            3.798183727680     1.127084129486    -1.845927257319     1.007825032230
         H            3.517183727680    -0.612915870514    -1.627927257319     1.007825032230
         H            2.574183727680     0.539084129486    -0.700927257319     1.007825032230
         H            4.379183727680    -0.449915870514     0.731072742681     1.007825032230
         H            4.706293727680     1.274734129486     0.558972742681     1.007825032230
         H            5.634363727680     0.058388129486    -0.407777257319     1.007825032230

  Running in c1 symmetry.

  Rotational constants: A =      0.08066  B =      0.01968  C =      0.01773 [cm^-1]
  Rotational constants: A =   2418.11664  B =    590.09163  C =    531.57816 [MHz]
  Nuclear repulsion =  396.715632467916919

  Charge       = 0
  Multiplicity = 1
  Electrons    = 68
  Nalpha       = 34
  Nbeta        = 34

  ==> Algorithm <==

  SCF Algorithm Type is PK.
  DIIS enabled.
  MOM disabled.
  Fractional occupation disabled.
  Guess Type is SAD.
  Energy threshold   = 1.00e-06
  Density threshold  = 1.00e-10
  Integral threshold = 0.00e+00

  ==> Primary Basis <==

  Basis Set: CC-PVDZ
    Blend: CC-PVDZ
    Number of shells: 96
    Number of basis function: 196
    Number of Cartesian functions: 205
    Spherical Harmonics?: true
    Max angular momentum: 2

  ==> Pre-Iterations <==

   -------------------------------------------------------
    Irrep   Nso     Nmo     Nalpha   Nbeta   Ndocc  Nsocc
   -------------------------------------------------------
     A        196     196       0       0       0       0
   -------------------------------------------------------
    Total     196     196      34      34      34       0
   -------------------------------------------------------

  ==> Integral Setup <==

  Using integral reordering PK algorithm.
  Sizing the integral batches needed.
  Building batch lookup table.
   Calculation information:
      Number of atoms:                  23
      Number of AO shells:              96
      Number of primitives:            268
      Number of atomic orbitals:       205
      Number of basis functions:       196

      Integral cutoff                 1.00e-12
      Number of threads:                 1

	Batch   1 pq = [       0,    9405] index = [             0,44231715] size =     44231715
	Batch   2 pq = [    9405,   13301] index = [      44231715,88464951] size =     44233236
	Batch   3 pq = [   13301,   16290] index = [      88464951,132690195] size =     44225244
	Batch   4 pq = [   16290,   18810] index = [     132690195,176917455] size =     44227260
	Batch   5 pq = [   18810,   19306] index = [     176917455,186370471] size =      9453016
  Task number: 17
  Buffer size: 11059200
  Buffer per thread: 2
  We computed 8524348 shell quartets total.
  Whereas there are 10841496 unique shell quartets.

  ==> DiskJK: Disk-Based J/K Matrices <==

    J tasked:                  Yes
    K tasked:                  Yes
    wK tasked:                  No
    Memory [MiB]:              375
    Schwarz Cutoff:          1E-12

    OpenMP threads:              1

  Minimum eigenvalue in the overlap matrix is 3.2657221355E-04.
  Using Symmetric Orthogonalization.

  SCF Guess: Superposition of Atomic Densities via on-the-fly atomic UHF.

  ==> Iterations <==

                        Total Energy        Delta E     RMS |[F,P]|

   @RHF iter SAD:  -347.71168427628919   -3.47712e+02   0.00000e+00
   @RHF iter   1:  -348.77376891042053   -1.06208e+00   2.83899e-03 DIIS
   @RHF iter   2:  -348.96124379426533   -1.87475e-01   1.16328e-03 DIIS
   @RHF iter   3:  -348.98975449800719   -2.85107e-02   2.55435e-04 DIIS
   @RHF iter   4:  -348.99217098019551   -2.41648e-03   5.31902e-05 DIIS
   @RHF iter   5:  -348.99224451837841   -7.35382e-05   1.81452e-05 DIIS
   @RHF iter   6:  -348.99225250826044   -7.98988e-06   4.73755e-06 DIIS
   @RHF iter   7:  -348.99225314485750   -6.36597e-07   1.22868e-06 DIIS
   @RHF iter   8:  -348.99225319077891   -4.59214e-08   2.72231e-07 DIIS
   @RHF iter   9:  -348.99225319444565   -3.66674e-09   1.02471e-07 DIIS
   @RHF iter  10:  -348.99225319496333   -5.17673e-10   4.10145e-08 DIIS
   @RHF iter  11:  -348.99225319511231   -1.48987e-10   1.65474e-08 DIIS
   @RHF iter  12:  -348.99225319513920   -2.68869e-11   8.75254e-09 DIIS
   @RHF iter  13:  -348.99225319514585   -6.65068e-12   3.67628e-09 DIIS
   @RHF iter  14:  -348.99225319514818   -2.33058e-12   1.10000e-09 DIIS
   @RHF iter  15:  -348.99225319514949   -1.30740e-12   3.42258e-10 DIIS
   @RHF iter  16:  -348.99225319515079   -1.30740e-12   9.44240e-11 DIIS
  Energy and wave function converged.

  ==> Post-Iterations <==

    Orbital Energies [Eh]
    ---------------------

    Doubly Occupied:

       1A    -11.243267     2A    -11.239278     3A    -11.235062
       4A    -11.232664     5A    -11.232584     6A    -11.232126
       7A    -11.229766     8A    -11.220249     9A    -11.217101
      10A     -1.148853    11A     -1.041419    12A     -1.011215
      13A     -1.004352    14A     -0.929547    15A     -0.839790
      16A     -0.823465    17A     -0.795036    18A     -0.689622
      19A     -0.632088    20A     -0.628751    21A     -0.590205
      22A     -0.588812    23A     -0.583760    24A     -0.574664
      25A     -0.560425    26A     -0.535874    27A     -0.493161
      28A     -0.490203    29A     -0.485453    30A     -0.484938
      31A     -0.481044    32A     -0.480624    33A     -0.332248
      34A     -0.319683

    Virtual:

      35A      0.133969    36A      0.139366    37A      0.176875
      38A      0.192085    39A      0.203476    40A      0.215152
      41A      0.232974    42A      0.240488    43A      0.259155
      44A      0.264360    45A      0.269237    46A      0.276449
      47A      0.280030    48A      0.285948    49A      0.300113
      50A      0.315395    51A      0.362828    52A      0.374532
      53A      0.385440    54A      0.450780    55A      0.458965
      56A      0.475370    57A      0.496823    58A      0.564226
      59A      0.591116    60A      0.592915    61A      0.595633
      62A      0.628381    63A      0.631912    64A      0.666136
      65A      0.681352    66A      0.691548    67A      0.700227
      68A      0.708524    69A      0.724735    70A      0.737761
      71A      0.739176    72A      0.746301    73A      0.759145
      74A      0.766480    75A      0.778882    76A      0.800872
      77A      0.823881    78A      0.851286    79A      0.857977
      80A      0.868226    81A      0.871373    82A      0.886351
      83A      0.893026    84A      0.895587    85A      0.896035
      86A      0.897489    87A      0.909521    88A      0.916854
      89A      0.924341    90A      0.931963    91A      0.942084
      92A      0.952177    93A      0.982853    94A      0.999369
      95A      1.024467    96A      1.061311    97A      1.110984
      98A      1.127412    99A      1.133983   100A      1.141531
     101A      1.156854   102A      1.165362   103A      1.194759
     104A      1.223621   105A      1.236835   106A      1.246242
     107A      1.249240   108A      1.267551   109A      1.295998
     110A      1.304844   111A      1.314760   112A      1.321566
     113A      1.414845   114A      1.460838   115A      1.469595
     116A      1.499998   117A      1.522969   118A      1.549048
     119A      1.581997   120A      1.603065   121A      1.682322
     122A      1.687061   123A      1.692134   124A      1.699444
     125A      1.732471   126A      1.746296   127A      1.758597
     128A      1.789390   129A      1.808257   130A      1.850980
     131A      1.858960   132A      1.877689   133A      1.879668
     134A      1.889601   135A      1.898053   136A      1.903273
     137A      1.916594   138A      1.918938   139A      1.933733
     140A      1.937584   141A      1.940517   142A      1.945149
     143A      1.946471   144A      1.950203   145A      1.968027
     146A      1.977800   147A      1.981869   148A      2.009912
     149A      2.034745   150A      2.041837   151A      2.074487
     152A      2.082817   153A      2.103918   154A      2.111842
     155A      2.128943   156A      2.151516   157A      2.158782
     158A      2.166172   159A      2.193985   160A      2.241234
     161A      2.267230   162A      2.285738   163A      2.293992
     164A      2.298353   165A      2.312242   166A      2.323116
     167A      2.347083   168A      2.440525   169A      2.452436
     170A      2.465196   171A      2.466818   172A      2.514766
     173A      2.527237   174A      2.546801   175A      2.568921
     176A      2.624388   177A      2.725079   178A      2.747626
     179A      2.762977   180A      2.770961   181A      2.783505
     182A      2.788987   183A      2.805321   184A      2.844996
     185A      2.849352   186A      2.857839   187A      2.862706
     188A      2.944910   189A      2.952389   190A      2.975487
     191A      2.992950   192A      3.027133   193A      3.145416
     194A      3.190975   195A      3.287500   196A      3.947930

    Final Occupation by Irrep:
              A
    DOCC [    34 ]

  @RHF Final Energy:  -348.99225319515079

   => Energetics <=

    Nuclear Repulsion Energy =            396.7156324679169188
    One-Electron Energy =               -1256.1611138114756159
    Two-Electron Energy =                 510.4532281484078453
    Total Energy =                       -348.9922531951507949

Computation Completed

Properties will be evaluated at   0.000000,   0.000000,   0.000000 [a0]

Properties computed using the SCF density matrix

  Nuclear Dipole Moment: [e a0]
     X:    11.4675      Y:    -0.6112      Z:     0.9303

  Electronic Dipole Moment: [e a0]
     X:   -11.5809      Y:     0.5599      Z:    -0.8090

  Dipole Moment: [e a0]
     X:    -0.1133      Y:    -0.0513      Z:     0.1214     Total:     0.1738

  Dipole Moment: [D]
     X:    -0.2881      Y:    -0.1304      Z:     0.3085     Total:     0.4417

*** tstop() called on ds3 at Tue Apr 28 11:51:45 2020
Module time:
	user time   =      60.43 seconds =       1.01 minutes
	system time =      27.88 seconds =       0.46 minutes
	total time  =         84 seconds =       1.40 minutes
Total time:
	user time   =      60.43 seconds =       1.01 minutes
	system time =      27.88 seconds =       0.46 minutes
	total time  =         84 seconds =       1.40 minutes
                                     G D M A

                                 by Anthony Stone

                           version 2.2.06, 22 June 2011

               Distributed Multipoles from Gaussian wavefunctions

Starting at 11:51:45 on 28 Apr 2020

Using SCF density matrix from file ./SSI/SSI-109PHE-181ILE-1-dimer.test.6594.fchk

                         Distributed Multipole Analysis

Standard DMA

Positions and radii in angstrom
Multipole moments in atomic units, ea_0^k for rank k

C          x = -2.482816  y = -1.252916  z =  2.023073 angstrom
           Maximum rank =  0   Radius =  0.650 angstrom
                   Q00  =  -0.205786

C          x = -0.169816  y = -0.564916  z = -0.920927 angstrom
           Maximum rank =  0   Radius =  0.650 angstrom
                   Q00  =  -0.019915

C          x = -0.481816  y =  0.765084  z = -1.212927 angstrom
           Maximum rank =  0   Radius =  0.650 angstrom
                   Q00  =  -0.061631

C          x = -0.796816  y = -1.223916  z =  0.125073 angstrom
           Maximum rank =  0   Radius =  0.650 angstrom
                   Q00  =  -0.077195

C          x = -1.778816  y = -0.560916  z =  0.879073 angstrom
           Maximum rank =  0   Radius =  0.650 angstrom
                   Q00  =  -0.099268

C          x = -1.443816  y =  1.449084  z = -0.461927 angstrom
           Maximum rank =  0   Radius =  0.650 angstrom
                   Q00  =  -0.074992

C          x = -2.088816  y =  0.774084  z =  0.589073 angstrom
           Maximum rank =  0   Radius =  0.650 angstrom
                   Q00  =  -0.077720

H          x =  0.584184  y = -1.079916  z = -1.495927 angstrom
           Maximum rank =  0   Radius =  0.325 angstrom
                   Q00  =   0.066366

H          x =  0.034184  y =  1.253084  z = -2.024927 angstrom
           Maximum rank =  0   Radius =  0.325 angstrom
                   Q00  =   0.062805

H          x = -0.539816  y = -2.251916  z =  0.343073 angstrom
           Maximum rank =  0   Radius =  0.325 angstrom
                   Q00  =   0.060618

H          x = -1.692816  y =  2.478084  z = -0.681927 angstrom
           Maximum rank =  0   Radius =  0.325 angstrom
                   Q00  =   0.068913

H          x = -2.410816  y = -0.637916  z =  2.922073 angstrom
           Maximum rank =  0   Radius =  0.325 angstrom
                   Q00  =   0.099713

H          x = -1.966816  y = -2.188916  z =  2.229073 angstrom
           Maximum rank =  0   Radius =  0.325 angstrom
                   Q00  =   0.096699

H          x = -2.838816  y =  1.289084  z =  1.171073 angstrom
           Maximum rank =  0   Radius =  0.325 angstrom
                   Q00  =   0.057202

H          x = -3.546240  y = -1.450032  z =  1.822383 angstrom
           Maximum rank =  0   Radius =  0.325 angstrom
                   Q00  =   0.104029

C          x =  3.562184  y =  0.349084  z = -1.118927 angstrom
           Maximum rank =  0   Radius =  0.650 angstrom
                   Q00  =  -0.263873

C          x =  4.653184  y =  0.320084  z =  0.015073 angstrom
           Maximum rank =  0   Radius =  0.650 angstrom
                   Q00  =  -0.239091

H          x =  3.798184  y =  1.127084  z = -1.845927 angstrom
           Maximum rank =  0   Radius =  0.325 angstrom
                   Q00  =   0.080496

H          x =  3.517184  y = -0.612916  z = -1.627927 angstrom
           Maximum rank =  0   Radius =  0.325 angstrom
                   Q00  =   0.078833

H          x =  2.574184  y =  0.539084  z = -0.700927 angstrom
           Maximum rank =  0   Radius =  0.325 angstrom
                   Q00  =   0.095685

H          x =  4.379184  y = -0.449916  z =  0.731073 angstrom
           Maximum rank =  0   Radius =  0.325 angstrom
                   Q00  =   0.081794

H          x =  4.706294  y =  1.274734  z =  0.558973 angstrom
           Maximum rank =  0   Radius =  0.325 angstrom
                   Q00  =   0.085462

H          x =  5.634364  y =  0.058388  z = -0.407777 angstrom
           Maximum rank =  0   Radius =  0.325 angstrom
                   Q00  =   0.080855

Total multipoles referred to origin at
           x =   0.000000,  y =    0.000000,  z =    0.000000 angstrom
                   Q00  =  -0.000000

Finished at 11:51:45 on 28 Apr 2020

  DMA results are available in the Python driver through the
	  variable('DMA DISTRIBUTED MULTIPOLES')
  and
	  variable('DMA TOTAL MULTIPOLES')
  commands.

    Psi4 stopped on: Tuesday, 28 April 2020 11:51AM
    Psi4 wall time for execution: 0:01:24.06

*** Psi4 exiting successfully. Buy a developer a beer!
