                               Psi4 1.3.2 release

  ==> Input File <==

--------------------------------------------------------------------------
import numpy as np
set {scf_type pk
basis cc-pvdz
d_convergence 10
gdma_switch   0
gdma_limit    0
gdma_origin   [ 0.0,  0.0,  0.0 ]
}
molecule test {
    units Angstrom
    0 1
    --
    0 1
    C               -1.753609492294248    -1.324882056033512    -0.828612933147312
    C               -2.494609492294248    -2.179882056033511     0.206387066852688
    H               -1.098609492294248    -0.623882056033511    -0.319612933147312
    H               -1.168609492294248    -1.937882056033511    -1.510612933147312
    H               -2.449609492294249    -0.772882056033512    -1.460612933147312
    H               -3.194609492294249    -2.816882056033511    -0.328612933147312
    H               -3.045219492294248    -1.545551056033512     0.916639066852688
    H               -1.771659492294248    -2.820355056033512     0.732823066852688
    C                1.184390507705752     0.806117943966489    -0.204612933147312
    C                0.756390507705752     1.030117943966488     1.225387066852688
    C                2.377390507705752     1.721117943966488    -0.404612933147312
    H                0.384390507705752     1.049117943966489    -0.905612933147312
    H                1.497390507705752    -0.230882056033511    -0.331612933147312
    H                0.120390507705752     1.914117943966489     1.300387066852688
    H                0.228390507705752     0.142117943966489     1.563387066852688
    H                2.032390507705752     2.671117943966488    -0.817612933147312
    H                3.098390507705752     1.270117943966489    -1.088612933147312
    H                1.717700507705752     1.212901943966488     1.727855066852688
    H                2.816360507705752     1.862647943966488     0.594023066852688

}
e, wfn = energy('scf', return_wfn=True)
gdma(wfn)
dmavals = variable('DMA DISTRIBUTED MULTIPOLES')
charges = np.array(dmavals)
print(charges)
np.save('SSI-023ILE-060PRO-1-dimer.npy', np.array(charges))--------------------------------------------------------------------------

*** tstart() called on ds3
*** at Tue Apr 28 14:32:39 2020

   => Loading Basis Set <=

    Name: CC-PVDZ
    Role: ORBITAL
    Keyword: BASIS
    atoms 1-2, 9-11  entry C          line   138 file /theoryfs2/ds/metcalf/miniconda2/envs/tf2gpu/share/psi4/basis/cc-pvdz.gbs
    atoms 3-8, 12-19 entry H          line    22 file /theoryfs2/ds/metcalf/miniconda2/envs/tf2gpu/share/psi4/basis/cc-pvdz.gbs

         ---------------------------------------------------------
                                   SCF
               by Justin Turney, Rob Parrish, Andy Simmonett
                          and Daniel G. A. Smith
                              RHF Reference
                        1 Threads,    500 MiB Core
         ---------------------------------------------------------

  ==> Geometry <==

    Molecular point group: c1
    Full point group: C1

    Geometry (in Angstrom), charge = 0, multiplicity = 1:

       Center              X                  Y                   Z               Mass
    ------------   -----------------  -----------------  -----------------  -----------------
         C           -1.753609492294    -1.324882056034    -0.828612933147    12.000000000000
         C           -2.494609492294    -2.179882056034     0.206387066853    12.000000000000
         H           -1.098609492294    -0.623882056034    -0.319612933147     1.007825032230
         H           -1.168609492294    -1.937882056034    -1.510612933147     1.007825032230
         H           -2.449609492294    -0.772882056034    -1.460612933147     1.007825032230
         H           -3.194609492294    -2.816882056034    -0.328612933147     1.007825032230
         H           -3.045219492294    -1.545551056034     0.916639066853     1.007825032230
         H           -1.771659492294    -2.820355056034     0.732823066853     1.007825032230
         C            1.184390507706     0.806117943966    -0.204612933147    12.000000000000
         C            0.756390507706     1.030117943966     1.225387066853    12.000000000000
         C            2.377390507706     1.721117943966    -0.404612933147    12.000000000000
         H            0.384390507706     1.049117943966    -0.905612933147     1.007825032230
         H            1.497390507706    -0.230882056034    -0.331612933147     1.007825032230
         H            0.120390507706     1.914117943966     1.300387066853     1.007825032230
         H            0.228390507706     0.142117943966     1.563387066853     1.007825032230
         H            2.032390507706     2.671117943966    -0.817612933147     1.007825032230
         H            3.098390507706     1.270117943966    -1.088612933147     1.007825032230
         H            1.717700507706     1.212901943966     1.727855066853     1.007825032230
         H            2.816360507706     1.862647943966     0.594023066853     1.007825032230

  Running in c1 symmetry.

  Rotational constants: A =      0.30452  B =      0.03852  C =      0.03557 [cm^-1]
  Rotational constants: A =   9129.41087  B =   1154.79137  C =   1066.28691 [MHz]
  Nuclear repulsion =  179.820236643894731

  Charge       = 0
  Multiplicity = 1
  Electrons    = 44
  Nalpha       = 22
  Nbeta        = 22

  ==> Algorithm <==

  SCF Algorithm Type is PK.
  DIIS enabled.
  MOM disabled.
  Fractional occupation disabled.
  Guess Type is SAD.
  Energy threshold   = 1.00e-06
  Density threshold  = 1.00e-10
  Integral threshold = 0.00e+00

  ==> Primary Basis <==

  Basis Set: CC-PVDZ
    Blend: CC-PVDZ
    Number of shells: 72
    Number of basis function: 140
    Number of Cartesian functions: 145
    Spherical Harmonics?: true
    Max angular momentum: 2

  ==> Pre-Iterations <==

   -------------------------------------------------------
    Irrep   Nso     Nmo     Nalpha   Nbeta   Ndocc  Nsocc
   -------------------------------------------------------
     A        140     140       0       0       0       0
   -------------------------------------------------------
    Total     140     140      22      22      22       0
   -------------------------------------------------------

  ==> Integral Setup <==

  Using integral reordering PK algorithm.
  Sizing the integral batches needed.
  Building batch lookup table.
   Calculation information:
      Number of atoms:                  19
      Number of AO shells:              72
      Number of primitives:            180
      Number of atomic orbitals:       145
      Number of basis functions:       140

      Integral cutoff                 1.00e-12
      Number of threads:                 1

	Batch   1 pq = [       0,    9405] index = [             0,44231715] size =     44231715
	Batch   2 pq = [    9405,    9870] index = [      44231715,48713385] size =      4481670
  Task number: 5
  Buffer size: 11059200
  Buffer per thread: 2
  We computed 2875428 shell quartets total.
  Whereas there are 3454506 unique shell quartets.

  ==> DiskJK: Disk-Based J/K Matrices <==

    J tasked:                  Yes
    K tasked:                  Yes
    wK tasked:                  No
    Memory [MiB]:              375
    Schwarz Cutoff:          1E-12

    OpenMP threads:              1

  Minimum eigenvalue in the overlap matrix is 4.4375568597E-03.
  Using Symmetric Orthogonalization.

  SCF Guess: Superposition of Atomic Densities via on-the-fly atomic UHF.

  ==> Iterations <==

                        Total Energy        Delta E     RMS |[F,P]|

   @RHF iter SAD:  -196.52871248090028   -1.96529e+02   0.00000e+00
   @RHF iter   1:  -197.28886855440450   -7.60156e-01   3.85977e-03 DIIS
   @RHF iter   2:  -197.45138109737724   -1.62513e-01   1.67420e-03 DIIS
   @RHF iter   3:  -197.48083052699891   -2.94494e-02   3.30239e-04 DIIS
   @RHF iter   4:  -197.48306951364242   -2.23899e-03   5.09365e-05 DIIS
   @RHF iter   5:  -197.48311186283649   -4.23492e-05   1.56603e-05 DIIS
   @RHF iter   6:  -197.48311568634176   -3.82351e-06   2.64147e-06 DIIS
   @RHF iter   7:  -197.48311581595561   -1.29614e-07   4.79196e-07 DIIS
   @RHF iter   8:  -197.48311582061902   -4.66341e-09   1.08269e-07 DIIS
   @RHF iter   9:  -197.48311582084926   -2.30244e-10   3.36739e-08 DIIS
   @RHF iter  10:  -197.48311582087325   -2.39879e-11   7.58880e-09 DIIS
   @RHF iter  11:  -197.48311582087462   -1.36424e-12   1.51983e-09 DIIS
   @RHF iter  12:  -197.48311582087456    5.68434e-14   3.15471e-10 DIIS
   @RHF iter  13:  -197.48311582087427    2.84217e-13   5.54663e-11 DIIS
  Energy and wave function converged.

  ==> Post-Iterations <==

    Orbital Energies [Eh]
    ---------------------

    Doubly Occupied:

       1A    -11.219558     2A    -11.214549     3A    -11.213520
       4A    -11.212638     5A    -11.212051     6A     -1.068344
       7A     -1.016617     8A     -0.916615     9A     -0.838093
      10A     -0.796281    11A     -0.637782    12A     -0.616909
      13A     -0.598064    14A     -0.593794    15A     -0.543954
      16A     -0.516904    17A     -0.501356    18A     -0.490080
      19A     -0.484050    20A     -0.475587    21A     -0.466440
      22A     -0.458400

    Virtual:

      23A      0.171076    24A      0.196247    25A      0.218569
      26A      0.221640    27A      0.239608    28A      0.241722
      29A      0.256865    30A      0.267554    31A      0.282157
      32A      0.288535    33A      0.291901    34A      0.303766
      35A      0.326705    36A      0.348457    37A      0.396825
      38A      0.399719    39A      0.440844    40A      0.558753
      41A      0.579522    42A      0.601968    43A      0.609346
      44A      0.617191    45A      0.639079    46A      0.656948
      47A      0.675533    48A      0.706395    49A      0.754256
      50A      0.781159    51A      0.807156    52A      0.846742
      53A      0.856950    54A      0.876838    55A      0.888383
      56A      0.890403    57A      0.893201    58A      0.896625
      59A      0.900980    60A      0.910995    61A      0.918324
      62A      0.927862    63A      0.933305    64A      0.935405
      65A      0.959462    66A      0.972297    67A      0.992144
      68A      1.062484    69A      1.080633    70A      1.109547
      71A      1.127912    72A      1.136848    73A      1.190861
      74A      1.309380    75A      1.419837    76A      1.466576
      77A      1.472257    78A      1.483679    79A      1.500371
      80A      1.597456    81A      1.620703    82A      1.628017
      83A      1.639994    84A      1.679733    85A      1.699085
      86A      1.720743    87A      1.734663    88A      1.796585
      89A      1.860578    90A      1.872031    91A      1.877136
      92A      1.885780    93A      1.903040    94A      1.907403
      95A      1.920825    96A      1.934314    97A      1.940087
      98A      1.944139    99A      1.955522   100A      1.956897
     101A      1.960937   102A      1.984427   103A      1.997618
     104A      2.024697   105A      2.035583   106A      2.067212
     107A      2.096747   108A      2.109346   109A      2.157156
     110A      2.167824   111A      2.225159   112A      2.233429
     113A      2.292143   114A      2.314416   115A      2.330698
     116A      2.357382   117A      2.433964   118A      2.452987
     119A      2.461332   120A      2.470554   121A      2.503605
     122A      2.555018   123A      2.560914   124A      2.595289
     125A      2.646070   126A      2.697701   127A      2.753439
     128A      2.766736   129A      2.783965   130A      2.802635
     131A      2.812999   132A      2.832250   133A      2.848809
     134A      2.868289   135A      2.875511   136A      2.918433
     137A      2.945210   138A      2.962601   139A      2.998208
     140A      3.054133

    Final Occupation by Irrep:
              A
    DOCC [    22 ]

  @RHF Final Energy:  -197.48311582087427

   => Energetics <=

    Nuclear Repulsion Energy =            179.8202366438947308
    One-Electron Energy =                -620.4235293906908737
    Two-Electron Energy =                 243.1201769259218395
    Total Energy =                       -197.4831158208742750

Computation Completed

Properties will be evaluated at   0.000000,   0.000000,   0.000000 [a0]

Properties computed using the SCF density matrix

  Nuclear Dipole Moment: [e a0]
     X:    -0.7808      Y:    -0.5870      Z:     0.0677

  Electronic Dipole Moment: [e a0]
     X:     0.7723      Y:     0.5793      Z:    -0.1201

  Dipole Moment: [e a0]
     X:    -0.0085      Y:    -0.0077      Z:    -0.0524     Total:     0.0537

  Dipole Moment: [D]
     X:    -0.0217      Y:    -0.0196      Z:    -0.1333     Total:     0.1365

*** tstop() called on ds3 at Tue Apr 28 14:33:18 2020
Module time:
	user time   =      14.95 seconds =       0.25 minutes
	system time =       5.56 seconds =       0.09 minutes
	total time  =         39 seconds =       0.65 minutes
Total time:
	user time   =      14.95 seconds =       0.25 minutes
	system time =       5.56 seconds =       0.09 minutes
	total time  =         39 seconds =       0.65 minutes
                                     G D M A

                                 by Anthony Stone

                           version 2.2.06, 22 June 2011

               Distributed Multipoles from Gaussian wavefunctions

Starting at 14:33:19 on 28 Apr 2020

Using SCF density matrix from file ./SSI/SSI-023ILE-060PRO-1-dimer.test.27183.fchk

                         Distributed Multipole Analysis

Standard DMA

Positions and radii in angstrom
Multipole moments in atomic units, ea_0^k for rank k

C          x = -1.753609  y = -1.324882  z = -0.828613 angstrom
           Maximum rank =  0   Radius =  0.650 angstrom
                   Q00  =  -0.249218

C          x = -2.494609  y = -2.179882  z =  0.206387 angstrom
           Maximum rank =  0   Radius =  0.650 angstrom
                   Q00  =  -0.232199

H          x = -1.098609  y = -0.623882  z = -0.319613 angstrom
           Maximum rank =  0   Radius =  0.325 angstrom
                   Q00  =   0.082235

H          x = -1.168609  y = -1.937882  z = -1.510613 angstrom
           Maximum rank =  0   Radius =  0.325 angstrom
                   Q00  =   0.079337

H          x = -2.449609  y = -0.772882  z = -1.460613 angstrom
           Maximum rank =  0   Radius =  0.325 angstrom
                   Q00  =   0.076894

H          x = -3.194609  y = -2.816882  z = -0.328613 angstrom
           Maximum rank =  0   Radius =  0.325 angstrom
                   Q00  =   0.079352

H          x = -3.045219  y = -1.545551  z =  0.916639 angstrom
           Maximum rank =  0   Radius =  0.325 angstrom
                   Q00  =   0.081347

H          x = -1.771659  y = -2.820355  z =  0.732823 angstrom
           Maximum rank =  0   Radius =  0.325 angstrom
                   Q00  =   0.078457

C          x =  1.184391  y =  0.806118  z = -0.204613 angstrom
           Maximum rank =  0   Radius =  0.650 angstrom
                   Q00  =  -0.109318

C          x =  0.756391  y =  1.030118  z =  1.225387 angstrom
           Maximum rank =  0   Radius =  0.650 angstrom
                   Q00  =  -0.234359

C          x =  2.377391  y =  1.721118  z = -0.404613 angstrom
           Maximum rank =  0   Radius =  0.650 angstrom
                   Q00  =  -0.206207

H          x =  0.384391  y =  1.049118  z = -0.905613 angstrom
           Maximum rank =  0   Radius =  0.325 angstrom
                   Q00  =   0.058511

H          x =  1.497391  y = -0.230882  z = -0.331613 angstrom
           Maximum rank =  0   Radius =  0.325 angstrom
                   Q00  =   0.056442

H          x =  0.120391  y =  1.914118  z =  1.300387 angstrom
           Maximum rank =  0   Radius =  0.325 angstrom
                   Q00  =   0.078076

H          x =  0.228391  y =  0.142118  z =  1.563387 angstrom
           Maximum rank =  0   Radius =  0.325 angstrom
                   Q00  =   0.073207

H          x =  2.032391  y =  2.671118  z = -0.817613 angstrom
           Maximum rank =  0   Radius =  0.325 angstrom
                   Q00  =   0.084170

H          x =  3.098391  y =  1.270118  z = -1.088613 angstrom
           Maximum rank =  0   Radius =  0.325 angstrom
                   Q00  =   0.086985

H          x =  1.717701  y =  1.212902  z =  1.727855 angstrom
           Maximum rank =  0   Radius =  0.325 angstrom
                   Q00  =   0.063339

H          x =  2.816361  y =  1.862648  z =  0.594023 angstrom
           Maximum rank =  0   Radius =  0.325 angstrom
                   Q00  =   0.052951

Total multipoles referred to origin at
           x =   0.000000,  y =    0.000000,  z =    0.000000 angstrom
                   Q00  =  -0.000000

Finished at 14:33:19 on 28 Apr 2020

  DMA results are available in the Python driver through the
	  variable('DMA DISTRIBUTED MULTIPOLES')
  and
	  variable('DMA TOTAL MULTIPOLES')
  commands.

    Psi4 stopped on: Tuesday, 28 April 2020 02:33PM
    Psi4 wall time for execution: 0:00:39.39

*** Psi4 exiting successfully. Buy a developer a beer!
