                               Psi4 1.3.2 release

  ==> Input File <==

--------------------------------------------------------------------------
import numpy as np
set {scf_type pk
basis cc-pvdz
d_convergence 10
gdma_switch   0
gdma_limit    0
gdma_origin   [ 0.0,  0.0,  0.0 ]
}
molecule test {
    units Angstrom
    0 1
    --
    0 1
    C               -0.424421846748728     2.577031804886348     0.543681378018712
    C               -1.377421846748727     0.560031804886348     1.627681378018712
    N               -0.661421846748728     1.138031804886348     0.678681378018712
    N               -1.995421846748727     1.286031804886348     2.537681378018712
    N               -1.496421846748727    -0.752968195113652     1.640681378018712
    H               -0.135421846748728     0.516031804886348     0.064681378018712
    H                0.329578153251272     2.893031804886348     1.267681378018712
    H               -1.346421846748727     3.138031804886348     0.708681378018712
    H               -1.917421846748727     2.287031804886348     2.507681378018712
    H               -2.563421846748727     0.845031804886348     3.241681378018713
    H               -0.997421846748727    -1.297968195113652     0.954681378018712
    H               -2.053421846748728    -1.210968195113652     2.342681378018712
    H               -0.066879846748728     2.787051804886347    -0.475168621981288
    C                0.717578153251272    -1.280968195113652    -2.993318621981288
    C                1.548578153251272    -1.181968195113652    -1.713318621981288
    O                1.085578153251273    -0.593968195113652    -0.715318621981288
    O                2.654578153251272    -1.750968195113652    -1.676318621981288
    H                0.165578153251272    -2.222968195113653    -2.998318621981288
    H                1.405578153251272    -1.306968195113652    -3.840318621981288
    H               -0.000882846748728    -0.456998195113652    -3.115338621981288

}
e, wfn = energy('scf', return_wfn=True)
gdma(wfn)
dmavals = variable('DMA DISTRIBUTED MULTIPOLES')
charges = np.array(dmavals)
print(charges)
np.save('SSI-009ARG-023GLU-1-dimer.npy', np.array(charges))--------------------------------------------------------------------------

*** tstart() called on ds3
*** at Tue Apr 28 11:56:31 2020

   => Loading Basis Set <=

    Name: CC-PVDZ
    Role: ORBITAL
    Keyword: BASIS
    atoms 1-2, 14-15  entry C          line   138 file /theoryfs2/ds/metcalf/miniconda2/envs/tf2gpu/share/psi4/basis/cc-pvdz.gbs
    atoms 3-5         entry N          line   168 file /theoryfs2/ds/metcalf/miniconda2/envs/tf2gpu/share/psi4/basis/cc-pvdz.gbs
    atoms 6-13, 18-20 entry H          line    22 file /theoryfs2/ds/metcalf/miniconda2/envs/tf2gpu/share/psi4/basis/cc-pvdz.gbs
    atoms 16-17       entry O          line   198 file /theoryfs2/ds/metcalf/miniconda2/envs/tf2gpu/share/psi4/basis/cc-pvdz.gbs

         ---------------------------------------------------------
                                   SCF
               by Justin Turney, Rob Parrish, Andy Simmonett
                          and Daniel G. A. Smith
                              RHF Reference
                        1 Threads,    500 MiB Core
         ---------------------------------------------------------

  ==> Geometry <==

    Molecular point group: c1
    Full point group: C1

    Geometry (in Angstrom), charge = 0, multiplicity = 1:

       Center              X                  Y                   Z               Mass
    ------------   -----------------  -----------------  -----------------  -----------------
         C           -0.424421846749     2.577031804886     0.543681378019    12.000000000000
         C           -1.377421846749     0.560031804886     1.627681378019    12.000000000000
         N           -0.661421846749     1.138031804886     0.678681378019    14.003074004430
         N           -1.995421846749     1.286031804886     2.537681378019    14.003074004430
         N           -1.496421846749    -0.752968195114     1.640681378019    14.003074004430
         H           -0.135421846749     0.516031804886     0.064681378019     1.007825032230
         H            0.329578153251     2.893031804886     1.267681378019     1.007825032230
         H           -1.346421846749     3.138031804886     0.708681378019     1.007825032230
         H           -1.917421846749     2.287031804886     2.507681378019     1.007825032230
         H           -2.563421846749     0.845031804886     3.241681378019     1.007825032230
         H           -0.997421846749    -1.297968195114     0.954681378019     1.007825032230
         H           -2.053421846749    -1.210968195114     2.342681378019     1.007825032230
         H           -0.066879846749     2.787051804886    -0.475168621981     1.007825032230
         C            0.717578153251    -1.280968195114    -2.993318621981    12.000000000000
         C            1.548578153251    -1.181968195114    -1.713318621981    12.000000000000
         O            1.085578153251    -0.593968195114    -0.715318621981    15.994914619570
         O            2.654578153251    -1.750968195114    -1.676318621981    15.994914619570
         H            0.165578153251    -2.222968195114    -2.998318621981     1.007825032230
         H            1.405578153251    -1.306968195114    -3.840318621981     1.007825032230
         H           -0.000882846749    -0.456998195114    -3.115338621981     1.007825032230

  Running in c1 symmetry.

  Rotational constants: A =      0.09542  B =      0.01938  C =      0.01784 [cm^-1]
  Rotational constants: A =   2860.72764  B =    581.13477  C =    534.86793 [MHz]
  Nuclear repulsion =  449.365450187995179

  Charge       = 0
  Multiplicity = 1
  Electrons    = 72
  Nalpha       = 36
  Nbeta        = 36

  ==> Algorithm <==

  SCF Algorithm Type is PK.
  DIIS enabled.
  MOM disabled.
  Fractional occupation disabled.
  Guess Type is SAD.
  Energy threshold   = 1.00e-06
  Density threshold  = 1.00e-10
  Integral threshold = 0.00e+00

  ==> Primary Basis <==

  Basis Set: CC-PVDZ
    Blend: CC-PVDZ
    Number of shells: 87
    Number of basis function: 181
    Number of Cartesian functions: 190
    Spherical Harmonics?: true
    Max angular momentum: 2

  ==> Pre-Iterations <==

   -------------------------------------------------------
    Irrep   Nso     Nmo     Nalpha   Nbeta   Ndocc  Nsocc
   -------------------------------------------------------
     A        181     181       0       0       0       0
   -------------------------------------------------------
    Total     181     181      36      36      36       0
   -------------------------------------------------------

  ==> Integral Setup <==

  Using integral reordering PK algorithm.
  Sizing the integral batches needed.
  Building batch lookup table.
   Calculation information:
      Number of atoms:                  20
      Number of AO shells:              87
      Number of primitives:            253
      Number of atomic orbitals:       190
      Number of basis functions:       181

      Integral cutoff                 1.00e-12
      Number of threads:                 1

	Batch   1 pq = [       0,    9405] index = [             0,44231715] size =     44231715
	Batch   2 pq = [    9405,   13301] index = [      44231715,88464951] size =     44233236
	Batch   3 pq = [   13301,   16471] index = [      88464951,135655156] size =     47190205
  Task number: 13
  Buffer size: 11059200
  Buffer per thread: 2
  We computed 5820847 shell quartets total.
  Whereas there are 7328706 unique shell quartets.

  ==> DiskJK: Disk-Based J/K Matrices <==

    J tasked:                  Yes
    K tasked:                  Yes
    wK tasked:                  No
    Memory [MiB]:              375
    Schwarz Cutoff:          1E-12

    OpenMP threads:              1

  Minimum eigenvalue in the overlap matrix is 3.8186694733E-03.
  Using Symmetric Orthogonalization.

  SCF Guess: Superposition of Atomic Densities via on-the-fly atomic UHF.

  ==> Iterations <==

                        Total Energy        Delta E     RMS |[F,P]|

   @RHF iter SAD:  -469.69899113543244   -4.69699e+02   0.00000e+00
   @RHF iter   1:  -470.68103135435535   -9.82040e-01   4.26739e-03 DIIS
   @RHF iter   2:  -470.90916813636579   -2.28137e-01   2.26454e-03 DIIS
   @RHF iter   3:  -470.96977528990732   -6.06072e-02   4.01811e-04 DIIS
   @RHF iter   4:  -470.97311819609342   -3.34291e-03   1.47258e-04 DIIS
   @RHF iter   5:  -470.97354633193697   -4.28136e-04   2.96073e-05 DIIS
   @RHF iter   6:  -470.97357076434986   -2.44324e-05   1.54831e-05 DIIS
   @RHF iter   7:  -470.97357567003274   -4.90568e-06   3.96764e-06 DIIS
   @RHF iter   8:  -470.97357641912129   -7.49089e-07   1.83197e-06 DIIS
   @RHF iter   9:  -470.97357654503821   -1.25917e-07   6.46037e-07 DIIS
   @RHF iter  10:  -470.97357656697898   -2.19408e-08   2.12054e-07 DIIS
   @RHF iter  11:  -470.97357656895264   -1.97366e-09   5.30420e-08 DIIS
   @RHF iter  12:  -470.97357656904921   -9.65770e-11   1.93469e-08 DIIS
   @RHF iter  13:  -470.97357656906001   -1.08002e-11   5.40733e-09 DIIS
   @RHF iter  14:  -470.97357656906132   -1.30740e-12   1.36475e-09 DIIS
   @RHF iter  15:  -470.97357656906337   -2.04636e-12   5.78870e-10 DIIS
   @RHF iter  16:  -470.97357656906263    7.38964e-13   2.06168e-10 DIIS
   @RHF iter  17:  -470.97357656906166    9.66338e-13   9.09013e-11 DIIS
  Energy and wave function converged.

  ==> Post-Iterations <==

    Orbital Energies [Eh]
    ---------------------

    Doubly Occupied:

       1A    -20.407825     2A    -20.381435     3A    -15.670517
       4A    -15.652624     5A    -15.628512     6A    -11.453499
       7A    -11.317144     8A    -11.246391     9A    -11.163470
      10A     -1.413777    11A     -1.289104    12A     -1.268070
      13A     -1.259561    14A     -1.170051    15A     -1.011323
      16A     -0.910825    17A     -0.906780    18A     -0.846939
      19A     -0.811691    20A     -0.731446    21A     -0.727107
      22A     -0.693354    23A     -0.659514    24A     -0.627316
      25A     -0.620561    26A     -0.593903    27A     -0.538273
      28A     -0.526935    29A     -0.523821    30A     -0.496907
      31A     -0.468051    32A     -0.441311    33A     -0.434904
      34A     -0.323344    35A     -0.298440    36A     -0.296007

    Virtual:

      37A      0.104514    38A      0.138844    39A      0.157193
      40A      0.179015    41A      0.199844    42A      0.212994
      43A      0.234711    44A      0.242429    45A      0.260827
      46A      0.282667    47A      0.294287    48A      0.316111
      49A      0.365695    50A      0.390133    51A      0.407946
      52A      0.457086    53A      0.461752    54A      0.471523
      55A      0.572736    56A      0.575131    57A      0.580322
      58A      0.611593    59A      0.645752    60A      0.649684
      61A      0.662052    62A      0.665846    63A      0.684231
      64A      0.704021    65A      0.709584    66A      0.764153
      67A      0.799200    68A      0.808455    69A      0.816719
      70A      0.831414    71A      0.841376    72A      0.856987
      73A      0.872121    74A      0.893316    75A      0.905513
      76A      0.920708    77A      0.925024    78A      0.935317
      79A      0.939290    80A      0.954322    81A      0.967966
      82A      1.001526    83A      1.017768    84A      1.035615
      85A      1.058111    86A      1.105765    87A      1.115739
      88A      1.133483    89A      1.182037    90A      1.229690
      91A      1.236955    92A      1.240408    93A      1.262013
      94A      1.269188    95A      1.319196    96A      1.333606
      97A      1.343038    98A      1.399635    99A      1.405269
     100A      1.429179   101A      1.450445   102A      1.476715
     103A      1.515540   104A      1.546990   105A      1.550806
     106A      1.576980   107A      1.596368   108A      1.611722
     109A      1.618380   110A      1.668032   111A      1.687931
     112A      1.718420   113A      1.726250   114A      1.735473
     115A      1.778604   116A      1.803167   117A      1.823608
     118A      1.840646   119A      1.859787   120A      1.870590
     121A      1.901193   122A      1.912650   123A      1.926855
     124A      1.947877   125A      1.953829   126A      1.965205
     127A      1.973492   128A      1.989418   129A      2.027849
     130A      2.038141   131A      2.087732   132A      2.114974
     133A      2.149550   134A      2.151399   135A      2.202333
     136A      2.235622   137A      2.266931   138A      2.281994
     139A      2.289043   140A      2.309254   141A      2.347824
     142A      2.385232   143A      2.397632   144A      2.423550
     145A      2.439092   146A      2.455719   147A      2.475002
     148A      2.533904   149A      2.558794   150A      2.566992
     151A      2.598431   152A      2.616628   153A      2.662276
     154A      2.692239   155A      2.713143   156A      2.732796
     157A      2.782556   158A      2.804620   159A      2.861957
     160A      2.870274   161A      2.876342   162A      2.891363
     163A      2.937294   164A      2.946083   165A      2.960007
     166A      3.037267   167A      3.102952   168A      3.137613
     169A      3.161937   170A      3.202558   171A      3.231968
     172A      3.240770   173A      3.288696   174A      3.511734
     175A      3.630413   176A      3.701971   177A      3.719088
     178A      3.773620   179A      3.950537   180A      3.994384
     181A      4.073449

    Final Occupation by Irrep:
              A
    DOCC [    36 ]

  @RHF Final Energy:  -470.97357656906166

   => Energetics <=

    Nuclear Repulsion Energy =            449.3654501879951795
    One-Electron Energy =               -1535.0565942169769187
    Two-Electron Energy =                 614.7175674599201329
    Total Energy =                       -470.9735765690617200

Computation Completed

Properties will be evaluated at   0.000000,   0.000000,   0.000000 [a0]

Properties computed using the SCF density matrix

  Nuclear Dipole Moment: [e a0]
     X:    -6.7015      Y:     5.5809      Z:     0.5918

  Electronic Dipole Moment: [e a0]
     X:     1.5063      Y:    -2.7568      Z:     3.4157

  Dipole Moment: [e a0]
     X:    -5.1952      Y:     2.8241      Z:     4.0076     Total:     7.1433

  Dipole Moment: [D]
     X:   -13.2050      Y:     7.1782      Z:    10.1862     Total:    18.1564

*** tstop() called on ds3 at Tue Apr 28 11:57:36 2020
Module time:
	user time   =      44.95 seconds =       0.75 minutes
	system time =      22.21 seconds =       0.37 minutes
	total time  =         65 seconds =       1.08 minutes
Total time:
	user time   =      44.95 seconds =       0.75 minutes
	system time =      22.21 seconds =       0.37 minutes
	total time  =         65 seconds =       1.08 minutes
                                     G D M A

                                 by Anthony Stone

                           version 2.2.06, 22 June 2011

               Distributed Multipoles from Gaussian wavefunctions

Starting at 11:57:36 on 28 Apr 2020

Using SCF density matrix from file ./SSI/SSI-009ARG-023GLU-1-dimer.test.21553.fchk

                         Distributed Multipole Analysis

Standard DMA

Positions and radii in angstrom
Multipole moments in atomic units, ea_0^k for rank k

C          x = -0.424422  y =  2.577032  z =  0.543681 angstrom
           Maximum rank =  0   Radius =  0.650 angstrom
                   Q00  =  -0.104715

C          x = -1.377422  y =  0.560032  z =  1.627681 angstrom
           Maximum rank =  0   Radius =  0.650 angstrom
                   Q00  =   1.061851

N          x = -0.661422  y =  1.138032  z =  0.678681 angstrom
           Maximum rank =  0   Radius =  0.650 angstrom
                   Q00  =  -0.505024

N          x = -1.995422  y =  1.286032  z =  2.537681 angstrom
           Maximum rank =  0   Radius =  0.650 angstrom
                   Q00  =  -0.578275

N          x = -1.496422  y = -0.752968  z =  1.640681 angstrom
           Maximum rank =  0   Radius =  0.650 angstrom
                   Q00  =  -0.575868

H          x = -0.135422  y =  0.516032  z =  0.064681 angstrom
           Maximum rank =  0   Radius =  0.325 angstrom
                   Q00  =   0.322616

H          x =  0.329578  y =  2.893032  z =  1.267681 angstrom
           Maximum rank =  0   Radius =  0.325 angstrom
                   Q00  =   0.107074

H          x = -1.346422  y =  3.138032  z =  0.708681 angstrom
           Maximum rank =  0   Radius =  0.325 angstrom
                   Q00  =   0.077571

H          x = -1.917422  y =  2.287032  z =  2.507681 angstrom
           Maximum rank =  0   Radius =  0.325 angstrom
                   Q00  =   0.253639

H          x = -2.563422  y =  0.845032  z =  3.241681 angstrom
           Maximum rank =  0   Radius =  0.325 angstrom
                   Q00  =   0.242509

H          x = -0.997422  y = -1.297968  z =  0.954681 angstrom
           Maximum rank =  0   Radius =  0.325 angstrom
                   Q00  =   0.275172

H          x = -2.053422  y = -1.210968  z =  2.342681 angstrom
           Maximum rank =  0   Radius =  0.325 angstrom
                   Q00  =   0.236417

H          x = -0.066880  y =  2.787052  z = -0.475169 angstrom
           Maximum rank =  0   Radius =  0.325 angstrom
                   Q00  =   0.160793

C          x =  0.717578  y = -1.280968  z = -2.993319 angstrom
           Maximum rank =  0   Radius =  0.650 angstrom
                   Q00  =  -0.288554

C          x =  1.548578  y = -1.181968  z = -1.713319 angstrom
           Maximum rank =  0   Radius =  0.650 angstrom
                   Q00  =   0.920872

O          x =  1.085578  y = -0.593968  z = -0.715319 angstrom
           Maximum rank =  0   Radius =  0.650 angstrom
                   Q00  =  -0.981336

O          x =  2.654578  y = -1.750968  z = -1.676319 angstrom
           Maximum rank =  0   Radius =  0.650 angstrom
                   Q00  =  -0.864513

H          x =  0.165578  y = -2.222968  z = -2.998319 angstrom
           Maximum rank =  0   Radius =  0.325 angstrom
                   Q00  =   0.096366

H          x =  1.405578  y = -1.306968  z = -3.840319 angstrom
           Maximum rank =  0   Radius =  0.325 angstrom
                   Q00  =   0.092936

H          x = -0.000883  y = -0.456998  z = -3.115339 angstrom
           Maximum rank =  0   Radius =  0.325 angstrom
                   Q00  =   0.050467

Total multipoles referred to origin at
           x =   0.000000,  y =    0.000000,  z =    0.000000 angstrom
                   Q00  =  -0.000000

Finished at 11:57:36 on 28 Apr 2020

  DMA results are available in the Python driver through the
	  variable('DMA DISTRIBUTED MULTIPOLES')
  and
	  variable('DMA TOTAL MULTIPOLES')
  commands.

    Psi4 stopped on: Tuesday, 28 April 2020 11:57AM
    Psi4 wall time for execution: 0:01:04.58

*** Psi4 exiting successfully. Buy a developer a beer!
