                               Psi4 1.3.2 release

  ==> Input File <==

--------------------------------------------------------------------------
import numpy as np
set {scf_type pk
basis cc-pvdz
d_convergence 10
gdma_switch   0
gdma_limit    0
gdma_origin   [ 0.0,  0.0,  0.0 ]
}
molecule test {
    units Angstrom
    0 1
    --
    0 1
    C                0.424963357636002     0.243216873001182    -0.770143654308140
    C                1.002963357636002     1.143216873001182    -1.823143654309139
    C                0.976963357636002     2.385216873001181     0.212856345690860
    C               -1.643036642363998    -0.090783126998818     1.384856345690860
    C               -0.602036642363998     1.035216873001182     1.407856345690860
    O               -0.557036642363998     1.835216873001182     2.347856345690861
    N                0.211963357636002     1.153216873001182     0.358856345690860
    H               -0.504036642363998    -0.200783126998818    -1.129143654309140
    H                1.143963357636002    -0.528783126998818    -0.495143654309140
    H                0.194963357636002     1.657216873001181    -2.345143654309140
    H                1.618963357636002     0.584216873001182    -2.530143654309140
    H                1.623963357636002     2.563216873001181     1.071856345690860
    H               -1.294036642363998    -0.902783126998818     0.747856345690860
    H                1.598921357636002     1.866256873001182    -1.246903654309140
    H                1.584066357636002     2.203516873001182    -0.686263654309140
    H                0.300009357636002     3.240576873001182     0.071136345690860
    H               -1.792238642363998    -0.489913126998818     2.398976345690860
    H               -2.590920142363998     0.277156873001182     0.965176345690860
    C                0.070963357636002    -3.537783126998819    -0.745143654309140
    C                0.071963357636002    -3.946783126998819    -2.205143654309140
    H                0.954963357636002    -2.943783126998818    -0.523143654309140
    H               -0.818036642363998    -2.945783126998818    -0.528143654309140
    H                0.066963357636002    -4.425783126998818    -0.111143654309140
    H               -0.850036642363998    -4.494783126998819    -2.410143654309140
    H                0.937921357636002    -4.587763126998819    -2.427103654309140
    H                0.115374357636002    -3.057583126998819    -2.851243654309140

}
e, wfn = energy('scf', return_wfn=True)
gdma(wfn)
dmavals = variable('DMA DISTRIBUTED MULTIPOLES')
charges = np.array(dmavals)
print(charges)
np.save('SSI-004PRO-074ALA-1-dimer.npy', np.array(charges))--------------------------------------------------------------------------

*** tstart() called on ds3
*** at Tue Apr 28 13:14:44 2020

   => Loading Basis Set <=

    Name: CC-PVDZ
    Role: ORBITAL
    Keyword: BASIS
    atoms 1-5, 19-20  entry C          line   138 file /theoryfs2/ds/metcalf/miniconda2/envs/tf2gpu/share/psi4/basis/cc-pvdz.gbs
    atoms 6           entry O          line   198 file /theoryfs2/ds/metcalf/miniconda2/envs/tf2gpu/share/psi4/basis/cc-pvdz.gbs
    atoms 7           entry N          line   168 file /theoryfs2/ds/metcalf/miniconda2/envs/tf2gpu/share/psi4/basis/cc-pvdz.gbs
    atoms 8-18, 21-26 entry H          line    22 file /theoryfs2/ds/metcalf/miniconda2/envs/tf2gpu/share/psi4/basis/cc-pvdz.gbs

         ---------------------------------------------------------
                                   SCF
               by Justin Turney, Rob Parrish, Andy Simmonett
                          and Daniel G. A. Smith
                              RHF Reference
                        1 Threads,    500 MiB Core
         ---------------------------------------------------------

  ==> Geometry <==

    Molecular point group: c1
    Full point group: C1

    Geometry (in Angstrom), charge = 0, multiplicity = 1:

       Center              X                  Y                   Z               Mass
    ------------   -----------------  -----------------  -----------------  -----------------
         C            0.424963357636     0.243216873001    -0.770143654308    12.000000000000
         C            1.002963357636     1.143216873001    -1.823143654309    12.000000000000
         C            0.976963357636     2.385216873001     0.212856345691    12.000000000000
         C           -1.643036642364    -0.090783126999     1.384856345691    12.000000000000
         C           -0.602036642364     1.035216873001     1.407856345691    12.000000000000
         O           -0.557036642364     1.835216873001     2.347856345691    15.994914619570
         N            0.211963357636     1.153216873001     0.358856345691    14.003074004430
         H           -0.504036642364    -0.200783126999    -1.129143654309     1.007825032230
         H            1.143963357636    -0.528783126999    -0.495143654309     1.007825032230
         H            0.194963357636     1.657216873001    -2.345143654309     1.007825032230
         H            1.618963357636     0.584216873001    -2.530143654309     1.007825032230
         H            1.623963357636     2.563216873001     1.071856345691     1.007825032230
         H           -1.294036642364    -0.902783126999     0.747856345691     1.007825032230
         H            1.598921357636     1.866256873001    -1.246903654309     1.007825032230
         H            1.584066357636     2.203516873001    -0.686263654309     1.007825032230
         H            0.300009357636     3.240576873001     0.071136345691     1.007825032230
         H           -1.792238642364    -0.489913126999     2.398976345691     1.007825032230
         H           -2.590920142364     0.277156873001     0.965176345691     1.007825032230
         C            0.070963357636    -3.537783126999    -0.745143654309    12.000000000000
         C            0.071963357636    -3.946783126999    -2.205143654309    12.000000000000
         H            0.954963357636    -2.943783126999    -0.523143654309     1.007825032230
         H           -0.818036642364    -2.945783126999    -0.528143654309     1.007825032230
         H            0.066963357636    -4.425783126999    -0.111143654309     1.007825032230
         H           -0.850036642364    -4.494783126999    -2.410143654309     1.007825032230
         H            0.937921357636    -4.587763126999    -2.427103654309     1.007825032230
         H            0.115374357636    -3.057583126999    -2.851243654309     1.007825032230

  Running in c1 symmetry.

  Rotational constants: A =      0.06275  B =      0.02183  C =      0.01705 [cm^-1]
  Rotational constants: A =   1881.26512  B =    654.36850  C =    511.25405 [MHz]
  Nuclear repulsion =  472.149780473210114

  Charge       = 0
  Multiplicity = 1
  Electrons    = 74
  Nalpha       = 37
  Nbeta        = 37

  ==> Algorithm <==

  SCF Algorithm Type is PK.
  DIIS enabled.
  MOM disabled.
  Fractional occupation disabled.
  Guess Type is SAD.
  Energy threshold   = 1.00e-06
  Density threshold  = 1.00e-10
  Integral threshold = 0.00e+00

  ==> Primary Basis <==

  Basis Set: CC-PVDZ
    Blend: CC-PVDZ
    Number of shells: 105
    Number of basis function: 211
    Number of Cartesian functions: 220
    Spherical Harmonics?: true
    Max angular momentum: 2

  ==> Pre-Iterations <==

   -------------------------------------------------------
    Irrep   Nso     Nmo     Nalpha   Nbeta   Ndocc  Nsocc
   -------------------------------------------------------
     A        211     211       0       0       0       0
   -------------------------------------------------------
    Total     211     211      37      37      37       0
   -------------------------------------------------------

  ==> Integral Setup <==

  Using integral reordering PK algorithm.
  Sizing the integral batches needed.
  Building batch lookup table.
   Calculation information:
      Number of atoms:                  26
      Number of AO shells:             105
      Number of primitives:            283
      Number of atomic orbitals:       220
      Number of basis functions:       211

      Integral cutoff                 1.00e-12
      Number of threads:                 1

	Batch   1 pq = [       0,    9405] index = [             0,44231715] size =     44231715
	Batch   2 pq = [    9405,   13301] index = [      44231715,88464951] size =     44233236
	Batch   3 pq = [   13301,   16290] index = [      88464951,132690195] size =     44225244
	Batch   4 pq = [   16290,   18810] index = [     132690195,176917455] size =     44227260
	Batch   5 pq = [   18810,   21030] index = [     176917455,221140965] size =     44223510
	Batch   6 pq = [   21030,   22366] index = [     221140965,250130161] size =     28989196
  Task number: 23
  Buffer size: 11059200
  Buffer per thread: 2
  We computed 13521342 shell quartets total.
  Whereas there are 15487395 unique shell quartets.

  ==> DiskJK: Disk-Based J/K Matrices <==

    J tasked:                  Yes
    K tasked:                  Yes
    wK tasked:                  No
    Memory [MiB]:              375
    Schwarz Cutoff:          1E-12

    OpenMP threads:              1

  Minimum eigenvalue in the overlap matrix is 1.4308718829E-03.
  Using Symmetric Orthogonalization.

  SCF Guess: Superposition of Atomic Densities via on-the-fly atomic UHF.

  ==> Iterations <==

                        Total Energy        Delta E     RMS |[F,P]|

   @RHF iter SAD:  -403.45071793407453   -4.03451e+02   0.00000e+00
   @RHF iter   1:  -403.81508110203498   -3.64363e-01   3.34269e-03 DIIS
   @RHF iter   2:  -404.04377258268306   -2.28691e-01   1.85299e-03 DIIS
   @RHF iter   3:  -404.10419676793379   -6.04242e-02   4.41713e-04 DIIS
   @RHF iter   4:  -404.10942032023053   -5.22355e-03   1.74066e-04 DIIS
   @RHF iter   5:  -404.11026711672298   -8.46796e-04   3.02004e-05 DIIS
   @RHF iter   6:  -404.11031866459973   -5.15479e-05   1.53487e-05 DIIS
   @RHF iter   7:  -404.11032910285587   -1.04383e-05   5.66245e-06 DIIS
   @RHF iter   8:  -404.11033132129774   -2.21844e-06   2.24286e-06 DIIS
   @RHF iter   9:  -404.11033166149008   -3.40192e-07   5.98667e-07 DIIS
   @RHF iter  10:  -404.11033168104251   -1.95524e-08   1.73017e-07 DIIS
   @RHF iter  11:  -404.11033168266272   -1.62021e-09   5.25460e-08 DIIS
   @RHF iter  12:  -404.11033168279380   -1.31081e-10   1.67145e-08 DIIS
   @RHF iter  13:  -404.11033168280801   -1.42109e-11   4.99721e-09 DIIS
   @RHF iter  14:  -404.11033168280403    3.97904e-12   1.33630e-09 DIIS
   @RHF iter  15:  -404.11033168281119   -7.16227e-12   3.85460e-10 DIIS
   @RHF iter  16:  -404.11033168280397    7.21911e-12   1.72370e-10 DIIS
   @RHF iter  17:  -404.11033168280602   -2.04636e-12   7.92767e-11 DIIS
  Energy and wave function converged.

  ==> Post-Iterations <==

    Orbital Energies [Eh]
    ---------------------

    Doubly Occupied:

       1A    -20.495788     2A    -15.580615     3A    -11.339226
       4A    -11.278565     5A    -11.242072     6A    -11.237102
       7A    -11.227992     8A    -11.226435     9A    -11.220849
      10A     -1.360462    11A     -1.255122    12A     -1.072915
      13A     -1.031742    14A     -1.005603    15A     -0.970090
      16A     -0.855717    17A     -0.845088    18A     -0.757116
      19A     -0.728573    20A     -0.673951    21A     -0.651824
      22A     -0.615994    23A     -0.611117    24A     -0.608571
      25A     -0.597738    26A     -0.572057    27A     -0.546733
      28A     -0.541432    29A     -0.534459    30A     -0.522097
      31A     -0.511985    32A     -0.494991    33A     -0.493765
      34A     -0.482168    35A     -0.400650    36A     -0.388238
      37A     -0.361474

    Virtual:

      38A      0.153558    39A      0.178560    40A      0.188863
      41A      0.192408    42A      0.216705    43A      0.223913
      44A      0.237589    45A      0.243618    46A      0.251107
      47A      0.256659    48A      0.259943    49A      0.272021
      50A      0.274882    51A      0.288804    52A      0.306345
      53A      0.311900    54A      0.339851    55A      0.355515
      56A      0.370769    57A      0.386535    58A      0.407271
      59A      0.416632    60A      0.452293    61A      0.497636
      62A      0.522418    63A      0.527206    64A      0.568331
      65A      0.590603    66A      0.599494    67A      0.610153
      68A      0.632325    69A      0.641877    70A      0.658055
      71A      0.663927    72A      0.680755    73A      0.704351
      74A      0.716350    75A      0.750840    76A      0.754051
      77A      0.763322    78A      0.799356    79A      0.810698
      80A      0.839444    81A      0.852514    82A      0.860669
      83A      0.864196    84A      0.873211    85A      0.883521
      86A      0.884260    87A      0.888616    88A      0.897394
      89A      0.898408    90A      0.899658    91A      0.917917
      92A      0.918949    93A      0.926264    94A      0.943821
      95A      0.951930    96A      0.976329    97A      0.981169
      98A      1.006683    99A      1.025088   100A      1.061043
     101A      1.079747   102A      1.108752   103A      1.117476
     104A      1.133937   105A      1.158594   106A      1.161021
     107A      1.203785   108A      1.226241   109A      1.264955
     110A      1.269510   111A      1.347224   112A      1.369099
     113A      1.390167   114A      1.423879   115A      1.444205
     116A      1.455500   117A      1.470144   118A      1.474483
     119A      1.500409   120A      1.539184   121A      1.557359
     122A      1.575358   123A      1.586547   124A      1.602435
     125A      1.617154   126A      1.659721   127A      1.669451
     128A      1.673500   129A      1.694407   130A      1.704058
     131A      1.757965   132A      1.765073   133A      1.813199
     134A      1.836090   135A      1.846584   136A      1.852120
     137A      1.860904   138A      1.874498   139A      1.893113
     140A      1.905460   141A      1.913786   142A      1.915991
     143A      1.931980   144A      1.938841   145A      1.943174
     146A      1.950824   147A      1.955850   148A      1.963246
     149A      1.972578   150A      1.983943   151A      1.985575
     152A      2.017350   153A      2.027296   154A      2.051736
     155A      2.067049   156A      2.098080   157A      2.109051
     158A      2.117110   159A      2.119227   160A      2.132686
     161A      2.153424   162A      2.179952   163A      2.189477
     164A      2.241014   165A      2.257505   166A      2.266755
     167A      2.271255   168A      2.293075   169A      2.308750
     170A      2.333005   171A      2.367032   172A      2.430470
     173A      2.434431   174A      2.446066   175A      2.467297
     176A      2.495518   177A      2.508553   178A      2.531352
     179A      2.550072   180A      2.558819   181A      2.566044
     182A      2.586246   183A      2.655203   184A      2.716464
     185A      2.742994   186A      2.745483   187A      2.755387
     188A      2.780421   189A      2.787316   190A      2.794050
     191A      2.808434   192A      2.837224   193A      2.846726
     194A      2.849617   195A      2.859065   196A      2.864523
     197A      2.932204   198A      2.954163   199A      2.971185
     200A      2.993468   201A      3.020543   202A      3.091830
     203A      3.121380   204A      3.176191   205A      3.231838
     206A      3.340403   207A      3.371267   208A      3.520975
     209A      3.832390   210A      3.901934   211A      5.125472

    Final Occupation by Irrep:
              A
    DOCC [    37 ]

  @RHF Final Energy:  -404.11033168280602

   => Energetics <=

    Nuclear Repulsion Energy =            472.1497804732101145
    One-Electron Energy =               -1483.8395958203823284
    Two-Electron Energy =                 607.5794836643663075
    Total Energy =                       -404.1103316828059633

Computation Completed

Properties will be evaluated at   0.000000,   0.000000,   0.000000 [a0]

Properties computed using the SCF density matrix

  Nuclear Dipole Moment: [e a0]
     X:     2.1442      Y:   -11.4181      Z:   -11.2663

  Electronic Dipole Moment: [e a0]
     X:    -1.8632      Y:    10.5952      Z:     9.7097

  Dipole Moment: [e a0]
     X:     0.2811      Y:    -0.8229      Z:    -1.5565     Total:     1.7830

  Dipole Moment: [D]
     X:     0.7144      Y:    -2.0916      Z:    -3.9563     Total:     4.5318

*** tstop() called on ds3 at Tue Apr 28 13:19:04 2020
Module time:
	user time   =      87.45 seconds =       1.46 minutes
	system time =      43.51 seconds =       0.73 minutes
	total time  =        260 seconds =       4.33 minutes
Total time:
	user time   =      87.45 seconds =       1.46 minutes
	system time =      43.51 seconds =       0.73 minutes
	total time  =        260 seconds =       4.33 minutes
                                     G D M A

                                 by Anthony Stone

                           version 2.2.06, 22 June 2011

               Distributed Multipoles from Gaussian wavefunctions

Starting at 13:19:4 on 28 Apr 2020

Using SCF density matrix from file ./SSI/SSI-004PRO-074ALA-1-dimer.test.15852.fchk

                         Distributed Multipole Analysis

Standard DMA

Positions and radii in angstrom
Multipole moments in atomic units, ea_0^k for rank k

C          x =  0.424963  y =  0.243217  z = -0.770144 angstrom
           Maximum rank =  0   Radius =  0.650 angstrom
                   Q00  =   0.019879

C          x =  1.002963  y =  1.143217  z = -1.823144 angstrom
           Maximum rank =  0   Radius =  0.650 angstrom
                   Q00  =  -0.237500

C          x =  0.976963  y =  2.385217  z =  0.212856 angstrom
           Maximum rank =  0   Radius =  0.650 angstrom
                   Q00  =  -0.100644

C          x = -1.643037  y = -0.090783  z =  1.384856 angstrom
           Maximum rank =  0   Radius =  0.650 angstrom
                   Q00  =  -0.265814

C          x = -0.602037  y =  1.035217  z =  1.407856 angstrom
           Maximum rank =  0   Radius =  0.650 angstrom
                   Q00  =   0.738150

O          x = -0.557037  y =  1.835217  z =  2.347856 angstrom
           Maximum rank =  0   Radius =  0.650 angstrom
                   Q00  =  -0.786204

N          x =  0.211963  y =  1.153217  z =  0.358856 angstrom
           Maximum rank =  0   Radius =  0.650 angstrom
                   Q00  =  -0.448214

H          x = -0.504037  y = -0.200783  z = -1.129144 angstrom
           Maximum rank =  0   Radius =  0.325 angstrom
                   Q00  =   0.083963

H          x =  1.143963  y = -0.528783  z = -0.495144 angstrom
           Maximum rank =  0   Radius =  0.325 angstrom
                   Q00  =   0.058718

H          x =  0.194963  y =  1.657217  z = -2.345144 angstrom
           Maximum rank =  0   Radius =  0.325 angstrom
                   Q00  =   0.091545

H          x =  1.618963  y =  0.584217  z = -2.530144 angstrom
           Maximum rank =  0   Radius =  0.325 angstrom
                   Q00  =   0.088039

H          x =  1.623963  y =  2.563217  z =  1.071856 angstrom
           Maximum rank =  0   Radius =  0.325 angstrom
                   Q00  =   0.106579

H          x = -1.294037  y = -0.902783  z =  0.747856 angstrom
           Maximum rank =  0   Radius =  0.325 angstrom
                   Q00  =   0.087966

H          x =  1.598921  y =  1.866257  z = -1.246904 angstrom
           Maximum rank =  0   Radius =  0.325 angstrom
                   Q00  =   0.112967

H          x =  1.584066  y =  2.203517  z = -0.686264 angstrom
           Maximum rank =  0   Radius =  0.325 angstrom
                   Q00  =   0.098902

H          x =  0.300009  y =  3.240577  z =  0.071136 angstrom
           Maximum rank =  0   Radius =  0.325 angstrom
                   Q00  =   0.098705

H          x = -1.792239  y = -0.489913  z =  2.398976 angstrom
           Maximum rank =  0   Radius =  0.325 angstrom
                   Q00  =   0.128842

H          x = -2.590920  y =  0.277157  z =  0.965176 angstrom
           Maximum rank =  0   Radius =  0.325 angstrom
                   Q00  =   0.125912

C          x =  0.070963  y = -3.537783  z = -0.745144 angstrom
           Maximum rank =  0   Radius =  0.650 angstrom
                   Q00  =  -0.239485

C          x =  0.071963  y = -3.946783  z = -2.205144 angstrom
           Maximum rank =  0   Radius =  0.650 angstrom
                   Q00  =  -0.232346

H          x =  0.954963  y = -2.943783  z = -0.523144 angstrom
           Maximum rank =  0   Radius =  0.325 angstrom
                   Q00  =   0.075678

H          x = -0.818037  y = -2.945783  z = -0.528144 angstrom
           Maximum rank =  0   Radius =  0.325 angstrom
                   Q00  =   0.074051

H          x =  0.066963  y = -4.425783  z = -0.111144 angstrom
           Maximum rank =  0   Radius =  0.325 angstrom
                   Q00  =   0.084698

H          x = -0.850037  y = -4.494783  z = -2.410144 angstrom
           Maximum rank =  0   Radius =  0.325 angstrom
                   Q00  =   0.080563

H          x =  0.937921  y = -4.587763  z = -2.427104 angstrom
           Maximum rank =  0   Radius =  0.325 angstrom
                   Q00  =   0.081151

H          x =  0.115374  y = -3.057583  z = -2.851244 angstrom
           Maximum rank =  0   Radius =  0.325 angstrom
                   Q00  =   0.073898

Total multipoles referred to origin at
           x =   0.000000,  y =    0.000000,  z =    0.000000 angstrom
                   Q00  =  -0.000000

Finished at 13:19:5 on 28 Apr 2020

  DMA results are available in the Python driver through the
	  variable('DMA DISTRIBUTED MULTIPOLES')
  and
	  variable('DMA TOTAL MULTIPOLES')
  commands.

    Psi4 stopped on: Tuesday, 28 April 2020 01:19PM
    Psi4 wall time for execution: 0:04:20.47

*** Psi4 exiting successfully. Buy a developer a beer!
