                               Psi4 1.3.2 release

  ==> Input File <==

--------------------------------------------------------------------------
import numpy as np
set {scf_type pk
basis cc-pvdz
d_convergence 10
gdma_switch   0
gdma_limit    0
gdma_origin   [ 0.0,  0.0,  0.0 ]
}
molecule test {
    units Angstrom
    0 1
    --
    0 1
    C               -0.865866050742475    -0.343479312417717    -0.934220555811628
    C               -1.084866050742475    -0.371479312417717    -2.467220555811629
    C               -2.083866050742475     0.149520687582283    -0.151220555811629
    O               -0.427866050742475    -1.639479312417717    -0.481220555811628
    H               -0.057866050742475     0.355520687582283    -0.742220555811628
    H               -1.105866050742475     0.655520687582283    -2.835220555811629
    H               -2.896866050742475    -0.576479312417717    -0.194220555811629
    H               -1.793866050742475     0.302520687582283     0.886779444188372
    H               -2.425866050742475     1.099520687582283    -0.563220555811629
    H               -1.126866050742475    -2.027479312417717     0.062779444188371
    H               -2.016436050742475    -0.906269312417717    -2.704240555811628
    H               -0.236466050742475    -0.909349312417717    -2.915450555811628
    C                1.823133949257525     0.615520687582283     1.586779444188371
    C                2.633133949257525     1.720520687582283     2.362779444188371
    H                1.376133949257525     1.056520687582283     0.698779444188371
    H                2.506133949257525    -0.179479312417717     1.281779444188371
    H                1.054133949257525     0.171520687582283     2.217779444188372
    H                3.001133949257525     1.265520687582283     3.282779444188371
    H                1.977453949257525     2.562004687582283     2.631079444188371
    H                3.514903949257525     2.067861687582282     1.804349444188371

}
e, wfn = energy('scf', return_wfn=True)
gdma(wfn)
dmavals = variable('DMA DISTRIBUTED MULTIPOLES')
charges = np.array(dmavals)
print(charges)
np.save('SSI-006THR-097VAL-1-dimer.npy', np.array(charges))--------------------------------------------------------------------------

*** tstart() called on ds3
*** at Mon Apr 27 13:21:02 2020

   => Loading Basis Set <=

    Name: CC-PVDZ
    Role: ORBITAL
    Keyword: BASIS
    atoms 1-3, 13-14  entry C          line   138 file /theoryfs2/ds/metcalf/miniconda2/envs/tf2gpu/share/psi4/basis/cc-pvdz.gbs
    atoms 4           entry O          line   198 file /theoryfs2/ds/metcalf/miniconda2/envs/tf2gpu/share/psi4/basis/cc-pvdz.gbs
    atoms 5-12, 15-20 entry H          line    22 file /theoryfs2/ds/metcalf/miniconda2/envs/tf2gpu/share/psi4/basis/cc-pvdz.gbs

         ---------------------------------------------------------
                                   SCF
               by Justin Turney, Rob Parrish, Andy Simmonett
                          and Daniel G. A. Smith
                              RHF Reference
                        1 Threads,    500 MiB Core
         ---------------------------------------------------------

  ==> Geometry <==

    Molecular point group: c1
    Full point group: C1

    Geometry (in Angstrom), charge = 0, multiplicity = 1:

       Center              X                  Y                   Z               Mass
    ------------   -----------------  -----------------  -----------------  -----------------
         C           -0.865866050742    -0.343479312418    -0.934220555812    12.000000000000
         C           -1.084866050742    -0.371479312418    -2.467220555812    12.000000000000
         C           -2.083866050742     0.149520687582    -0.151220555812    12.000000000000
         O           -0.427866050742    -1.639479312418    -0.481220555812    15.994914619570
         H           -0.057866050742     0.355520687582    -0.742220555812     1.007825032230
         H           -1.105866050742     0.655520687582    -2.835220555812     1.007825032230
         H           -2.896866050742    -0.576479312418    -0.194220555812     1.007825032230
         H           -1.793866050742     0.302520687582     0.886779444188     1.007825032230
         H           -2.425866050742     1.099520687582    -0.563220555812     1.007825032230
         H           -1.126866050742    -2.027479312418     0.062779444188     1.007825032230
         H           -2.016436050742    -0.906269312418    -2.704240555812     1.007825032230
         H           -0.236466050742    -0.909349312418    -2.915450555812     1.007825032230
         C            1.823133949258     0.615520687582     1.586779444188    12.000000000000
         C            2.633133949258     1.720520687582     2.362779444188    12.000000000000
         H            1.376133949258     1.056520687582     0.698779444188     1.007825032230
         H            2.506133949258    -0.179479312418     1.281779444188     1.007825032230
         H            1.054133949258     0.171520687582     2.217779444188     1.007825032230
         H            3.001133949258     1.265520687582     3.282779444188     1.007825032230
         H            1.977453949258     2.562004687582     2.631079444188     1.007825032230
         H            3.514903949258     2.067861687582     1.804349444188     1.007825032230

  Running in c1 symmetry.

  Rotational constants: A =      0.15943  B =      0.03072  C =      0.03010 [cm^-1]
  Rotational constants: A =   4779.67174  B =    921.09636  C =    902.51487 [MHz]
  Nuclear repulsion =  242.580537305949008

  Charge       = 0
  Multiplicity = 1
  Electrons    = 52
  Nalpha       = 26
  Nbeta        = 26

  ==> Algorithm <==

  SCF Algorithm Type is PK.
  DIIS enabled.
  MOM disabled.
  Fractional occupation disabled.
  Guess Type is SAD.
  Energy threshold   = 1.00e-06
  Density threshold  = 1.00e-10
  Integral threshold = 0.00e+00

  ==> Primary Basis <==

  Basis Set: CC-PVDZ
    Blend: CC-PVDZ
    Number of shells: 78
    Number of basis function: 154
    Number of Cartesian functions: 160
    Spherical Harmonics?: true
    Max angular momentum: 2

  ==> Pre-Iterations <==

   -------------------------------------------------------
    Irrep   Nso     Nmo     Nalpha   Nbeta   Ndocc  Nsocc
   -------------------------------------------------------
     A        154     154       0       0       0       0
   -------------------------------------------------------
    Total     154     154      26      26      26       0
   -------------------------------------------------------

  ==> Integral Setup <==

  Using integral reordering PK algorithm.
  Sizing the integral batches needed.
  Building batch lookup table.
   Calculation information:
      Number of atoms:                  20
      Number of AO shells:              78
      Number of primitives:            202
      Number of atomic orbitals:       160
      Number of basis functions:       154

      Integral cutoff                 1.00e-12
      Number of threads:                 1

	Batch   1 pq = [       0,    9405] index = [             0,44231715] size =     44231715
	Batch   2 pq = [    9405,   11935] index = [      44231715,71228080] size =     26996365
  Task number: 7
  Buffer size: 11059200
  Buffer per thread: 2
  We computed 3868582 shell quartets total.
  Whereas there are 4747821 unique shell quartets.

  ==> DiskJK: Disk-Based J/K Matrices <==

    J tasked:                  Yes
    K tasked:                  Yes
    wK tasked:                  No
    Memory [MiB]:              375
    Schwarz Cutoff:          1E-12

    OpenMP threads:              1

  Minimum eigenvalue in the overlap matrix is 4.6905671935E-03.
  Using Symmetric Orthogonalization.

  SCF Guess: Superposition of Atomic Densities via on-the-fly atomic UHF.

  ==> Iterations <==

                        Total Energy        Delta E     RMS |[F,P]|

   @RHF iter SAD:  -270.94935399046398   -2.70949e+02   0.00000e+00
   @RHF iter   1:  -272.14833895321340   -1.19898e+00   3.80480e-03 DIIS
   @RHF iter   2:  -272.32746744569380   -1.79128e-01   1.69374e-03 DIIS
   @RHF iter   3:  -272.35816624297377   -3.06988e-02   3.50661e-04 DIIS
   @RHF iter   4:  -272.36059487801623   -2.42864e-03   1.19591e-04 DIIS
   @RHF iter   5:  -272.36077769429914   -1.82816e-04   2.24702e-05 DIIS
   @RHF iter   6:  -272.36078707728012   -9.38298e-06   4.80480e-06 DIIS
   @RHF iter   7:  -272.36078762994413   -5.52664e-07   1.35683e-06 DIIS
   @RHF iter   8:  -272.36078767365689   -4.37128e-08   4.34840e-07 DIIS
   @RHF iter   9:  -272.36078767951926   -5.86238e-09   1.07410e-07 DIIS
   @RHF iter  10:  -272.36078767986487   -3.45608e-10   2.58581e-08 DIIS
   @RHF iter  11:  -272.36078767988278   -1.79057e-11   6.89628e-09 DIIS
   @RHF iter  12:  -272.36078767988386   -1.08002e-12   1.90214e-09 DIIS
   @RHF iter  13:  -272.36078767988442   -5.68434e-13   4.65250e-10 DIIS
   @RHF iter  14:  -272.36078767988386    5.68434e-13   1.01856e-10 DIIS
   @RHF iter  15:  -272.36078767988323    6.25278e-13   3.40624e-11 DIIS
  Energy and wave function converged.

  ==> Post-Iterations <==

    Orbital Energies [Eh]
    ---------------------

    Doubly Occupied:

       1A    -20.545971     2A    -11.278298     3A    -11.228610
       4A    -11.220352     5A    -11.218709     6A    -11.217003
       7A     -1.343960     8A     -1.038098     9A     -1.004416
      10A     -0.939274    11A     -0.838474    12A     -0.803470
      13A     -0.653915    14A     -0.642708    15A     -0.599974
      16A     -0.590499    17A     -0.589159    18A     -0.553489
      19A     -0.547475    20A     -0.514596    21A     -0.509264
      22A     -0.493423    23A     -0.487317    24A     -0.481276
      25A     -0.463145    26A     -0.423640

    Virtual:

      27A      0.167171    28A      0.191872    29A      0.214345
      30A      0.222306    31A      0.239927    32A      0.243089
      33A      0.252306    34A      0.260091    35A      0.269094
      36A      0.278990    37A      0.286442    38A      0.293912
      39A      0.315033    40A      0.350051    41A      0.372167
      42A      0.392654    43A      0.409339    44A      0.427678
      45A      0.568108    46A      0.585098    47A      0.595361
      48A      0.604518    49A      0.626214    50A      0.669887
      51A      0.676865    52A      0.695192    53A      0.720662
      54A      0.758295    55A      0.773806    56A      0.787847
      57A      0.806503    58A      0.845568    59A      0.858245
      60A      0.876967    61A      0.889447    62A      0.891667
      63A      0.894121    64A      0.901204    65A      0.904608
      66A      0.911574    67A      0.915516    68A      0.921852
      69A      0.928114    70A      0.944388    71A      0.969034
      72A      0.980662    73A      1.003796    74A      1.114447
      75A      1.124068    76A      1.131180    77A      1.143736
      78A      1.183727    79A      1.258324    80A      1.276808
      81A      1.334767    82A      1.379939    83A      1.401259
      84A      1.455013    85A      1.470067    86A      1.488635
      87A      1.503716    88A      1.582821    89A      1.584665
      90A      1.598747    91A      1.670089    92A      1.675892
      93A      1.683887    94A      1.686539    95A      1.696494
      96A      1.749645    97A      1.809328    98A      1.846369
      99A      1.860882   100A      1.865497   101A      1.872830
     102A      1.886664   103A      1.900486   104A      1.912557
     105A      1.921546   106A      1.933705   107A      1.938765
     108A      1.945755   109A      1.967733   110A      1.973939
     111A      1.992466   112A      1.997812   113A      2.010804
     114A      2.018502   115A      2.050265   116A      2.084148
     117A      2.115291   118A      2.128438   119A      2.172458
     120A      2.179064   121A      2.260928   122A      2.278011
     123A      2.293443   124A      2.306985   125A      2.321778
     126A      2.381513   127A      2.425902   128A      2.448657
     129A      2.464337   130A      2.505187   131A      2.539881
     132A      2.544364   133A      2.557810   134A      2.575472
     135A      2.593406   136A      2.649138   137A      2.756013
     138A      2.760052   139A      2.761942   140A      2.782364
     141A      2.794193   142A      2.822558   143A      2.840761
     144A      2.852743   145A      2.863375   146A      2.898805
     147A      2.931579   148A      2.962979   149A      2.999052
     150A      3.317341   151A      3.411548   152A      3.458185
     153A      3.670218   154A      4.115250

    Final Occupation by Irrep:
              A
    DOCC [    26 ]

  @RHF Final Energy:  -272.36078767988323

   => Energetics <=

    Nuclear Repulsion Energy =            242.5805373059490080
    One-Electron Energy =                -849.4296253548845925
    Two-Electron Energy =                 334.4883003690522969
    Total Energy =                       -272.3607876798832308

Computation Completed

Properties will be evaluated at   0.000000,   0.000000,   0.000000 [a0]

Properties computed using the SCF density matrix

  Nuclear Dipole Moment: [e a0]
     X:     1.6571      Y:     4.6208      Z:     2.7272

  Electronic Dipole Moment: [e a0]
     X:    -2.2523      Y:    -4.3298      Z:    -2.5632

  Dipole Moment: [e a0]
     X:    -0.5952      Y:     0.2910      Z:     0.1640     Total:     0.6826

  Dipole Moment: [D]
     X:    -1.5129      Y:     0.7397      Z:     0.4168     Total:     1.7349

*** tstop() called on ds3 at Mon Apr 27 13:21:39 2020
Module time:
	user time   =      25.73 seconds =       0.43 minutes
	system time =      12.71 seconds =       0.21 minutes
	total time  =         37 seconds =       0.62 minutes
Total time:
	user time   =      25.73 seconds =       0.43 minutes
	system time =      12.71 seconds =       0.21 minutes
	total time  =         37 seconds =       0.62 minutes
                                     G D M A

                                 by Anthony Stone

                           version 2.2.06, 22 June 2011

               Distributed Multipoles from Gaussian wavefunctions

Starting at 13:21:39 on 27 Apr 2020

Using SCF density matrix from file ./SSI/SSI-006THR-097VAL-1-dimer.test.6299.fchk

                         Distributed Multipole Analysis

Standard DMA

Positions and radii in angstrom
Multipole moments in atomic units, ea_0^k for rank k

C          x = -0.865866  y = -0.343479  z = -0.934221 angstrom
           Maximum rank =  0   Radius =  0.650 angstrom
                   Q00  =   0.186330

C          x = -1.084866  y = -0.371479  z = -2.467221 angstrom
           Maximum rank =  0   Radius =  0.650 angstrom
                   Q00  =  -0.261657

C          x = -2.083866  y =  0.149521  z = -0.151221 angstrom
           Maximum rank =  0   Radius =  0.650 angstrom
                   Q00  =  -0.255886

O          x = -0.427866  y = -1.639479  z = -0.481221 angstrom
           Maximum rank =  0   Radius =  0.650 angstrom
                   Q00  =  -0.603650

H          x = -0.057866  y =  0.355521  z = -0.742221 angstrom
           Maximum rank =  0   Radius =  0.325 angstrom
                   Q00  =   0.024816

H          x = -1.105866  y =  0.655521  z = -2.835221 angstrom
           Maximum rank =  0   Radius =  0.325 angstrom
                   Q00  =   0.079100

H          x = -2.896866  y = -0.576479  z = -0.194221 angstrom
           Maximum rank =  0   Radius =  0.325 angstrom
                   Q00  =   0.078353

H          x = -1.793866  y =  0.302521  z =  0.886779 angstrom
           Maximum rank =  0   Radius =  0.325 angstrom
                   Q00  =   0.089090

H          x = -2.425866  y =  1.099521  z = -0.563221 angstrom
           Maximum rank =  0   Radius =  0.325 angstrom
                   Q00  =   0.095663

H          x = -1.126866  y = -2.027479  z =  0.062779 angstrom
           Maximum rank =  0   Radius =  0.325 angstrom
                   Q00  =   0.384158

H          x = -2.016436  y = -0.906269  z = -2.704241 angstrom
           Maximum rank =  0   Radius =  0.325 angstrom
                   Q00  =   0.079123

H          x = -0.236466  y = -0.909349  z = -2.915451 angstrom
           Maximum rank =  0   Radius =  0.325 angstrom
                   Q00  =   0.102437

C          x =  1.823134  y =  0.615521  z =  1.586779 angstrom
           Maximum rank =  0   Radius =  0.650 angstrom
                   Q00  =  -0.233520

C          x =  2.633134  y =  1.720521  z =  2.362779 angstrom
           Maximum rank =  0   Radius =  0.650 angstrom
                   Q00  =  -0.259316

H          x =  1.376134  y =  1.056521  z =  0.698779 angstrom
           Maximum rank =  0   Radius =  0.325 angstrom
                   Q00  =   0.076891

H          x =  2.506134  y = -0.179479  z =  1.281779 angstrom
           Maximum rank =  0   Radius =  0.325 angstrom
                   Q00  =   0.088328

H          x =  1.054134  y =  0.171521  z =  2.217779 angstrom
           Maximum rank =  0   Radius =  0.325 angstrom
                   Q00  =   0.083286

H          x =  3.001134  y =  1.265521  z =  3.282779 angstrom
           Maximum rank =  0   Radius =  0.325 angstrom
                   Q00  =   0.079334

H          x =  1.977454  y =  2.562005  z =  2.631079 angstrom
           Maximum rank =  0   Radius =  0.325 angstrom
                   Q00  =   0.081073

H          x =  3.514904  y =  2.067862  z =  1.804349 angstrom
           Maximum rank =  0   Radius =  0.325 angstrom
                   Q00  =   0.086048

Total multipoles referred to origin at
           x =   0.000000,  y =    0.000000,  z =    0.000000 angstrom
                   Q00  =  -0.000000

Finished at 13:21:39 on 27 Apr 2020

  DMA results are available in the Python driver through the
	  variable('DMA DISTRIBUTED MULTIPOLES')
  and
	  variable('DMA TOTAL MULTIPOLES')
  commands.

    Psi4 stopped on: Monday, 27 April 2020 01:21PM
    Psi4 wall time for execution: 0:00:37.04

*** Psi4 exiting successfully. Buy a developer a beer!
