                               Psi4 1.3.2 release

  ==> Input File <==

--------------------------------------------------------------------------
import numpy as np
set {scf_type pk
basis cc-pvdz
d_convergence 10
gdma_switch   0
gdma_limit    0
gdma_origin   [ 0.0,  0.0,  0.0 ]
}
molecule test {
    units Angstrom
    0 1
    --
    0 1
    C               -0.691487930281840     2.431351120232597     1.532665443580342
    C                0.043512069718160     1.457351120232598    -0.678334556419658
    C                0.330512069718160     1.725351120232598     0.671665443580342
    C                0.960512069718160     0.806351120232598    -1.519334556419658
    C                2.182512069718160     0.386351120232598    -1.032334556419658
    C                1.590512069718160     1.330351120232598     1.168665443580342
    C                2.507512069718159     0.652351120232598     0.313665443580342
    O                3.114512069718160    -0.215648879767402    -1.842334556419658
    H               -0.918487930281840     1.734351120232598    -1.066334556419658
    H                0.703512069718160     0.632351120232598    -2.553334556419659
    H               -0.272487930281840     2.636351120232598     2.519665443580342
    H               -1.534487930281840     1.753351120232598     1.651665443580342
    H                1.860512069718160     1.539351120232598     2.194665443580342
    H                2.698512069718160    -0.493648879767402    -2.660334556419659
    H                3.472512069718160     0.346351120232598     0.691665443580342
    H               -1.029028930281840     3.367031120232598     1.063015443580342
    C               -1.208487930281840    -1.434648879767402     1.343665443580342
    C               -3.306487930281841    -2.875648879767402     0.303665443580342
    S               -2.192487930281840    -1.503648879767402    -0.113334556419658
    H               -0.430487930281840    -2.167648879767402     1.223665443580342
    H               -0.748487930281840    -0.454648879767402     1.378665443580342
    H               -1.834487930281840    -1.602648879767402     2.203665443580342
    H               -3.945487930281840    -2.566648879767402     1.127665443580342
    H               -2.652487930281840    -3.709648879767403     0.546665443580342
    H               -3.923455930281841    -3.222828879767402    -0.538244556419658

}
e, wfn = energy('scf', return_wfn=True)
gdma(wfn)
dmavals = variable('DMA DISTRIBUTED MULTIPOLES')
charges = np.array(dmavals)
print(charges)
np.save('SSI-034TYR-143MET-1-dimer.npy', np.array(charges))--------------------------------------------------------------------------

*** tstart() called on ds3
*** at Tue Apr 28 07:43:59 2020

   => Loading Basis Set <=

    Name: CC-PVDZ
    Role: ORBITAL
    Keyword: BASIS
    atoms 1-7, 17-18  entry C          line   138 file /theoryfs2/ds/metcalf/miniconda2/envs/tf2gpu/share/psi4/basis/cc-pvdz.gbs
    atoms 8           entry O          line   198 file /theoryfs2/ds/metcalf/miniconda2/envs/tf2gpu/share/psi4/basis/cc-pvdz.gbs
    atoms 9-16, 20-25 entry H          line    22 file /theoryfs2/ds/metcalf/miniconda2/envs/tf2gpu/share/psi4/basis/cc-pvdz.gbs
    atoms 19          entry S          line   598 file /theoryfs2/ds/metcalf/miniconda2/envs/tf2gpu/share/psi4/basis/cc-pvdz.gbs

         ---------------------------------------------------------
                                   SCF
               by Justin Turney, Rob Parrish, Andy Simmonett
                          and Daniel G. A. Smith
                              RHF Reference
                        1 Threads,    500 MiB Core
         ---------------------------------------------------------

  ==> Geometry <==

    Molecular point group: c1
    Full point group: C1

    Geometry (in Angstrom), charge = 0, multiplicity = 1:

       Center              X                  Y                   Z               Mass
    ------------   -----------------  -----------------  -----------------  -----------------
         C           -0.691487930282     2.431351120233     1.532665443580    12.000000000000
         C            0.043512069718     1.457351120233    -0.678334556420    12.000000000000
         C            0.330512069718     1.725351120233     0.671665443580    12.000000000000
         C            0.960512069718     0.806351120233    -1.519334556420    12.000000000000
         C            2.182512069718     0.386351120233    -1.032334556420    12.000000000000
         C            1.590512069718     1.330351120233     1.168665443580    12.000000000000
         C            2.507512069718     0.652351120233     0.313665443580    12.000000000000
         O            3.114512069718    -0.215648879767    -1.842334556420    15.994914619570
         H           -0.918487930282     1.734351120233    -1.066334556420     1.007825032230
         H            0.703512069718     0.632351120233    -2.553334556420     1.007825032230
         H           -0.272487930282     2.636351120233     2.519665443580     1.007825032230
         H           -1.534487930282     1.753351120233     1.651665443580     1.007825032230
         H            1.860512069718     1.539351120233     2.194665443580     1.007825032230
         H            2.698512069718    -0.493648879767    -2.660334556420     1.007825032230
         H            3.472512069718     0.346351120233     0.691665443580     1.007825032230
         H           -1.029028930282     3.367031120233     1.063015443580     1.007825032230
         C           -1.208487930282    -1.434648879767     1.343665443580    12.000000000000
         C           -3.306487930282    -2.875648879767     0.303665443580    12.000000000000
         S           -2.192487930282    -1.503648879767    -0.113334556420    31.972071174400
         H           -0.430487930282    -2.167648879767     1.223665443580     1.007825032230
         H           -0.748487930282    -0.454648879767     1.378665443580     1.007825032230
         H           -1.834487930282    -1.602648879767     2.203665443580     1.007825032230
         H           -3.945487930282    -2.566648879767     1.127665443580     1.007825032230
         H           -2.652487930282    -3.709648879767     0.546665443580     1.007825032230
         H           -3.923455930282    -3.222828879767    -0.538244556420     1.007825032230

  Running in c1 symmetry.

  Rotational constants: A =      0.03968  B =      0.01631  C =      0.01346 [cm^-1]
  Rotational constants: A =   1189.51448  B =    489.04155  C =    403.38990 [MHz]
  Nuclear repulsion =  667.262545463373499

  Charge       = 0
  Multiplicity = 1
  Electrons    = 92
  Nalpha       = 46
  Nbeta        = 46

  ==> Algorithm <==

  SCF Algorithm Type is PK.
  DIIS enabled.
  MOM disabled.
  Fractional occupation disabled.
  Guess Type is SAD.
  Energy threshold   = 1.00e-06
  Density threshold  = 1.00e-10
  Integral threshold = 0.00e+00

  ==> Primary Basis <==

  Basis Set: CC-PVDZ
    Blend: CC-PVDZ
    Number of shells: 110
    Number of basis function: 228
    Number of Cartesian functions: 239
    Spherical Harmonics?: true
    Max angular momentum: 2

  ==> Pre-Iterations <==

   -------------------------------------------------------
    Irrep   Nso     Nmo     Nalpha   Nbeta   Ndocc  Nsocc
   -------------------------------------------------------
     A        228     228       0       0       0       0
   -------------------------------------------------------
    Total     228     228      46      46      46       0
   -------------------------------------------------------

  ==> Integral Setup <==

  Using integral reordering PK algorithm.
  Sizing the integral batches needed.
  Building batch lookup table.
   Calculation information:
      Number of atoms:                  25
      Number of AO shells:             110
      Number of primitives:            340
      Number of atomic orbitals:       239
      Number of basis functions:       228

      Integral cutoff                 1.00e-12
      Number of threads:                 1

	Batch   1 pq = [       0,    9405] index = [             0,44231715] size =     44231715
	Batch   2 pq = [    9405,   13301] index = [      44231715,88464951] size =     44233236
	Batch   3 pq = [   13301,   16290] index = [      88464951,132690195] size =     44225244
	Batch   4 pq = [   16290,   18810] index = [     132690195,176917455] size =     44227260
	Batch   5 pq = [   18810,   21030] index = [     176917455,221140965] size =     44223510
	Batch   6 pq = [   21030,   23037] index = [     221140965,265363203] size =     44222238
	Batch   7 pq = [   23037,   24883] index = [     265363203,309594286] size =     44231083
	Batch   8 pq = [   24883,   26106] index = [     309594286,340774671] size =     31180385
  Task number: 31
  Buffer size: 11059200
  Buffer per thread: 2
  We computed 17488592 shell quartets total.
  Whereas there are 18638565 unique shell quartets.

  ==> DiskJK: Disk-Based J/K Matrices <==

    J tasked:                  Yes
    K tasked:                  Yes
    wK tasked:                  No
    Memory [MiB]:              375
    Schwarz Cutoff:          1E-12

    OpenMP threads:              1

  Minimum eigenvalue in the overlap matrix is 3.4639493199E-04.
  Using Symmetric Orthogonalization.

  SCF Guess: Superposition of Atomic Densities via on-the-fly atomic UHF.

  ==> Iterations <==

                        Total Energy        Delta E     RMS |[F,P]|

   @RHF iter SAD:  -820.17682822231325   -8.20177e+02   0.00000e+00
   @RHF iter   1:  -821.13747694013739   -9.60649e-01   2.58835e-03 DIIS
   @RHF iter   2:  -821.34032917696300   -2.02852e-01   1.03102e-03 DIIS
   @RHF iter   3:  -821.36806210172585   -2.77329e-02   2.68859e-04 DIIS
   @RHF iter   4:  -821.37097739139756   -2.91529e-03   1.03869e-04 DIIS
   @RHF iter   5:  -821.37130611149485   -3.28720e-04   2.09643e-05 DIIS
   @RHF iter   6:  -821.37132507748345   -1.89660e-05   6.28515e-06 DIIS
   @RHF iter   7:  -821.37132688882059   -1.81134e-06   1.98883e-06 DIIS
   @RHF iter   8:  -821.37132710775370   -2.18933e-07   6.98113e-07 DIIS
   @RHF iter   9:  -821.37132713580081   -2.80471e-08   2.22176e-07 DIIS
   @RHF iter  10:  -821.37132713865981   -2.85900e-09   7.25233e-08 DIIS
   @RHF iter  11:  -821.37132713917299   -5.13182e-10   3.11671e-08 DIIS
   @RHF iter  12:  -821.37132713929986   -1.26875e-10   1.83313e-08 DIIS
   @RHF iter  13:  -821.37132713933738   -3.75167e-11   7.83836e-09 DIIS
   @RHF iter  14:  -821.37132713934955   -1.21645e-11   2.20028e-09 DIIS
   @RHF iter  15:  -821.37132713935159   -2.04636e-12   8.28018e-10 DIIS
   @RHF iter  16:  -821.37132713934602    5.57066e-12   2.50550e-10 DIIS
   @RHF iter  17:  -821.37132713934955   -3.52429e-12   8.51293e-11 DIIS
  Energy and wave function converged.

  ==> Post-Iterations <==

    Orbital Energies [Eh]
    ---------------------

    Doubly Occupied:

       1A    -91.926078     2A    -20.583513     3A    -11.300003
       4A    -11.253646     5A    -11.244958     6A    -11.240271
       7A    -11.239249     8A    -11.238141     9A    -11.236463
      10A    -11.234481    11A    -11.230742    12A     -8.930805
      13A     -6.612892    14A     -6.611386    15A     -6.609074
      16A     -1.396697    17A     -1.143589    18A     -1.064944
      19A     -1.037639    20A     -1.009583    21A     -0.949505
      22A     -0.926822    23A     -0.842668    24A     -0.797781
      25A     -0.795832    26A     -0.727769    27A     -0.665469
      28A     -0.638975    29A     -0.611201    30A     -0.607458
      31A     -0.605503    32A     -0.583120    33A     -0.579995
      34A     -0.575495    35A     -0.568740    36A     -0.566719
      37A     -0.555930    38A     -0.528340    39A     -0.497199
      40A     -0.496678    41A     -0.484718    42A     -0.462062
      43A     -0.416171    44A     -0.333134    45A     -0.323480
      46A     -0.302941

    Virtual:

      47A      0.124746    48A      0.152465    49A      0.177903
      50A      0.183582    51A      0.186700    52A      0.206226
      53A      0.220571    54A      0.222552    55A      0.240976
      56A      0.248726    57A      0.255363    58A      0.262537
      59A      0.275054    60A      0.279130    61A      0.288553
      62A      0.292220    63A      0.308345    64A      0.327258
      65A      0.366648    66A      0.369862    67A      0.421620
      68A      0.450150    69A      0.483872    70A      0.487386
      71A      0.505975    72A      0.520666    73A      0.559510
      74A      0.587380    75A      0.612438    76A      0.616168
      77A      0.623002    78A      0.640562    79A      0.648392
      80A      0.657176    81A      0.679018    82A      0.700764
      83A      0.705676    84A      0.712742    85A      0.731766
      86A      0.738187    87A      0.747846    88A      0.759315
      89A      0.768895    90A      0.777650    91A      0.782831
      92A      0.786785    93A      0.810602    94A      0.820124
      95A      0.829859    96A      0.845337    97A      0.860437
      98A      0.866305    99A      0.872321   100A      0.880737
     101A      0.884164   102A      0.889850   103A      0.893035
     104A      0.896615   105A      0.901314   106A      0.905903
     107A      0.913882   108A      0.922550   109A      0.929134
     110A      0.936301   111A      0.950244   112A      0.957616
     113A      0.976126   114A      0.991664   115A      1.010051
     116A      1.021992   117A      1.055862   118A      1.089722
     119A      1.125179   120A      1.137747   121A      1.148205
     122A      1.159050   123A      1.203074   124A      1.230730
     125A      1.241270   126A      1.247302   127A      1.267176
     128A      1.279029   129A      1.291431   130A      1.297667
     131A      1.301910   132A      1.312503   133A      1.332645
     134A      1.341206   135A      1.351655   136A      1.361009
     137A      1.379589   138A      1.395823   139A      1.398064
     140A      1.479994   141A      1.499836   142A      1.510591
     143A      1.521340   144A      1.537265   145A      1.585530
     146A      1.617533   147A      1.625922   148A      1.666976
     149A      1.675216   150A      1.692114   151A      1.696287
     152A      1.730727   153A      1.737643   154A      1.784505
     155A      1.799473   156A      1.807216   157A      1.862551
     158A      1.874060   159A      1.875451   160A      1.882408
     161A      1.889475   162A      1.895085   163A      1.900162
     164A      1.914516   165A      1.926613   166A      1.931556
     167A      1.934950   168A      1.947815   169A      1.957292
     170A      1.971765   171A      1.991978   172A      1.996382
     173A      2.019638   174A      2.022653   175A      2.032851
     176A      2.042790   177A      2.055247   178A      2.067272
     179A      2.079862   180A      2.094421   181A      2.110005
     182A      2.130235   183A      2.134687   184A      2.176822
     185A      2.200678   186A      2.205703   187A      2.218964
     188A      2.227048   189A      2.252668   190A      2.263722
     191A      2.301222   192A      2.348171   193A      2.363303
     194A      2.388683   195A      2.422419   196A      2.431733
     197A      2.456984   198A      2.466315   199A      2.480961
     200A      2.490365   201A      2.499299   202A      2.519665
     203A      2.535226   204A      2.607844   205A      2.619833
     206A      2.734788   207A      2.747744   208A      2.768544
     209A      2.780706   210A      2.783923   211A      2.791765
     212A      2.807049   213A      2.829931   214A      2.837318
     215A      2.847209   216A      2.868397   217A      2.912423
     218A      2.960273   219A      3.049077   220A      3.058881
     221A      3.097303   222A      3.263032   223A      3.265924
     224A      3.343742   225A      3.557126   226A      3.659586
     227A      3.928289   228A      4.174015

    Final Occupation by Irrep:
              A
    DOCC [    46 ]

  @RHF Final Energy:  -821.37132713934955

   => Energetics <=

    Nuclear Repulsion Energy =            667.2625454633734989
    One-Electron Energy =               -2450.0920242403708471
    Two-Electron Energy =                 961.4581516376478021
    Total Energy =                       -821.3713271393495461

Computation Completed

Properties will be evaluated at   0.000000,   0.000000,   0.000000 [a0]

Properties computed using the SCF density matrix

  Nuclear Dipole Moment: [e a0]
     X:    -8.0623      Y:    -2.1112      Z:     7.2843

  Electronic Dipole Moment: [e a0]
     X:     7.5457      Y:     1.8059      Z:    -7.0443

  Dipole Moment: [e a0]
     X:    -0.5166      Y:    -0.3053      Z:     0.2400     Total:     0.6463

  Dipole Moment: [D]
     X:    -1.3130      Y:    -0.7761      Z:     0.6100     Total:     1.6427

*** tstop() called on ds3 at Tue Apr 28 07:47:06 2020
Module time:
	user time   =     142.97 seconds =       2.38 minutes
	system time =      49.91 seconds =       0.83 minutes
	total time  =        187 seconds =       3.12 minutes
Total time:
	user time   =     142.97 seconds =       2.38 minutes
	system time =      49.91 seconds =       0.83 minutes
	total time  =        187 seconds =       3.12 minutes
                                     G D M A

                                 by Anthony Stone

                           version 2.2.06, 22 June 2011

               Distributed Multipoles from Gaussian wavefunctions

Starting at 7:47:6 on 28 Apr 2020

Using SCF density matrix from file ./SSI/SSI-034TYR-143MET-1-dimer.test.6675.fchk

                         Distributed Multipole Analysis

Standard DMA

Positions and radii in angstrom
Multipole moments in atomic units, ea_0^k for rank k

C          x = -0.691488  y =  2.431351  z =  1.532665 angstrom
           Maximum rank =  0   Radius =  0.650 angstrom
                   Q00  =  -0.190677

C          x =  0.043512  y =  1.457351  z = -0.678335 angstrom
           Maximum rank =  0   Radius =  0.650 angstrom
                   Q00  =   0.052432

C          x =  0.330512  y =  1.725351  z =  0.671665 angstrom
           Maximum rank =  0   Radius =  0.650 angstrom
                   Q00  =  -0.157074

C          x =  0.960512  y =  0.806351  z = -1.519335 angstrom
           Maximum rank =  0   Radius =  0.650 angstrom
                   Q00  =  -0.172140

C          x =  2.182512  y =  0.386351  z = -1.032335 angstrom
           Maximum rank =  0   Radius =  0.650 angstrom
                   Q00  =   0.300226

C          x =  1.590512  y =  1.330351  z =  1.168665 angstrom
           Maximum rank =  0   Radius =  0.650 angstrom
                   Q00  =  -0.050822

C          x =  2.507512  y =  0.652351  z =  0.313665 angstrom
           Maximum rank =  0   Radius =  0.650 angstrom
                   Q00  =  -0.110450

O          x =  3.114512  y = -0.215649  z = -1.842335 angstrom
           Maximum rank =  0   Radius =  0.650 angstrom
                   Q00  =  -0.671403

H          x = -0.918488  y =  1.734351  z = -1.066335 angstrom
           Maximum rank =  0   Radius =  0.325 angstrom
                   Q00  =   0.074261

H          x =  0.703512  y =  0.632351  z = -2.553335 angstrom
           Maximum rank =  0   Radius =  0.325 angstrom
                   Q00  =   0.076190

H          x = -0.272488  y =  2.636351  z =  2.519665 angstrom
           Maximum rank =  0   Radius =  0.325 angstrom
                   Q00  =   0.097531

H          x = -1.534488  y =  1.753351  z =  1.651665 angstrom
           Maximum rank =  0   Radius =  0.325 angstrom
                   Q00  =   0.095870

H          x =  1.860512  y =  1.539351  z =  2.194665 angstrom
           Maximum rank =  0   Radius =  0.325 angstrom
                   Q00  =   0.069480

H          x =  2.698512  y = -0.493649  z = -2.660335 angstrom
           Maximum rank =  0   Radius =  0.325 angstrom
                   Q00  =   0.403528

H          x =  3.472512  y =  0.346351  z =  0.691665 angstrom
           Maximum rank =  0   Radius =  0.325 angstrom
                   Q00  =   0.083420

H          x = -1.029029  y =  3.367031  z =  1.063015 angstrom
           Maximum rank =  0   Radius =  0.325 angstrom
                   Q00  =   0.103885

C          x = -1.208488  y = -1.434649  z =  1.343665 angstrom
           Maximum rank =  0   Radius =  0.650 angstrom
                   Q00  =  -0.331179

C          x = -3.306488  y = -2.875649  z =  0.303665 angstrom
           Maximum rank =  0   Radius =  0.650 angstrom
                   Q00  =  -0.351702

S          x = -2.192488  y = -1.503649  z = -0.113335 angstrom
           Maximum rank =  0   Radius =  0.650 angstrom
                   Q00  =   0.083230

H          x = -0.430488  y = -2.167649  z =  1.223665 angstrom
           Maximum rank =  0   Radius =  0.325 angstrom
                   Q00  =   0.084502

H          x = -0.748488  y = -0.454649  z =  1.378665 angstrom
           Maximum rank =  0   Radius =  0.325 angstrom
                   Q00  =   0.135601

H          x = -1.834488  y = -1.602649  z =  2.203665 angstrom
           Maximum rank =  0   Radius =  0.325 angstrom
                   Q00  =   0.082357

H          x = -3.945488  y = -2.566649  z =  1.127665 angstrom
           Maximum rank =  0   Radius =  0.325 angstrom
                   Q00  =   0.088563

H          x = -2.652488  y = -3.709649  z =  0.546665 angstrom
           Maximum rank =  0   Radius =  0.325 angstrom
                   Q00  =   0.083004

H          x = -3.923456  y = -3.222829  z = -0.538245 angstrom
           Maximum rank =  0   Radius =  0.325 angstrom
                   Q00  =   0.121367

Total multipoles referred to origin at
           x =   0.000000,  y =    0.000000,  z =    0.000000 angstrom
                   Q00  =  -0.000000

Finished at 7:47:6 on 28 Apr 2020

  DMA results are available in the Python driver through the
	  variable('DMA DISTRIBUTED MULTIPOLES')
  and
	  variable('DMA TOTAL MULTIPOLES')
  commands.

    Psi4 stopped on: Tuesday, 28 April 2020 07:47AM
    Psi4 wall time for execution: 0:03:07.14

*** Psi4 exiting successfully. Buy a developer a beer!
