                               Psi4 1.3.2 release

  ==> Input File <==

--------------------------------------------------------------------------
import numpy as np
set {scf_type pk
basis cc-pvdz
d_convergence 10
gdma_switch   0
gdma_limit    0
gdma_origin   [ 0.0,  0.0,  0.0 ]
}
molecule test {
    units Angstrom
    0 1
    --
    0 1
    C                1.056496726595012    -1.746316045509932    -2.621459807524874
    N                0.327496726595013    -1.946316045509932    -1.331459807524874
    H               -0.568503273404987    -2.418316045509932    -1.440459807524874
    H                0.891496726595013    -2.480316045509932    -0.679459807524874
    H                0.162496726595013    -1.039316045509932    -0.878459807524874
    H                1.495496726595012    -2.690316045509932    -2.961459807524874
    H                1.879496726595012    -1.039316045509932    -2.470459807524874
    H                0.403676726595013    -1.364846045509932    -3.420395807524874
    C               -0.389503273404987     2.399683954490068     1.388540192475126
    C               -0.366503273404987     0.926683954490068     1.032540192475126
    O                0.248496726595013     0.576683954490068     0.000540192475126
    O               -0.959503273404987     0.114683954490068     1.782540192475126
    H               -0.307503273404987     3.015683954490068     0.490540192475126
    H                0.493496726595013     2.594683954490068     1.998540192475126
    H               -1.294203273404988     2.678937954490068     1.948487192475126

}
e, wfn = energy('scf', return_wfn=True)
gdma(wfn)
dmavals = variable('DMA DISTRIBUTED MULTIPOLES')
charges = np.array(dmavals)
print(charges)
np.save('SSI-007LYS-011ASP-1-dimer.npy', np.array(charges))--------------------------------------------------------------------------

*** tstart() called on ds3
*** at Mon Apr 27 13:22:42 2020

   => Loading Basis Set <=

    Name: CC-PVDZ
    Role: ORBITAL
    Keyword: BASIS
    atoms 1, 9-10    entry C          line   138 file /theoryfs2/ds/metcalf/miniconda2/envs/tf2gpu/share/psi4/basis/cc-pvdz.gbs
    atoms 2          entry N          line   168 file /theoryfs2/ds/metcalf/miniconda2/envs/tf2gpu/share/psi4/basis/cc-pvdz.gbs
    atoms 3-8, 13-15 entry H          line    22 file /theoryfs2/ds/metcalf/miniconda2/envs/tf2gpu/share/psi4/basis/cc-pvdz.gbs
    atoms 11-12      entry O          line   198 file /theoryfs2/ds/metcalf/miniconda2/envs/tf2gpu/share/psi4/basis/cc-pvdz.gbs

         ---------------------------------------------------------
                                   SCF
               by Justin Turney, Rob Parrish, Andy Simmonett
                          and Daniel G. A. Smith
                              RHF Reference
                        1 Threads,    500 MiB Core
         ---------------------------------------------------------

  ==> Geometry <==

    Molecular point group: c1
    Full point group: C1

    Geometry (in Angstrom), charge = 0, multiplicity = 1:

       Center              X                  Y                   Z               Mass
    ------------   -----------------  -----------------  -----------------  -----------------
         C            1.056496726595    -1.746316045510    -2.621459807525    12.000000000000
         N            0.327496726595    -1.946316045510    -1.331459807525    14.003074004430
         H           -0.568503273405    -2.418316045510    -1.440459807525     1.007825032230
         H            0.891496726595    -2.480316045510    -0.679459807525     1.007825032230
         H            0.162496726595    -1.039316045510    -0.878459807525     1.007825032230
         H            1.495496726595    -2.690316045510    -2.961459807525     1.007825032230
         H            1.879496726595    -1.039316045510    -2.470459807525     1.007825032230
         H            0.403676726595    -1.364846045510    -3.420395807525     1.007825032230
         C           -0.389503273405     2.399683954490     1.388540192475    12.000000000000
         C           -0.366503273405     0.926683954490     1.032540192475    12.000000000000
         O            0.248496726595     0.576683954490     0.000540192475    15.994914619570
         O           -0.959503273405     0.114683954490     1.782540192475    15.994914619570
         H           -0.307503273405     3.015683954490     0.490540192475     1.007825032230
         H            0.493496726595     2.594683954490     1.998540192475     1.007825032230
         H           -1.294203273405     2.678937954490     1.948487192475     1.007825032230

  Running in c1 symmetry.

  Rotational constants: A =      0.26872  B =      0.03842  C =      0.03428 [cm^-1]
  Rotational constants: A =   8056.11055  B =   1151.66664  C =   1027.69613 [MHz]
  Nuclear repulsion =  234.709480802380398

  Charge       = 0
  Multiplicity = 1
  Electrons    = 50
  Nalpha       = 25
  Nbeta        = 25

  ==> Algorithm <==

  SCF Algorithm Type is PK.
  DIIS enabled.
  MOM disabled.
  Fractional occupation disabled.
  Guess Type is SAD.
  Energy threshold   = 1.00e-06
  Density threshold  = 1.00e-10
  Integral threshold = 0.00e+00

  ==> Primary Basis <==

  Basis Set: CC-PVDZ
    Blend: CC-PVDZ
    Number of shells: 63
    Number of basis function: 129
    Number of Cartesian functions: 135
    Spherical Harmonics?: true
    Max angular momentum: 2

  ==> Pre-Iterations <==

   -------------------------------------------------------
    Irrep   Nso     Nmo     Nalpha   Nbeta   Ndocc  Nsocc
   -------------------------------------------------------
     A        129     129       0       0       0       0
   -------------------------------------------------------
    Total     129     129      25      25      25       0
   -------------------------------------------------------

  ==> Integral Setup <==

  Using integral reordering PK algorithm.
  Sizing the integral batches needed.
  Building batch lookup table.
   Calculation information:
      Number of atoms:                  15
      Number of AO shells:              63
      Number of primitives:            177
      Number of atomic orbitals:       135
      Number of basis functions:       129

      Integral cutoff                 1.00e-12
      Number of threads:                 1

	Batch   1 pq = [       0,    8385] index = [             0,35158305] size =     35158305
  Task number: 4
  Buffer size: 11059200
  Buffer per thread: 2
  We computed 1596137 shell quartets total.
  Whereas there are 2033136 unique shell quartets.

  ==> DiskJK: Disk-Based J/K Matrices <==

    J tasked:                  Yes
    K tasked:                  Yes
    wK tasked:                  No
    Memory [MiB]:              375
    Schwarz Cutoff:          1E-12

    OpenMP threads:              1

  Minimum eigenvalue in the overlap matrix is 5.2333386281E-03.
  Using Symmetric Orthogonalization.

  SCF Guess: Superposition of Atomic Densities via on-the-fly atomic UHF.

  ==> Iterations <==

                        Total Energy        Delta E     RMS |[F,P]|

   @RHF iter SAD:  -321.69260560893912   -3.21693e+02   0.00000e+00
   @RHF iter   1:  -322.78788035201387   -1.09527e+00   5.19929e-03 DIIS
   @RHF iter   2:  -322.95631394994211   -1.68434e-01   2.87898e-03 DIIS
   @RHF iter   3:  -323.00496694891797   -4.86530e-02   4.76618e-04 DIIS
   @RHF iter   4:  -323.00748243758557   -2.51549e-03   1.65917e-04 DIIS
   @RHF iter   5:  -323.00778223324579   -2.99796e-04   3.57282e-05 DIIS
   @RHF iter   6:  -323.00779856100598   -1.63278e-05   1.90668e-05 DIIS
   @RHF iter   7:  -323.00780202843276   -3.46743e-06   4.28181e-06 DIIS
   @RHF iter   8:  -323.00780260284375   -5.74411e-07   1.89053e-06 DIIS
   @RHF iter   9:  -323.00780270783127   -1.04988e-07   4.81129e-07 DIIS
   @RHF iter  10:  -323.00780271400367   -6.17240e-09   1.46741e-07 DIIS
   @RHF iter  11:  -323.00780271432910   -3.25429e-10   3.89720e-08 DIIS
   @RHF iter  12:  -323.00780271435616   -2.70575e-11   9.97072e-09 DIIS
   @RHF iter  13:  -323.00780271435769   -1.53477e-12   3.20819e-09 DIIS
   @RHF iter  14:  -323.00780271435906   -1.36424e-12   1.11971e-09 DIIS
   @RHF iter  15:  -323.00780271435701    2.04636e-12   3.42076e-10 DIIS
   @RHF iter  16:  -323.00780271435701    0.00000e+00   1.62028e-10 DIIS
   @RHF iter  17:  -323.00780271435860   -1.59162e-12   5.16441e-11 DIIS
  Energy and wave function converged.

  ==> Post-Iterations <==

    Orbital Energies [Eh]
    ---------------------

    Doubly Occupied:

       1A    -20.426146     2A    -20.399449     3A    -15.733174
       4A    -11.352559     5A    -11.260727     6A    -11.165658
       7A     -1.353424     8A     -1.301636     9A     -1.185127
      10A     -1.019905    11A     -0.917316    12A     -0.816304
      13A     -0.804242    14A     -0.710335    15A     -0.642711
      16A     -0.627290    17A     -0.618902    18A     -0.550157
      19A     -0.537752    20A     -0.534467    21A     -0.474616
      22A     -0.444816    23A     -0.340581    24A     -0.315721
      25A     -0.314889

    Virtual:

      26A      0.099851    27A      0.153229    28A      0.159858
      29A      0.201880    30A      0.215875    31A      0.252013
      32A      0.271705    33A      0.283996    34A      0.313567
      35A      0.349663    36A      0.359770    37A      0.457894
      38A      0.507864    39A      0.516371    40A      0.546862
      41A      0.583117    42A      0.608028    43A      0.668087
      44A      0.684209    45A      0.707508    46A      0.764979
      47A      0.781719    48A      0.787897    49A      0.795113
      50A      0.814071    51A      0.826449    52A      0.857593
      53A      0.899974    54A      0.916004    55A      0.921275
      56A      0.926943    57A      0.949910    58A      0.967721
      59A      1.001141    60A      1.020640    61A      1.062289
      62A      1.079419    63A      1.093833    64A      1.191275
      65A      1.218649    66A      1.233032    67A      1.316846
      68A      1.368400    69A      1.405294    70A      1.433221
      71A      1.449776    72A      1.467319    73A      1.480209
      74A      1.512230    75A      1.581709    76A      1.598182
      77A      1.622306    78A      1.680056    79A      1.722167
      80A      1.731246    81A      1.768606    82A      1.811546
      83A      1.828287    84A      1.855317    85A      1.858870
      86A      1.868815    87A      1.928070    88A      1.951078
      89A      1.982338    90A      2.022268    91A      2.069553
      92A      2.079039    93A      2.089043    94A      2.107070
      95A      2.116553    96A      2.125166    97A      2.181148
      98A      2.245360    99A      2.280068   100A      2.310021
     101A      2.315049   102A      2.385720   103A      2.396373
     104A      2.437605   105A      2.549791   106A      2.578716
     107A      2.584311   108A      2.621649   109A      2.633998
     110A      2.659997   111A      2.668422   112A      2.803327
     113A      2.849678   114A      2.865823   115A      2.868460
     116A      2.882025   117A      2.921351   118A      3.087639
     119A      3.127710   120A      3.143320   121A      3.198763
     122A      3.234434   123A      3.326353   124A      3.481177
     125A      3.640163   126A      3.686383   127A      3.918609
     128A      3.936699   129A      4.062711

    Final Occupation by Irrep:
              A
    DOCC [    25 ]

  @RHF Final Energy:  -323.00780271435860

   => Energetics <=

    Nuclear Repulsion Energy =            234.7094808023803978
    One-Electron Energy =                -907.7387548129962624
    Two-Electron Energy =                 350.0214712962572321
    Total Energy =                       -323.0078027143586041

Computation Completed

Properties will be evaluated at   0.000000,   0.000000,   0.000000 [a0]

Properties computed using the SCF density matrix

  Nuclear Dipole Moment: [e a0]
     X:     2.9542      Y:    -2.5626      Z:    -6.9371

  Electronic Dipole Moment: [e a0]
     X:    -1.6893      Y:    -0.5384      Z:     3.3156

  Dipole Moment: [e a0]
     X:     1.2649      Y:    -3.1010      Z:    -3.6216     Total:     4.9328

  Dipole Moment: [D]
     X:     3.2152      Y:    -7.8820      Z:    -9.2052     Total:    12.5379

*** tstop() called on ds3 at Mon Apr 27 13:23:05 2020
Module time:
	user time   =      15.18 seconds =       0.25 minutes
	system time =       8.26 seconds =       0.14 minutes
	total time  =         23 seconds =       0.38 minutes
Total time:
	user time   =      15.18 seconds =       0.25 minutes
	system time =       8.26 seconds =       0.14 minutes
	total time  =         23 seconds =       0.38 minutes
                                     G D M A

                                 by Anthony Stone

                           version 2.2.06, 22 June 2011

               Distributed Multipoles from Gaussian wavefunctions

Starting at 13:23:5 on 27 Apr 2020

Using SCF density matrix from file ./SSI/SSI-007LYS-011ASP-1-dimer.test.6383.fchk

                         Distributed Multipole Analysis

Standard DMA

Positions and radii in angstrom
Multipole moments in atomic units, ea_0^k for rank k

C          x =  1.056497  y = -1.746316  z = -2.621460 angstrom
           Maximum rank =  0   Radius =  0.650 angstrom
                   Q00  =  -0.131648

N          x =  0.327497  y = -1.946316  z = -1.331460 angstrom
           Maximum rank =  0   Radius =  0.650 angstrom
                   Q00  =  -0.125696

H          x = -0.568503  y = -2.418316  z = -1.440460 angstrom
           Maximum rank =  0   Radius =  0.325 angstrom
                   Q00  =   0.234779

H          x =  0.891497  y = -2.480316  z = -0.679460 angstrom
           Maximum rank =  0   Radius =  0.325 angstrom
                   Q00  =   0.238500

H          x =  0.162497  y = -1.039316  z = -0.878460 angstrom
           Maximum rank =  0   Radius =  0.325 angstrom
                   Q00  =   0.327058

H          x =  1.495497  y = -2.690316  z = -2.961460 angstrom
           Maximum rank =  0   Radius =  0.325 angstrom
                   Q00  =   0.122293

H          x =  1.879497  y = -1.039316  z = -2.470460 angstrom
           Maximum rank =  0   Radius =  0.325 angstrom
                   Q00  =   0.160512

H          x =  0.403677  y = -1.364846  z = -3.420396 angstrom
           Maximum rank =  0   Radius =  0.325 angstrom
                   Q00  =   0.148136

C          x = -0.389503  y =  2.399684  z =  1.388540 angstrom
           Maximum rank =  0   Radius =  0.650 angstrom
                   Q00  =  -0.267552

C          x = -0.366503  y =  0.926684  z =  1.032540 angstrom
           Maximum rank =  0   Radius =  0.650 angstrom
                   Q00  =   0.918944

O          x =  0.248497  y =  0.576684  z =  0.000540 angstrom
           Maximum rank =  0   Radius =  0.650 angstrom
                   Q00  =  -0.991895

O          x = -0.959503  y =  0.114684  z =  1.782540 angstrom
           Maximum rank =  0   Radius =  0.650 angstrom
                   Q00  =  -0.896138

H          x = -0.307503  y =  3.015684  z =  0.490540 angstrom
           Maximum rank =  0   Radius =  0.325 angstrom
                   Q00  =   0.072222

H          x =  0.493497  y =  2.594684  z =  1.998540 angstrom
           Maximum rank =  0   Radius =  0.325 angstrom
                   Q00  =   0.103615

H          x = -1.294203  y =  2.678938  z =  1.948487 angstrom
           Maximum rank =  0   Radius =  0.325 angstrom
                   Q00  =   0.086872

Total multipoles referred to origin at
           x =   0.000000,  y =    0.000000,  z =    0.000000 angstrom
                   Q00  =  -0.000000

Finished at 13:23:5 on 27 Apr 2020

  DMA results are available in the Python driver through the
	  variable('DMA DISTRIBUTED MULTIPOLES')
  and
	  variable('DMA TOTAL MULTIPOLES')
  commands.

    Psi4 stopped on: Monday, 27 April 2020 01:23PM
    Psi4 wall time for execution: 0:00:22.85

*** Psi4 exiting successfully. Buy a developer a beer!
