                               Psi4 1.3.2 release

  ==> Input File <==

--------------------------------------------------------------------------
import numpy as np
set {scf_type pk
basis cc-pvdz
d_convergence 10
gdma_switch   0
gdma_limit    0
gdma_origin   [ 0.0,  0.0,  0.0 ]
}
molecule test {
    units Angstrom
    2 1
    --
    2 1
    C               -1.864537034347773    -1.745604727819465     0.238017535526521
    C               -0.104537034347772    -0.803604727819465     1.702017535526521
    N               -1.295537034347772    -0.722604727819465     1.126017535526521
    N                0.663462965652227    -1.854604727819465     1.504017535526521
    N                0.319462965653228     0.169395272180535     2.483017535526521
    H               -1.857537034347772     0.096395272180535     1.326017535526521
    H                0.316462965652228    -2.671604727819465     1.009017535526521
    H                1.570462965652228    -1.902604727819465     1.942017535526521
    H               -0.289537034347772     0.940395272180535     2.717017535526521
    H                1.204462965652228     0.091395272180535     2.961017535526521
    H               -1.930537034347772    -2.711604727819465     0.741017535526521
    H               -1.200537034346772    -1.861604727819465    -0.621982464473479
    H               -2.853757034347773    -1.449054727819465    -0.140792464473479
    C                0.860462965653227    -0.266604727819465    -2.881982464473479
    C                0.333462965652227     1.307395272180535    -1.059982464473479
    N               -0.023537034346772     0.645395272180535    -2.149982464473479
    N                1.545462965652228     1.158395272180535    -0.560982464473479
    N               -0.518537034347772     2.116395272180535    -0.467982464473479
    H               -0.961537034347773     0.794395272180535    -2.504982464473479
    H                2.186462965652228     0.501395272180535    -0.973982464473479
    H                1.819462965652228     1.656395272180535     0.273017535526521
    H               -1.431537034346772     2.277395272180535    -0.868982464473479
    H               -0.232537034347772     2.678395272180535     0.319017535526521
    H                1.175462965653228    -1.086604727819465    -2.231982464473479
    H                1.742462965653228     0.288395272180535    -3.210982464473479
    H                0.373922965652227    -0.694414727819465    -3.770952464473479

}
e, wfn = energy('scf', return_wfn=True)
gdma(wfn)
dmavals = variable('DMA DISTRIBUTED MULTIPOLES')
charges = np.array(dmavals)
print(charges)
np.save('SSI-118ARG-185ARG-1-dimer.npy', np.array(charges))--------------------------------------------------------------------------

*** tstart() called on ds3
*** at Mon Apr 27 22:38:38 2020

   => Loading Basis Set <=

    Name: CC-PVDZ
    Role: ORBITAL
    Keyword: BASIS
    atoms 1-2, 14-15  entry C          line   138 file /theoryfs2/ds/metcalf/miniconda2/envs/tf2gpu/share/psi4/basis/cc-pvdz.gbs
    atoms 3-5, 16-18  entry N          line   168 file /theoryfs2/ds/metcalf/miniconda2/envs/tf2gpu/share/psi4/basis/cc-pvdz.gbs
    atoms 6-13, 19-26 entry H          line    22 file /theoryfs2/ds/metcalf/miniconda2/envs/tf2gpu/share/psi4/basis/cc-pvdz.gbs

         ---------------------------------------------------------
                                   SCF
               by Justin Turney, Rob Parrish, Andy Simmonett
                          and Daniel G. A. Smith
                              RHF Reference
                        1 Threads,    500 MiB Core
         ---------------------------------------------------------

  ==> Geometry <==

    Molecular point group: c1
    Full point group: C1

    Geometry (in Angstrom), charge = 2, multiplicity = 1:

       Center              X                  Y                   Z               Mass
    ------------   -----------------  -----------------  -----------------  -----------------
         C           -1.864537034348    -1.745604727819     0.238017535527    12.000000000000
         C           -0.104537034348    -0.803604727819     1.702017535527    12.000000000000
         N           -1.295537034348    -0.722604727819     1.126017535527    14.003074004430
         N            0.663462965652    -1.854604727819     1.504017535527    14.003074004430
         N            0.319462965653     0.169395272181     2.483017535527    14.003074004430
         H           -1.857537034348     0.096395272181     1.326017535527     1.007825032230
         H            0.316462965652    -2.671604727819     1.009017535527     1.007825032230
         H            1.570462965652    -1.902604727819     1.942017535527     1.007825032230
         H           -0.289537034348     0.940395272181     2.717017535527     1.007825032230
         H            1.204462965652     0.091395272181     2.961017535527     1.007825032230
         H           -1.930537034348    -2.711604727819     0.741017535527     1.007825032230
         H           -1.200537034347    -1.861604727819    -0.621982464473     1.007825032230
         H           -2.853757034348    -1.449054727819    -0.140792464473     1.007825032230
         C            0.860462965653    -0.266604727819    -2.881982464473    12.000000000000
         C            0.333462965652     1.307395272181    -1.059982464473    12.000000000000
         N           -0.023537034347     0.645395272181    -2.149982464473    14.003074004430
         N            1.545462965652     1.158395272181    -0.560982464473    14.003074004430
         N           -0.518537034348     2.116395272181    -0.467982464473    14.003074004430
         H           -0.961537034348     0.794395272181    -2.504982464473     1.007825032230
         H            2.186462965652     0.501395272181    -0.973982464473     1.007825032230
         H            1.819462965652     1.656395272181     0.273017535527     1.007825032230
         H           -1.431537034347     2.277395272181    -0.868982464473     1.007825032230
         H           -0.232537034348     2.678395272181     0.319017535527     1.007825032230
         H            1.175462965653    -1.086604727819    -2.231982464473     1.007825032230
         H            1.742462965653     0.288395272181    -3.210982464473     1.007825032230
         H            0.373922965652    -0.694414727819    -3.770952464473     1.007825032230

  Running in c1 symmetry.

  Rotational constants: A =      0.05066  B =      0.02691  C =      0.02426 [cm^-1]
  Rotational constants: A =   1518.63581  B =    806.74654  C =    727.16082 [MHz]
  Nuclear repulsion =  604.680993615118723

  Charge       = 2
  Multiplicity = 1
  Electrons    = 80
  Nalpha       = 40
  Nbeta        = 40

  ==> Algorithm <==

  SCF Algorithm Type is PK.
  DIIS enabled.
  MOM disabled.
  Fractional occupation disabled.
  Guess Type is SAD.
  Energy threshold   = 1.00e-06
  Density threshold  = 1.00e-10
  Integral threshold = 0.00e+00

  ==> Primary Basis <==

  Basis Set: CC-PVDZ
    Blend: CC-PVDZ
    Number of shells: 108
    Number of basis function: 220
    Number of Cartesian functions: 230
    Spherical Harmonics?: true
    Max angular momentum: 2

  ==> Pre-Iterations <==

   -------------------------------------------------------
    Irrep   Nso     Nmo     Nalpha   Nbeta   Ndocc  Nsocc
   -------------------------------------------------------
     A        220     220       0       0       0       0
   -------------------------------------------------------
    Total     220     220      40      40      40       0
   -------------------------------------------------------

  ==> Integral Setup <==

  Using integral reordering PK algorithm.
  Sizing the integral batches needed.
  Building batch lookup table.
   Calculation information:
      Number of atoms:                  26
      Number of AO shells:             108
      Number of primitives:            300
      Number of atomic orbitals:       230
      Number of basis functions:       220

      Integral cutoff                 1.00e-12
      Number of threads:                 1

	Batch   1 pq = [       0,    9405] index = [             0,44231715] size =     44231715
	Batch   2 pq = [    9405,   13301] index = [      44231715,88464951] size =     44233236
	Batch   3 pq = [   13301,   16290] index = [      88464951,132690195] size =     44225244
	Batch   4 pq = [   16290,   18810] index = [     132690195,176917455] size =     44227260
	Batch   5 pq = [   18810,   21030] index = [     176917455,221140965] size =     44223510
	Batch   6 pq = [   21030,   23037] index = [     221140965,265363203] size =     44222238
	Batch   7 pq = [   23037,   24310] index = [     265363203,295500205] size =     30137002
  Task number: 27
  Buffer size: 11059200
  Buffer per thread: 2
  We computed 18056485 shell quartets total.
  Whereas there are 17325441 unique shell quartets.
     4.22 percent of shell quartets recomputed by reordering.

  ==> DiskJK: Disk-Based J/K Matrices <==

    J tasked:                  Yes
    K tasked:                  Yes
    wK tasked:                  No
    Memory [MiB]:              375
    Schwarz Cutoff:          1E-12

    OpenMP threads:              1

  Minimum eigenvalue in the overlap matrix is 2.6300284873E-03.
  Using Symmetric Orthogonalization.

  SCF Guess: Superposition of Atomic Densities via on-the-fly atomic UHF.

  ==> Iterations <==

                        Total Energy        Delta E     RMS |[F,P]|

   @RHF iter SAD:  -486.89220258024216   -4.86892e+02   0.00000e+00
   @RHF iter   1:  -486.82015382473190    7.20488e-02   2.94312e-03 DIIS
   @RHF iter   2:  -487.02973473472525   -2.09581e-01   1.09740e-03 DIIS
   @RHF iter   3:  -487.05669960195860   -2.69649e-02   2.98875e-04 DIIS
   @RHF iter   4:  -487.05969829810664   -2.99870e-03   4.74481e-05 DIIS
   @RHF iter   5:  -487.05979259965528   -9.43015e-05   1.93546e-05 DIIS
   @RHF iter   6:  -487.05980659974472   -1.40001e-05   4.65873e-06 DIIS
   @RHF iter   7:  -487.05980771861152   -1.11887e-06   1.57934e-06 DIIS
   @RHF iter   8:  -487.05980780949528   -9.08838e-08   3.92557e-07 DIIS
   @RHF iter   9:  -487.05980781564955   -6.15427e-09   9.71808e-08 DIIS
   @RHF iter  10:  -487.05980781604688   -3.97335e-10   3.18348e-08 DIIS
   @RHF iter  11:  -487.05980781609333   -4.64411e-11   9.09306e-09 DIIS
   @RHF iter  12:  -487.05980781609912   -5.79803e-12   3.48654e-09 DIIS
   @RHF iter  13:  -487.05980781610521   -6.08225e-12   1.01359e-09 DIIS
   @RHF iter  14:  -487.05980781610361    1.59162e-12   3.47413e-10 DIIS
   @RHF iter  15:  -487.05980781610151    2.10321e-12   8.02513e-11 DIIS
  Energy and wave function converged.

  ==> Post-Iterations <==

    Orbital Energies [Eh]
    ---------------------

    Doubly Occupied:

       1A    -15.906042     2A    -15.905140     3A    -15.905106
       4A    -15.903435     5A    -15.902915     6A    -15.898153
       7A    -11.705920     8A    -11.704261     9A    -11.553355
      10A    -11.545281    11A     -1.664439    12A     -1.661347
      13A     -1.518781    14A     -1.515920    15A     -1.509147
      16A     -1.507297    17A     -1.254554    18A     -1.249013
      19A     -1.154215    20A     -1.153013    21A     -1.094199
      22A     -1.093481    23A     -1.057442    24A     -1.055881
      25A     -0.975951    26A     -0.974273    27A     -0.972576
      28A     -0.969476    29A     -0.953880    30A     -0.929132
      31A     -0.908174    32A     -0.903560    33A     -0.859528
      34A     -0.849653    35A     -0.834934    36A     -0.824194
      37A     -0.737921    38A     -0.734286    39A     -0.700592
      40A     -0.696477

    Virtual:

      41A     -0.144689    42A     -0.106751    43A     -0.103288
      44A     -0.099115    45A     -0.089860    46A     -0.081711
      47A     -0.072703    48A     -0.058235    49A     -0.044865
      50A     -0.034902    51A     -0.025889    52A     -0.018205
      53A      0.005249    54A      0.016107    55A      0.017507
      56A      0.024301    57A      0.030567    58A      0.058524
      59A      0.083226    60A      0.098444    61A      0.138735
      62A      0.182529    63A      0.198528    64A      0.207520
      65A      0.225978    66A      0.233819    67A      0.290903
      68A      0.336724    69A      0.343835    70A      0.375043
      71A      0.378797    72A      0.386006    73A      0.398917
      74A      0.410020    75A      0.414968    76A      0.421151
      77A      0.434401    78A      0.444165    79A      0.451366
      80A      0.463851    81A      0.473087    82A      0.548669
      83A      0.559950    84A      0.576917    85A      0.583780
      86A      0.601107    87A      0.603423    88A      0.606634
      89A      0.619015    90A      0.630980    91A      0.634260
      92A      0.640861    93A      0.644491    94A      0.653082
      95A      0.684478    96A      0.690943    97A      0.693132
      98A      0.712400    99A      0.732673   100A      0.737907
     101A      0.778711   102A      0.794272   103A      0.798226
     104A      0.808220   105A      0.821209   106A      0.828912
     107A      0.854114   108A      0.857807   109A      0.874523
     110A      0.895387   111A      0.932184   112A      0.935943
     113A      0.985603   114A      0.990987   115A      1.014913
     116A      1.018980   117A      1.022132   118A      1.050540
     119A      1.082632   120A      1.089009   121A      1.095267
     122A      1.112857   123A      1.115191   124A      1.137189
     125A      1.168374   126A      1.187640   127A      1.289539
     128A      1.293283   129A      1.352831   130A      1.376689
     131A      1.391754   132A      1.403132   133A      1.411898
     134A      1.419836   135A      1.436926   136A      1.458344
     137A      1.468288   138A      1.488669   139A      1.499537
     140A      1.519324   141A      1.530349   142A      1.553391
     143A      1.565467   144A      1.592554   145A      1.606120
     146A      1.613677   147A      1.625322   148A      1.629866
     149A      1.645374   150A      1.657329   151A      1.665920
     152A      1.677481   153A      1.679705   154A      1.690303
     155A      1.720867   156A      1.723177   157A      1.738901
     158A      1.752581   159A      1.765239   160A      1.769095
     161A      1.782879   162A      1.802219   163A      1.900601
     164A      1.907337   165A      1.918962   166A      1.926606
     167A      1.968815   168A      1.979101   169A      1.983682
     170A      1.990965   171A      2.020886   172A      2.028936
     173A      2.082885   174A      2.092662   175A      2.132350
     176A      2.137792   177A      2.143154   178A      2.145102
     179A      2.163799   180A      2.184264   181A      2.195132
     182A      2.204638   183A      2.224358   184A      2.236958
     185A      2.261015   186A      2.281357   187A      2.309545
     188A      2.339622   189A      2.351310   190A      2.355835
     191A      2.422549   192A      2.445312   193A      2.471776
     194A      2.488728   195A      2.493042   196A      2.504508
     197A      2.542433   198A      2.549588   199A      2.585589
     200A      2.590492   201A      2.644029   202A      2.651977
     203A      2.672716   204A      2.685545   205A      2.708006
     206A      2.724675   207A      2.736446   208A      2.744123
     209A      2.766869   210A      2.790900   211A      2.946542
     212A      2.963855   213A      2.967956   214A      2.988394
     215A      3.008961   216A      3.021854   217A      3.450273
     218A      3.459419   219A      3.541614   220A      3.545587

    Final Occupation by Irrep:
              A
    DOCC [    40 ]

  @RHF Final Energy:  -487.05980781610151

   => Energetics <=

    Nuclear Repulsion Energy =            604.6809936151187230
    One-Electron Energy =               -1834.9957130768948446
    Two-Electron Energy =                 743.2549116456746106
    Total Energy =                       -487.0598078161015110

Computation Completed

Properties will be evaluated at   0.000000,   0.000000,   0.000000 [a0]

Properties computed using the SCF density matrix

  Nuclear Dipole Moment: [e a0]
     X:    -0.3473      Y:    -2.8664      Z:    -2.8522

  Electronic Dipole Moment: [e a0]
     X:     0.5641      Y:     3.2807      Z:     3.5838

  Dipole Moment: [e a0]
     X:     0.2167      Y:     0.4143      Z:     0.7316     Total:     0.8682

  Dipole Moment: [D]
     X:     0.5509      Y:     1.0531      Z:     1.8595     Total:     2.2068

*** tstop() called on ds3 at Mon Apr 27 22:41:49 2020
Module time:
	user time   =     124.56 seconds =       2.08 minutes
	system time =      42.14 seconds =       0.70 minutes
	total time  =        191 seconds =       3.18 minutes
Total time:
	user time   =     124.56 seconds =       2.08 minutes
	system time =      42.14 seconds =       0.70 minutes
	total time  =        191 seconds =       3.18 minutes
                                     G D M A

                                 by Anthony Stone

                           version 2.2.06, 22 June 2011

               Distributed Multipoles from Gaussian wavefunctions

Starting at 22:41:49 on 27 Apr 2020

Using SCF density matrix from file ./SSI/SSI-118ARG-185ARG-1-dimer.test.31534.fchk

                         Distributed Multipole Analysis

Standard DMA

Positions and radii in angstrom
Multipole moments in atomic units, ea_0^k for rank k

C          x = -1.864537  y = -1.745605  z =  0.238018 angstrom
           Maximum rank =  0   Radius =  0.650 angstrom
                   Q00  =  -0.129876

C          x = -0.104537  y = -0.803605  z =  1.702018 angstrom
           Maximum rank =  0   Radius =  0.650 angstrom
                   Q00  =   1.073295

N          x = -1.295537  y = -0.722605  z =  1.126018 angstrom
           Maximum rank =  0   Radius =  0.650 angstrom
                   Q00  =  -0.492403

N          x =  0.663463  y = -1.854605  z =  1.504018 angstrom
           Maximum rank =  0   Radius =  0.650 angstrom
                   Q00  =  -0.593687

N          x =  0.319463  y =  0.169395  z =  2.483018 angstrom
           Maximum rank =  0   Radius =  0.650 angstrom
                   Q00  =  -0.605816

H          x = -1.857537  y =  0.096395  z =  1.326018 angstrom
           Maximum rank =  0   Radius =  0.325 angstrom
                   Q00  =   0.234500

H          x =  0.316463  y = -2.671605  z =  1.009018 angstrom
           Maximum rank =  0   Radius =  0.325 angstrom
                   Q00  =   0.287421

H          x =  1.570463  y = -1.902605  z =  1.942018 angstrom
           Maximum rank =  0   Radius =  0.325 angstrom
                   Q00  =   0.274435

H          x = -0.289537  y =  0.940395  z =  2.717018 angstrom
           Maximum rank =  0   Radius =  0.325 angstrom
                   Q00  =   0.267161

H          x =  1.204463  y =  0.091395  z =  2.961018 angstrom
           Maximum rank =  0   Radius =  0.325 angstrom
                   Q00  =   0.276007

H          x = -1.930537  y = -2.711605  z =  0.741018 angstrom
           Maximum rank =  0   Radius =  0.325 angstrom
                   Q00  =   0.138048

H          x = -1.200537  y = -1.861605  z = -0.621982 angstrom
           Maximum rank =  0   Radius =  0.325 angstrom
                   Q00  =   0.095770

H          x = -2.853757  y = -1.449055  z = -0.140792 angstrom
           Maximum rank =  0   Radius =  0.325 angstrom
                   Q00  =   0.173419

C          x =  0.860463  y = -0.266605  z = -2.881982 angstrom
           Maximum rank =  0   Radius =  0.650 angstrom
                   Q00  =  -0.129568

C          x =  0.333463  y =  1.307395  z = -1.059982 angstrom
           Maximum rank =  0   Radius =  0.650 angstrom
                   Q00  =   1.066361

N          x = -0.023537  y =  0.645395  z = -2.149982 angstrom
           Maximum rank =  0   Radius =  0.650 angstrom
                   Q00  =  -0.492586

N          x =  1.545463  y =  1.158395  z = -0.560982 angstrom
           Maximum rank =  0   Radius =  0.650 angstrom
                   Q00  =  -0.583686

N          x = -0.518537  y =  2.116395  z = -0.467982 angstrom
           Maximum rank =  0   Radius =  0.650 angstrom
                   Q00  =  -0.599888

H          x = -0.961537  y =  0.794395  z = -2.504982 angstrom
           Maximum rank =  0   Radius =  0.325 angstrom
                   Q00  =   0.245327

H          x =  2.186463  y =  0.501395  z = -0.973982 angstrom
           Maximum rank =  0   Radius =  0.325 angstrom
                   Q00  =   0.279567

H          x =  1.819463  y =  1.656395  z =  0.273018 angstrom
           Maximum rank =  0   Radius =  0.325 angstrom
                   Q00  =   0.266585

H          x = -1.431537  y =  2.277395  z = -0.868982 angstrom
           Maximum rank =  0   Radius =  0.325 angstrom
                   Q00  =   0.274876

H          x = -0.232537  y =  2.678395  z =  0.319018 angstrom
           Maximum rank =  0   Radius =  0.325 angstrom
                   Q00  =   0.264903

H          x =  1.175463  y = -1.086605  z = -2.231982 angstrom
           Maximum rank =  0   Radius =  0.325 angstrom
                   Q00  =   0.093766

H          x =  1.742463  y =  0.288395  z = -3.210982 angstrom
           Maximum rank =  0   Radius =  0.325 angstrom
                   Q00  =   0.133024

H          x =  0.373923  y = -0.694415  z = -3.770952 angstrom
           Maximum rank =  0   Radius =  0.325 angstrom
                   Q00  =   0.183047

Total multipoles referred to origin at
           x =   0.000000,  y =    0.000000,  z =    0.000000 angstrom
                   Q00  =   2.000000

Finished at 22:41:49 on 27 Apr 2020

  DMA results are available in the Python driver through the
	  variable('DMA DISTRIBUTED MULTIPOLES')
  and
	  variable('DMA TOTAL MULTIPOLES')
  commands.

    Psi4 stopped on: Monday, 27 April 2020 10:41PM
    Psi4 wall time for execution: 0:03:11.67

*** Psi4 exiting successfully. Buy a developer a beer!
