                               Psi4 1.3.2 release

  ==> Input File <==

--------------------------------------------------------------------------
import numpy as np
set {scf_type pk
basis cc-pvdz
d_convergence 10
gdma_switch   0
gdma_limit    0
gdma_origin   [ 0.0,  0.0,  0.0 ]
}
molecule test {
    units Angstrom
    0 1
    --
    0 1
    C               -1.301360762407385    -0.039147975878478    -1.335371040350285
    C               -1.002360762407385    -0.047147975878478    -2.832371040350285
    C               -0.283360762407385     0.736852024121522    -0.504371040350284
    C                1.034639237592615     0.997852024121522    -0.932371040350285
    C               -0.621360762407385     1.145852024121522     0.755628959649716
    C                1.948639237592615     1.669852024121522    -0.131371040350284
    C                0.267639237592615     1.875852024121522     1.515628959649715
    C                1.539639237592615     2.131852024121522     1.101628959649716
    H               -2.293360762407385     0.383852024121522    -1.172371040350285
    H               -1.314360762407385    -1.065147975878478    -0.977371040350284
    H               -0.007360762407385    -0.471147975878478    -2.965371040350285
    H                1.370639237592615     0.681852024121522    -1.905371040350284
    H               -1.579360762407385     0.883852024121522     1.167628959649716
    H                2.955639237592615     1.854852024121522    -0.480371040350284
    H               -0.057360762407385     2.227852024121522     2.473628959649715
    H                2.219639237592615     2.685852024121522     1.735628959649715
    H               -1.017180762407385     0.961852024121522    -3.270201040350285
    H               -1.673560762407385    -0.756207975878478    -3.339051040350285
    C               -0.578360762407385    -3.254147975878479     0.566628959649715
    C               -0.590360762407385    -4.004147975878478     1.910628959649715
    H                0.160639237592615    -2.454147975878478     0.560628959649715
    H               -0.334360762407385    -3.949147975878478    -0.235371040350284
    H               -1.569360762407385    -2.838147975878479     0.385628959649715
    H                0.363639237592615    -4.511147975878478     2.051628959649716
    H               -1.376360762407385    -4.755147975878478     1.849628959649716
    H               -0.769760762407385    -3.328897975878478     2.760248959649716

}
e, wfn = energy('scf', return_wfn=True)
gdma(wfn)
dmavals = variable('DMA DISTRIBUTED MULTIPOLES')
charges = np.array(dmavals)
print(charges)
np.save('SSI-008PHE-044ILE-1-dimer.npy', np.array(charges))--------------------------------------------------------------------------

*** tstart() called on ds3
*** at Tue Apr 28 03:07:43 2020

   => Loading Basis Set <=

    Name: CC-PVDZ
    Role: ORBITAL
    Keyword: BASIS
    atoms 1-8, 19-20  entry C          line   138 file /theoryfs2/ds/metcalf/miniconda2/envs/tf2gpu/share/psi4/basis/cc-pvdz.gbs
    atoms 9-18, 21-26 entry H          line    22 file /theoryfs2/ds/metcalf/miniconda2/envs/tf2gpu/share/psi4/basis/cc-pvdz.gbs

         ---------------------------------------------------------
                                   SCF
               by Justin Turney, Rob Parrish, Andy Simmonett
                          and Daniel G. A. Smith
                              RHF Reference
                        1 Threads,    500 MiB Core
         ---------------------------------------------------------

  ==> Geometry <==

    Molecular point group: c1
    Full point group: C1

    Geometry (in Angstrom), charge = 0, multiplicity = 1:

       Center              X                  Y                   Z               Mass
    ------------   -----------------  -----------------  -----------------  -----------------
         C           -1.301360762407    -0.039147975878    -1.335371040350    12.000000000000
         C           -1.002360762407    -0.047147975878    -2.832371040350    12.000000000000
         C           -0.283360762407     0.736852024122    -0.504371040350    12.000000000000
         C            1.034639237593     0.997852024122    -0.932371040350    12.000000000000
         C           -0.621360762407     1.145852024122     0.755628959650    12.000000000000
         C            1.948639237593     1.669852024122    -0.131371040350    12.000000000000
         C            0.267639237593     1.875852024122     1.515628959650    12.000000000000
         C            1.539639237593     2.131852024122     1.101628959650    12.000000000000
         H           -2.293360762407     0.383852024122    -1.172371040350     1.007825032230
         H           -1.314360762407    -1.065147975878    -0.977371040350     1.007825032230
         H           -0.007360762407    -0.471147975878    -2.965371040350     1.007825032230
         H            1.370639237593     0.681852024122    -1.905371040350     1.007825032230
         H           -1.579360762407     0.883852024122     1.167628959650     1.007825032230
         H            2.955639237593     1.854852024122    -0.480371040350     1.007825032230
         H           -0.057360762407     2.227852024122     2.473628959650     1.007825032230
         H            2.219639237593     2.685852024122     1.735628959650     1.007825032230
         H           -1.017180762407     0.961852024122    -3.270201040350     1.007825032230
         H           -1.673560762407    -0.756207975878    -3.339051040350     1.007825032230
         C           -0.578360762407    -3.254147975878     0.566628959650    12.000000000000
         C           -0.590360762407    -4.004147975878     1.910628959650    12.000000000000
         H            0.160639237593    -2.454147975878     0.560628959650     1.007825032230
         H           -0.334360762407    -3.949147975878    -0.235371040350     1.007825032230
         H           -1.569360762407    -2.838147975878     0.385628959650     1.007825032230
         H            0.363639237593    -4.511147975878     2.051628959650     1.007825032230
         H           -1.376360762407    -4.755147975878     1.849628959650     1.007825032230
         H           -0.769760762407    -3.328897975878     2.760248959650     1.007825032230

  Running in c1 symmetry.

  Rotational constants: A =      0.04262  B =      0.02281  C =      0.01753 [cm^-1]
  Rotational constants: A =   1277.85585  B =    683.77281  C =    525.47849 [MHz]
  Nuclear repulsion =  489.876694035601361

  Charge       = 0
  Multiplicity = 1
  Electrons    = 76
  Nalpha       = 38
  Nbeta        = 38

  ==> Algorithm <==

  SCF Algorithm Type is PK.
  DIIS enabled.
  MOM disabled.
  Fractional occupation disabled.
  Guess Type is SAD.
  Energy threshold   = 1.00e-06
  Density threshold  = 1.00e-10
  Integral threshold = 0.00e+00

  ==> Primary Basis <==

  Basis Set: CC-PVDZ
    Blend: CC-PVDZ
    Number of shells: 108
    Number of basis function: 220
    Number of Cartesian functions: 230
    Spherical Harmonics?: true
    Max angular momentum: 2

  ==> Pre-Iterations <==

   -------------------------------------------------------
    Irrep   Nso     Nmo     Nalpha   Nbeta   Ndocc  Nsocc
   -------------------------------------------------------
     A        220     220       0       0       0       0
   -------------------------------------------------------
    Total     220     220      38      38      38       0
   -------------------------------------------------------

  ==> Integral Setup <==

  Using integral reordering PK algorithm.
  Sizing the integral batches needed.
  Building batch lookup table.
   Calculation information:
      Number of atoms:                  26
      Number of AO shells:             108
      Number of primitives:            300
      Number of atomic orbitals:       230
      Number of basis functions:       220

      Integral cutoff                 1.00e-12
      Number of threads:                 1

	Batch   1 pq = [       0,    9405] index = [             0,44231715] size =     44231715
	Batch   2 pq = [    9405,   13301] index = [      44231715,88464951] size =     44233236
	Batch   3 pq = [   13301,   16290] index = [      88464951,132690195] size =     44225244
	Batch   4 pq = [   16290,   18810] index = [     132690195,176917455] size =     44227260
	Batch   5 pq = [   18810,   21030] index = [     176917455,221140965] size =     44223510
	Batch   6 pq = [   21030,   23037] index = [     221140965,265363203] size =     44222238
	Batch   7 pq = [   23037,   24310] index = [     265363203,295500205] size =     30137002
  Task number: 27
  Buffer size: 11059200
  Buffer per thread: 2
  We computed 15566112 shell quartets total.
  Whereas there are 17325441 unique shell quartets.

  ==> DiskJK: Disk-Based J/K Matrices <==

    J tasked:                  Yes
    K tasked:                  Yes
    wK tasked:                  No
    Memory [MiB]:              375
    Schwarz Cutoff:          1E-12

    OpenMP threads:              1

  Minimum eigenvalue in the overlap matrix is 2.8619092717E-04.
  Using Symmetric Orthogonalization.

  SCF Guess: Superposition of Atomic Densities via on-the-fly atomic UHF.

  ==> Iterations <==

                        Total Energy        Delta E     RMS |[F,P]|

   @RHF iter SAD:  -387.01087774156440   -3.87011e+02   0.00000e+00
   @RHF iter   1:  -387.76663458684283   -7.55757e-01   2.75356e-03 DIIS
   @RHF iter   2:  -387.98549526676436   -2.18861e-01   1.14600e-03 DIIS
   @RHF iter   3:  -388.02014650160282   -3.46512e-02   2.45158e-04 DIIS
   @RHF iter   4:  -388.02302920806426   -2.88271e-03   4.15512e-05 DIIS
   @RHF iter   5:  -388.02309364132878   -6.44333e-05   1.61212e-05 DIIS
   @RHF iter   6:  -388.02310180290777   -8.16158e-06   3.70137e-06 DIIS
   @RHF iter   7:  -388.02310235679670   -5.53889e-07   1.38430e-06 DIIS
   @RHF iter   8:  -388.02310242985243   -7.30557e-08   3.38053e-07 DIIS
   @RHF iter   9:  -388.02310244167171   -1.18193e-08   1.44943e-07 DIIS
   @RHF iter  10:  -388.02310244441912   -2.74741e-09   6.30042e-08 DIIS
   @RHF iter  11:  -388.02310244506106   -6.41933e-10   2.50621e-08 DIIS
   @RHF iter  12:  -388.02310244515064   -8.95852e-11   1.02931e-08 DIIS
   @RHF iter  13:  -388.02310244515758   -6.93490e-12   3.97555e-09 DIIS
   @RHF iter  14:  -388.02310244516087   -3.29692e-12   9.99658e-10 DIIS
   @RHF iter  15:  -388.02310244516002    8.52651e-13   4.07334e-10 DIIS
   @RHF iter  16:  -388.02310244516025   -2.27374e-13   1.77981e-10 DIIS
   @RHF iter  17:  -388.02310244515928    9.66338e-13   8.02442e-11 DIIS
  Energy and wave function converged.

  ==> Post-Iterations <==

    Orbital Energies [Eh]
    ---------------------

    Doubly Occupied:

       1A    -11.236806     2A    -11.231638     3A    -11.229270
       4A    -11.228624     5A    -11.225888     6A    -11.224258
       7A    -11.222596     8A    -11.222343     9A    -11.217954
      10A    -11.216264    11A     -1.158749    12A     -1.063587
      13A     -1.015710    14A     -1.013350    15A     -0.984086
      16A     -0.865509    17A     -0.837745    18A     -0.820784
      19A     -0.785323    20A     -0.695847    21A     -0.633734
      22A     -0.625804    23A     -0.612694    24A     -0.597887
      25A     -0.595470    26A     -0.589119    27A     -0.578030
      28A     -0.524891    29A     -0.518995    30A     -0.508119
      31A     -0.496888    32A     -0.488793    33A     -0.486197
      34A     -0.478778    35A     -0.471695    36A     -0.466933
      37A     -0.331335    38A     -0.323746

    Virtual:

      39A      0.139745    40A      0.145981    41A      0.177685
      42A      0.193854    43A      0.198715    44A      0.211222
      45A      0.234259    46A      0.239494    47A      0.242152
      48A      0.254109    49A      0.258921    50A      0.266555
      51A      0.274195    52A      0.283202    53A      0.287913
      54A      0.296700    55A      0.315091    56A      0.336217
      57A      0.369932    58A      0.380803    59A      0.400374
      60A      0.426047    61A      0.457367    62A      0.473037
      63A      0.484105    64A      0.511896    65A      0.565719
      66A      0.586618    67A      0.600141    68A      0.605364
      69A      0.613378    70A      0.646005    71A      0.657595
      72A      0.664116    73A      0.682617    74A      0.687842
      75A      0.698957    76A      0.720685    77A      0.734668
      78A      0.737006    79A      0.743751    80A      0.749454
      81A      0.760708    82A      0.762461    83A      0.778849
      84A      0.799941    85A      0.837158    86A      0.844095
      87A      0.855344    88A      0.871322    89A      0.877509
      90A      0.884328    91A      0.888183    92A      0.892685
      93A      0.895800    94A      0.897959    95A      0.903488
      96A      0.906368    97A      0.910760    98A      0.918914
      99A      0.927393   100A      0.945257   101A      0.950498
     102A      0.958178   103A      0.987639   104A      0.993974
     105A      1.002390   106A      1.020028   107A      1.049587
     108A      1.087722   109A      1.121936   110A      1.133706
     111A      1.152308   112A      1.154161   113A      1.181064
     114A      1.184952   115A      1.201992   116A      1.227361
     117A      1.246035   118A      1.255488   119A      1.266548
     120A      1.286332   121A      1.297588   122A      1.318305
     123A      1.321539   124A      1.340640   125A      1.372983
     126A      1.439243   127A      1.466704   128A      1.482330
     129A      1.494793   130A      1.523062   131A      1.543074
     132A      1.579744   133A      1.586141   134A      1.605314
     135A      1.667091   136A      1.683289   137A      1.690811
     138A      1.699584   139A      1.743016   140A      1.766786
     141A      1.771689   142A      1.782806   143A      1.799570
     144A      1.826010   145A      1.860386   146A      1.865137
     147A      1.869102   148A      1.887908   149A      1.889897
     150A      1.895197   151A      1.907613   152A      1.923198
     153A      1.928243   154A      1.937762   155A      1.943699
     156A      1.947475   157A      1.951368   158A      1.959338
     159A      1.968173   160A      1.972345   161A      1.977299
     162A      1.981170   163A      1.995636   164A      2.001056
     165A      2.019194   166A      2.038397   167A      2.040325
     168A      2.084242   169A      2.089305   170A      2.101166
     171A      2.115834   172A      2.123938   173A      2.133833
     174A      2.178127   175A      2.181275   176A      2.184615
     177A      2.194075   178A      2.210642   179A      2.221845
     180A      2.245986   181A      2.285752   182A      2.300542
     183A      2.304884   184A      2.324897   185A      2.333660
     186A      2.359958   187A      2.403512   188A      2.413027
     189A      2.454014   190A      2.475821   191A      2.485750
     192A      2.488149   193A      2.550426   194A      2.560922
     195A      2.576645   196A      2.583452   197A      2.606361
     198A      2.647173   199A      2.741545   200A      2.744441
     201A      2.766126   202A      2.772707   203A      2.794162
     204A      2.802720   205A      2.828130   206A      2.852363
     207A      2.852519   208A      2.862677   209A      2.875412
     210A      2.936537   211A      2.949217   212A      2.967429
     213A      2.999846   214A      3.021319   215A      3.052025
     216A      3.071993   217A      3.183920   218A      3.233457
     219A      3.327697   220A      4.002561

    Final Occupation by Irrep:
              A
    DOCC [    38 ]

  @RHF Final Energy:  -388.02310244515928

   => Energetics <=

    Nuclear Repulsion Energy =            489.8766940356013606
    One-Electron Energy =               -1494.1487200981132446
    Two-Electron Energy =                 616.2489236173527161
    Total Energy =                       -388.0231024451592248

Computation Completed

Properties will be evaluated at   0.000000,   0.000000,   0.000000 [a0]

Properties computed using the SCF density matrix

  Nuclear Dipole Moment: [e a0]
     X:    -4.6144      Y:   -13.5457      Z:    -1.2757

  Electronic Dipole Moment: [e a0]
     X:     4.5453      Y:    13.4250      Z:     1.2216

  Dipole Moment: [e a0]
     X:    -0.0691      Y:    -0.1206      Z:    -0.0542     Total:     0.1492

  Dipole Moment: [D]
     X:    -0.1757      Y:    -0.3066      Z:    -0.1377     Total:     0.3792

*** tstop() called on ds3 at Tue Apr 28 03:10:11 2020
Module time:
	user time   =     107.18 seconds =       1.79 minutes
	system time =      46.62 seconds =       0.78 minutes
	total time  =        148 seconds =       2.47 minutes
Total time:
	user time   =     107.18 seconds =       1.79 minutes
	system time =      46.62 seconds =       0.78 minutes
	total time  =        148 seconds =       2.47 minutes
                                     G D M A

                                 by Anthony Stone

                           version 2.2.06, 22 June 2011

               Distributed Multipoles from Gaussian wavefunctions

Starting at 3:10:11 on 28 Apr 2020

Using SCF density matrix from file ./SSI/SSI-008PHE-044ILE-1-dimer.test.17838.fchk

                         Distributed Multipole Analysis

Standard DMA

Positions and radii in angstrom
Multipole moments in atomic units, ea_0^k for rank k

C          x = -1.301361  y = -0.039148  z = -1.335371 angstrom
           Maximum rank =  0   Radius =  0.650 angstrom
                   Q00  =  -0.058673

C          x = -1.002361  y = -0.047148  z = -2.832371 angstrom
           Maximum rank =  0   Radius =  0.650 angstrom
                   Q00  =  -0.242362

C          x = -0.283361  y =  0.736852  z = -0.504371 angstrom
           Maximum rank =  0   Radius =  0.650 angstrom
                   Q00  =  -0.104475

C          x =  1.034639  y =  0.997852  z = -0.932371 angstrom
           Maximum rank =  0   Radius =  0.650 angstrom
                   Q00  =  -0.090458

C          x = -0.621361  y =  1.145852  z =  0.755629 angstrom
           Maximum rank =  0   Radius =  0.650 angstrom
                   Q00  =  -0.076851

C          x =  1.948639  y =  1.669852  z = -0.131371 angstrom
           Maximum rank =  0   Radius =  0.650 angstrom
                   Q00  =  -0.079959

C          x =  0.267639  y =  1.875852  z =  1.515629 angstrom
           Maximum rank =  0   Radius =  0.650 angstrom
                   Q00  =   0.042278

C          x =  1.539639  y =  2.131852  z =  1.101629 angstrom
           Maximum rank =  0   Radius =  0.650 angstrom
                   Q00  =  -0.087421

H          x = -2.293361  y =  0.383852  z = -1.172371 angstrom
           Maximum rank =  0   Radius =  0.325 angstrom
                   Q00  =   0.067774

H          x = -1.314361  y = -1.065148  z = -0.977371 angstrom
           Maximum rank =  0   Radius =  0.325 angstrom
                   Q00  =   0.090062

H          x = -0.007361  y = -0.471148  z = -2.965371 angstrom
           Maximum rank =  0   Radius =  0.325 angstrom
                   Q00  =   0.078030

H          x =  1.370639  y =  0.681852  z = -1.905371 angstrom
           Maximum rank =  0   Radius =  0.325 angstrom
                   Q00  =   0.054640

H          x = -1.579361  y =  0.883852  z =  1.167629 angstrom
           Maximum rank =  0   Radius =  0.325 angstrom
                   Q00  =   0.050462

H          x =  2.955639  y =  1.854852  z = -0.480371 angstrom
           Maximum rank =  0   Radius =  0.325 angstrom
                   Q00  =   0.064255

H          x = -0.057361  y =  2.227852  z =  2.473629 angstrom
           Maximum rank =  0   Radius =  0.325 angstrom
                   Q00  =   0.055189

H          x =  2.219639  y =  2.685852  z =  1.735629 angstrom
           Maximum rank =  0   Radius =  0.325 angstrom
                   Q00  =   0.057247

H          x = -1.017181  y =  0.961852  z = -3.270201 angstrom
           Maximum rank =  0   Radius =  0.325 angstrom
                   Q00  =   0.087741

H          x = -1.673561  y = -0.756208  z = -3.339051 angstrom
           Maximum rank =  0   Radius =  0.325 angstrom
                   Q00  =   0.090032

C          x = -0.578361  y = -3.254148  z =  0.566629 angstrom
           Maximum rank =  0   Radius =  0.650 angstrom
                   Q00  =  -0.237041

C          x = -0.590361  y = -4.004148  z =  1.910629 angstrom
           Maximum rank =  0   Radius =  0.650 angstrom
                   Q00  =  -0.242554

H          x =  0.160639  y = -2.454148  z =  0.560629 angstrom
           Maximum rank =  0   Radius =  0.325 angstrom
                   Q00  =   0.088318

H          x = -0.334361  y = -3.949148  z = -0.235371 angstrom
           Maximum rank =  0   Radius =  0.325 angstrom
                   Q00  =   0.079587

H          x = -1.569361  y = -2.838148  z =  0.385629 angstrom
           Maximum rank =  0   Radius =  0.325 angstrom
                   Q00  =   0.072248

H          x =  0.363639  y = -4.511148  z =  2.051629 angstrom
           Maximum rank =  0   Radius =  0.325 angstrom
                   Q00  =   0.081367

H          x = -1.376361  y = -4.755148  z =  1.849629 angstrom
           Maximum rank =  0   Radius =  0.325 angstrom
                   Q00  =   0.077697

H          x = -0.769761  y = -3.328898  z =  2.760249 angstrom
           Maximum rank =  0   Radius =  0.325 angstrom
                   Q00  =   0.082867

Total multipoles referred to origin at
           x =   0.000000,  y =    0.000000,  z =    0.000000 angstrom
                   Q00  =  -0.000000

Finished at 3:10:11 on 28 Apr 2020

  DMA results are available in the Python driver through the
	  variable('DMA DISTRIBUTED MULTIPOLES')
  and
	  variable('DMA TOTAL MULTIPOLES')
  commands.

    Psi4 stopped on: Tuesday, 28 April 2020 03:10AM
    Psi4 wall time for execution: 0:02:28.59

*** Psi4 exiting successfully. Buy a developer a beer!
