                               Psi4 1.3.2 release

  ==> Input File <==

--------------------------------------------------------------------------
import numpy as np
set {scf_type pk
basis cc-pvdz
d_convergence 10
gdma_switch   0
gdma_limit    0
gdma_origin   [ 0.0,  0.0,  0.0 ]
}
molecule test {
    units Angstrom
    0 1
    --
    0 1
    C                1.411299816715895    -0.051922168004193     0.711292635262106
    C                0.579299816715895     2.317077831995807     1.969292635262106
    S                0.806299816715895     1.595077831995807     0.324292635262106
    H                0.621299816715895    -0.754922168004193     0.948292635262106
    H                1.933299816715895    -0.437922168004193    -0.165707364737894
    H                2.134299816715894    -0.006922168004193     1.526292635262106
    H               -0.203700183284105     3.064077831995807     1.886292635262106
    H                1.496299816715895     2.849077831995808     2.224292635262106
    H                0.348599816715895     1.648607831995807     2.811863635262106
    C               -0.768700183284105    -2.193922168004193    -1.337707364737894
    C               -1.581700183284105    -2.529922168004193    -0.091707364737894
    C               -1.424700183284105    -1.053922168004193    -2.110707364737894
    H                0.247299816715895    -1.923922168004193    -1.050707364737894
    H               -0.723700183284105    -3.070922168004193    -1.988707364737894
    H               -2.610700183284106    -2.709922168004192    -0.407707364737894
    H               -1.581700183284105    -1.686922168004193     0.596292635262106
    H               -2.406700183284106    -1.386922168004193    -2.464707364737894
    H               -1.584700183284105    -0.213922168004193    -1.426707364737894
    H               -1.191360183284105    -3.422746168004193     0.418683635262106
    H               -0.809710183284105    -0.724642168004193    -2.961213364737894

}
e, wfn = energy('scf', return_wfn=True)
gdma(wfn)
dmavals = variable('DMA DISTRIBUTED MULTIPOLES')
charges = np.array(dmavals)
print(charges)
np.save('SSI-017MET-020LYS-1-dimer.npy', np.array(charges))--------------------------------------------------------------------------

*** tstart() called on ds3
*** at Sun Apr 26 16:57:28 2020

   => Loading Basis Set <=

    Name: CC-PVDZ
    Role: ORBITAL
    Keyword: BASIS
    atoms 1-2, 10-12 entry C          line   138 file /theoryfs2/ds/metcalf/miniconda2/envs/tf2gpu/share/psi4/basis/cc-pvdz.gbs
    atoms 3          entry S          line   598 file /theoryfs2/ds/metcalf/miniconda2/envs/tf2gpu/share/psi4/basis/cc-pvdz.gbs
    atoms 4-9, 13-20 entry H          line    22 file /theoryfs2/ds/metcalf/miniconda2/envs/tf2gpu/share/psi4/basis/cc-pvdz.gbs

         ---------------------------------------------------------
                                   SCF
               by Justin Turney, Rob Parrish, Andy Simmonett
                          and Daniel G. A. Smith
                              RHF Reference
                        1 Threads,    500 MiB Core
         ---------------------------------------------------------

  ==> Geometry <==

    Molecular point group: c1
    Full point group: C1

    Geometry (in Angstrom), charge = 0, multiplicity = 1:

       Center              X                  Y                   Z               Mass
    ------------   -----------------  -----------------  -----------------  -----------------
         C            1.411299816716    -0.051922168004     0.711292635262    12.000000000000
         C            0.579299816716     2.317077831996     1.969292635262    12.000000000000
         S            0.806299816716     1.595077831996     0.324292635262    31.972071174400
         H            0.621299816716    -0.754922168004     0.948292635262     1.007825032230
         H            1.933299816716    -0.437922168004    -0.165707364738     1.007825032230
         H            2.134299816716    -0.006922168004     1.526292635262     1.007825032230
         H           -0.203700183284     3.064077831996     1.886292635262     1.007825032230
         H            1.496299816716     2.849077831996     2.224292635262     1.007825032230
         H            0.348599816716     1.648607831996     2.811863635262     1.007825032230
         C           -0.768700183284    -2.193922168004    -1.337707364738    12.000000000000
         C           -1.581700183284    -2.529922168004    -0.091707364738    12.000000000000
         C           -1.424700183284    -1.053922168004    -2.110707364738    12.000000000000
         H            0.247299816716    -1.923922168004    -1.050707364738     1.007825032230
         H           -0.723700183284    -3.070922168004    -1.988707364738     1.007825032230
         H           -2.610700183284    -2.709922168004    -0.407707364738     1.007825032230
         H           -1.581700183284    -1.686922168004     0.596292635262     1.007825032230
         H           -2.406700183284    -1.386922168004    -2.464707364738     1.007825032230
         H           -1.584700183284    -0.213922168004    -1.426707364738     1.007825032230
         H           -1.191360183284    -3.422746168004     0.418683635262     1.007825032230
         H           -0.809710183284    -0.724642168004    -2.961213364738     1.007825032230

  Running in c1 symmetry.

  Rotational constants: A =      0.13677  B =      0.02849  C =      0.02714 [cm^-1]
  Rotational constants: A =   4100.27894  B =    854.00949  C =    813.57585 [MHz]
  Nuclear repulsion =  295.493702460803945

  Charge       = 0
  Multiplicity = 1
  Electrons    = 60
  Nalpha       = 30
  Nbeta        = 30

  ==> Algorithm <==

  SCF Algorithm Type is PK.
  DIIS enabled.
  MOM disabled.
  Fractional occupation disabled.
  Guess Type is SAD.
  Energy threshold   = 1.00e-06
  Density threshold  = 1.00e-10
  Integral threshold = 0.00e+00

  ==> Primary Basis <==

  Basis Set: CC-PVDZ
    Blend: CC-PVDZ
    Number of shells: 80
    Number of basis function: 158
    Number of Cartesian functions: 164
    Spherical Harmonics?: true
    Max angular momentum: 2

  ==> Pre-Iterations <==

   -------------------------------------------------------
    Irrep   Nso     Nmo     Nalpha   Nbeta   Ndocc  Nsocc
   -------------------------------------------------------
     A        158     158       0       0       0       0
   -------------------------------------------------------
    Total     158     158      30      30      30       0
   -------------------------------------------------------

  ==> Integral Setup <==

  Using integral reordering PK algorithm.
  Sizing the integral batches needed.
  Building batch lookup table.
   Calculation information:
      Number of atoms:                  20
      Number of AO shells:              80
      Number of primitives:            230
      Number of atomic orbitals:       164
      Number of basis functions:       158

      Integral cutoff                 1.00e-12
      Number of threads:                 1

	Batch   1 pq = [       0,    9405] index = [             0,44231715] size =     44231715
	Batch   2 pq = [    9405,   12561] index = [      44231715,78895641] size =     34663926
  Task number: 8
  Buffer size: 11059200
  Buffer per thread: 2
  We computed 4688854 shell quartets total.
  Whereas there are 5250420 unique shell quartets.

  ==> DiskJK: Disk-Based J/K Matrices <==

    J tasked:                  Yes
    K tasked:                  Yes
    wK tasked:                  No
    Memory [MiB]:              375
    Schwarz Cutoff:          1E-12

    OpenMP threads:              1

  Minimum eigenvalue in the overlap matrix is 5.5684433428E-03.
  Using Symmetric Orthogonalization.

  SCF Guess: Superposition of Atomic Densities via on-the-fly atomic UHF.

  ==> Iterations <==

                        Total Energy        Delta E     RMS |[F,P]|

   @RHF iter SAD:  -593.93230355725063   -5.93932e+02   0.00000e+00
   @RHF iter   1:  -594.84604033003814   -9.13737e-01   3.16788e-03 DIIS
   @RHF iter   2:  -594.99613472400711   -1.50094e-01   1.30509e-03 DIIS
   @RHF iter   3:  -595.01961746127574   -2.34827e-02   3.02649e-04 DIIS
   @RHF iter   4:  -595.02192675535036   -2.30929e-03   5.05725e-05 DIIS
   @RHF iter   5:  -595.02198128222858   -5.45269e-05   1.25268e-05 DIIS
   @RHF iter   6:  -595.02198474144598   -3.45922e-06   2.78968e-06 DIIS
   @RHF iter   7:  -595.02198492558387   -1.84138e-07   6.32580e-07 DIIS
   @RHF iter   8:  -595.02198494157165   -1.59878e-08   2.02802e-07 DIIS
   @RHF iter   9:  -595.02198494333197   -1.76033e-09   7.44809e-08 DIIS
   @RHF iter  10:  -595.02198494359914   -2.67164e-10   2.72220e-08 DIIS
   @RHF iter  11:  -595.02198494364097   -4.18368e-11   8.29846e-09 DIIS
   @RHF iter  12:  -595.02198494364711   -6.13909e-12   2.89556e-09 DIIS
   @RHF iter  13:  -595.02198494364450    2.61480e-12   7.37675e-10 DIIS
   @RHF iter  14:  -595.02198494364484   -3.41061e-13   2.20252e-10 DIIS
   @RHF iter  15:  -595.02198494364563   -7.95808e-13   6.99151e-11 DIIS
  Energy and wave function converged.

  ==> Post-Iterations <==

    Orbital Energies [Eh]
    ---------------------

    Doubly Occupied:

       1A    -91.938069     2A    -11.256217     3A    -11.254398
       4A    -11.217312     5A    -11.215734     6A    -11.211475
       7A     -8.941722     8A     -6.623870     9A     -6.622131
      10A     -6.619950    11A     -1.060809    12A     -1.053869
      13A     -0.954326    14A     -0.919112    15A     -0.809015
      16A     -0.794823    17A     -0.630419    18A     -0.599097
      19A     -0.595760    20A     -0.593383    21A     -0.577259
      22A     -0.563790    23A     -0.543591    24A     -0.525394
      25A     -0.496004    26A     -0.469571    27A     -0.469159
      28A     -0.465431    29A     -0.430937    30A     -0.331521

    Virtual:

      31A      0.169245    32A      0.180018    33A      0.204737
      34A      0.218996    35A      0.227053    36A      0.239292
      37A      0.244214    38A      0.253217    39A      0.258541
      40A      0.266937    41A      0.273110    42A      0.292485
      43A      0.298003    44A      0.311037    45A      0.321324
      46A      0.330601    47A      0.375846    48A      0.428788
      49A      0.528334    50A      0.563134    51A      0.583634
      52A      0.590993    53A      0.598876    54A      0.612379
      55A      0.619090    56A      0.627264    57A      0.640811
      58A      0.685943    59A      0.702197    60A      0.760383
      61A      0.768677    62A      0.794088    63A      0.804145
      64A      0.816966    65A      0.831592    66A      0.843402
      67A      0.862230    68A      0.862411    69A      0.864815
      70A      0.871546    71A      0.878942    72A      0.895605
      73A      0.901862    74A      0.907584    75A      0.912845
      76A      0.919708    77A      0.926942    78A      0.936485
      79A      0.940906    80A      0.951621    81A      0.973548
      82A      1.003742    83A      1.026682    84A      1.062386
      85A      1.132723    86A      1.135337    87A      1.171185
      88A      1.220085    89A      1.252295    90A      1.307508
      91A      1.317442    92A      1.347665    93A      1.367676
      94A      1.381639    95A      1.432984    96A      1.481348
      97A      1.489280    98A      1.532651    99A      1.558607
     100A      1.615980   101A      1.675971   102A      1.678588
     103A      1.687992   104A      1.695187   105A      1.723976
     106A      1.842814   107A      1.862559   108A      1.869175
     109A      1.877361   110A      1.892687   111A      1.897667
     112A      1.905480   113A      1.920961   114A      1.924568
     115A      1.946519   116A      1.955901   117A      1.965187
     118A      1.968331   119A      1.976916   120A      1.984950
     121A      1.987898   122A      2.008064   123A      2.016826
     124A      2.032408   125A      2.045473   126A      2.073901
     127A      2.098283   128A      2.140865   129A      2.158754
     130A      2.242999   131A      2.254234   132A      2.296331
     133A      2.305960   134A      2.314242   135A      2.335928
     136A      2.394839   137A      2.407765   138A      2.437746
     139A      2.453768   140A      2.504781   141A      2.534314
     142A      2.582660   143A      2.613820   144A      2.636525
     145A      2.725122   146A      2.759717   147A      2.766855
     148A      2.772762   149A      2.778122   150A      2.795739
     151A      2.804075   152A      2.825574   153A      2.827818
     154A      2.840177   155A      2.925644   156A      2.963946
     157A      2.978398   158A      3.076944

    Final Occupation by Irrep:
              A
    DOCC [    30 ]

  @RHF Final Energy:  -595.02198494364563

   => Energetics <=

    Nuclear Repulsion Energy =            295.4937024608039451
    One-Electron Energy =               -1401.4630777953711913
    Two-Electron Energy =                 510.9473903909216119
    Total Energy =                       -595.0219849436457480

Computation Completed

Properties will be evaluated at   0.000000,   0.000000,   0.000000 [a0]

Properties computed using the SCF density matrix

  Nuclear Dipole Moment: [e a0]
     X:    -4.0391      Y:    -8.1869      Z:    -0.0415

  Electronic Dipole Moment: [e a0]
     X:     4.1928      Y:     7.9677      Z:     0.6407

  Dipole Moment: [e a0]
     X:     0.1538      Y:    -0.2193      Z:     0.5992     Total:     0.6563

  Dipole Moment: [D]
     X:     0.3908      Y:    -0.5574      Z:     1.5230     Total:     1.6682

*** tstop() called on ds3 at Sun Apr 26 16:58:11 2020
Module time:
	user time   =      33.06 seconds =       0.55 minutes
	system time =      10.03 seconds =       0.17 minutes
	total time  =         43 seconds =       0.72 minutes
Total time:
	user time   =      33.06 seconds =       0.55 minutes
	system time =      10.03 seconds =       0.17 minutes
	total time  =         43 seconds =       0.72 minutes
                                     G D M A

                                 by Anthony Stone

                           version 2.2.06, 22 June 2011

               Distributed Multipoles from Gaussian wavefunctions

Starting at 16:58:11 on 26 Apr 2020

Using SCF density matrix from file ./SSI/SSI-017MET-020LYS-1-dimer.test.17025.fchk

                         Distributed Multipole Analysis

Standard DMA

Positions and radii in angstrom
Multipole moments in atomic units, ea_0^k for rank k

C          x =  1.411300  y = -0.051922  z =  0.711293 angstrom
           Maximum rank =  0   Radius =  0.650 angstrom
                   Q00  =  -0.354889

C          x =  0.579300  y =  2.317078  z =  1.969293 angstrom
           Maximum rank =  0   Radius =  0.650 angstrom
                   Q00  =  -0.367191

S          x =  0.806300  y =  1.595078  z =  0.324293 angstrom
           Maximum rank =  0   Radius =  0.650 angstrom
                   Q00  =   0.118130

H          x =  0.621300  y = -0.754922  z =  0.948293 angstrom
           Maximum rank =  0   Radius =  0.325 angstrom
                   Q00  =   0.089873

H          x =  1.933300  y = -0.437922  z = -0.165707 angstrom
           Maximum rank =  0   Radius =  0.325 angstrom
                   Q00  =   0.114046

H          x =  2.134300  y = -0.006922  z =  1.526293 angstrom
           Maximum rank =  0   Radius =  0.325 angstrom
                   Q00  =   0.091172

H          x = -0.203700  y =  3.064078  z =  1.886293 angstrom
           Maximum rank =  0   Radius =  0.325 angstrom
                   Q00  =   0.114532

H          x =  1.496300  y =  2.849078  z =  2.224293 angstrom
           Maximum rank =  0   Radius =  0.325 angstrom
                   Q00  =   0.087478

H          x =  0.348600  y =  1.648608  z =  2.811864 angstrom
           Maximum rank =  0   Radius =  0.325 angstrom
                   Q00  =   0.104674

C          x = -0.768700  y = -2.193922  z = -1.337707 angstrom
           Maximum rank =  0   Radius =  0.650 angstrom
                   Q00  =  -0.090441

C          x = -1.581700  y = -2.529922  z = -0.091707 angstrom
           Maximum rank =  0   Radius =  0.650 angstrom
                   Q00  =  -0.237741

C          x = -1.424700  y = -1.053922  z = -2.110707 angstrom
           Maximum rank =  0   Radius =  0.650 angstrom
                   Q00  =  -0.234609

H          x =  0.247300  y = -1.923922  z = -1.050707 angstrom
           Maximum rank =  0   Radius =  0.325 angstrom
                   Q00  =   0.044234

H          x = -0.723700  y = -3.070922  z = -1.988707 angstrom
           Maximum rank =  0   Radius =  0.325 angstrom
                   Q00  =   0.046241

H          x = -2.610700  y = -2.709922  z = -0.407707 angstrom
           Maximum rank =  0   Radius =  0.325 angstrom
                   Q00  =   0.076204

H          x = -1.581700  y = -1.686922  z =  0.596293 angstrom
           Maximum rank =  0   Radius =  0.325 angstrom
                   Q00  =   0.075891

H          x = -2.406700  y = -1.386922  z = -2.464707 angstrom
           Maximum rank =  0   Radius =  0.325 angstrom
                   Q00  =   0.072773

H          x = -1.584700  y = -0.213922  z = -1.426707 angstrom
           Maximum rank =  0   Radius =  0.325 angstrom
                   Q00  =   0.084185

H          x = -1.191360  y = -3.422746  z =  0.418684 angstrom
           Maximum rank =  0   Radius =  0.325 angstrom
                   Q00  =   0.080887

H          x = -0.809710  y = -0.724642  z = -2.961213 angstrom
           Maximum rank =  0   Radius =  0.325 angstrom
                   Q00  =   0.084551

Total multipoles referred to origin at
           x =   0.000000,  y =    0.000000,  z =    0.000000 angstrom
                   Q00  =  -0.000000

Finished at 16:58:11 on 26 Apr 2020

  DMA results are available in the Python driver through the
	  variable('DMA DISTRIBUTED MULTIPOLES')
  and
	  variable('DMA TOTAL MULTIPOLES')
  commands.

    Psi4 stopped on: Sunday, 26 April 2020 04:58PM
    Psi4 wall time for execution: 0:00:42.92

*** Psi4 exiting successfully. Buy a developer a beer!
