                               Psi4 1.3.2 release

  ==> Input File <==

--------------------------------------------------------------------------
import numpy as np
set {scf_type pk
basis cc-pvdz
d_convergence 10
gdma_switch   0
gdma_limit    0
gdma_origin   [ 0.0,  0.0,  0.0 ]
}
molecule test {
    units Angstrom
    0 1
    --
    0 1
    C                0.152519749447583    -2.580176526904133     2.368771167458236
    C               -1.417480250552417    -0.040176526904133     0.096771167458237
    C               -0.434480250552417    -0.400176526904133     1.052771167458237
    C               -0.649480250552417    -1.776176526904133     1.393771167458237
    C               -1.716480250552417    -2.188176526904133     0.656771167458237
    C               -1.500480250552417     1.235823473095867    -0.441228832541763
    C               -0.577480250552417     2.170823473095867    -0.016228832541763
    C                0.407519749447583     1.844823473095867     0.923771167458237
    C                0.494519749447583     0.562823473095867     1.453771167458237
    N               -2.182480250552417    -1.154176526904133    -0.122228832541763
    H               -2.265480250552417     1.488823473095867    -1.161228832541763
    H               -0.633480250552417     3.179823473095867    -0.395228832541763
    H               -2.975480250552417    -1.224176526904133    -0.751228832541763
    H                1.119519749447583     2.600823473095867     1.224771167458237
    H               -2.136480250552418    -3.189176526904133     0.686771167458237
    H                1.282519749447583     0.293823473095867     2.131771167458236
    H               -0.502480250552417    -3.294176526904132     2.872771167458236
    H                0.528519749447583    -1.894176526904133     3.128771167458237
    H                1.005729749447583    -3.110106526904133     1.920206167458237
    C                1.738519749447583     1.154823473095867    -2.425228832541764
    C                2.885519749447583     1.602823473095868    -1.553228832541763
    C                2.021519749447583    -0.313176526904133    -2.704228832541763
    H                1.687519749447583     1.733823473095868    -3.347228832541763
    H                0.801519749447583     1.231823473095867    -1.890228832541763
    H                3.725519749447583     1.906823473095867    -2.179228832541764
    H                2.565519749447582     2.418823473095868    -0.908228832541763
    H                2.625519749447583    -0.433176526904133    -3.593228832541763
    H                1.087519749447583    -0.859176526904133    -2.845228832541763
    H                3.143949749447583     0.694956473095867    -0.988433832541763
    H                2.544179749447583    -0.676736526904133    -1.807206832541763

}
e, wfn = energy('scf', return_wfn=True)
gdma(wfn)
dmavals = variable('DMA DISTRIBUTED MULTIPOLES')
charges = np.array(dmavals)
print(charges)
np.save('SSI-036TRP-049PRO-1-dimer.npy', np.array(charges))--------------------------------------------------------------------------

*** tstart() called on ds3
*** at Mon Apr 27 09:47:09 2020

   => Loading Basis Set <=

    Name: CC-PVDZ
    Role: ORBITAL
    Keyword: BASIS
    atoms 1-9, 20-22   entry C          line   138 file /theoryfs2/ds/metcalf/miniconda2/envs/tf2gpu/share/psi4/basis/cc-pvdz.gbs
    atoms 10           entry N          line   168 file /theoryfs2/ds/metcalf/miniconda2/envs/tf2gpu/share/psi4/basis/cc-pvdz.gbs
    atoms 11-19, 23-30 entry H          line    22 file /theoryfs2/ds/metcalf/miniconda2/envs/tf2gpu/share/psi4/basis/cc-pvdz.gbs

         ---------------------------------------------------------
                                   SCF
               by Justin Turney, Rob Parrish, Andy Simmonett
                          and Daniel G. A. Smith
                              RHF Reference
                        1 Threads,    500 MiB Core
         ---------------------------------------------------------

  ==> Geometry <==

    Molecular point group: c1
    Full point group: C1

    Geometry (in Angstrom), charge = 0, multiplicity = 1:

       Center              X                  Y                   Z               Mass
    ------------   -----------------  -----------------  -----------------  -----------------
         C            0.152519749448    -2.580176526904     2.368771167458    12.000000000000
         C           -1.417480250552    -0.040176526904     0.096771167458    12.000000000000
         C           -0.434480250552    -0.400176526904     1.052771167458    12.000000000000
         C           -0.649480250552    -1.776176526904     1.393771167458    12.000000000000
         C           -1.716480250552    -2.188176526904     0.656771167458    12.000000000000
         C           -1.500480250552     1.235823473096    -0.441228832542    12.000000000000
         C           -0.577480250552     2.170823473096    -0.016228832542    12.000000000000
         C            0.407519749448     1.844823473096     0.923771167458    12.000000000000
         C            0.494519749448     0.562823473096     1.453771167458    12.000000000000
         N           -2.182480250552    -1.154176526904    -0.122228832542    14.003074004430
         H           -2.265480250552     1.488823473096    -1.161228832542     1.007825032230
         H           -0.633480250552     3.179823473096    -0.395228832542     1.007825032230
         H           -2.975480250552    -1.224176526904    -0.751228832542     1.007825032230
         H            1.119519749448     2.600823473096     1.224771167458     1.007825032230
         H           -2.136480250552    -3.189176526904     0.686771167458     1.007825032230
         H            1.282519749448     0.293823473096     2.131771167458     1.007825032230
         H           -0.502480250552    -3.294176526904     2.872771167458     1.007825032230
         H            0.528519749448    -1.894176526904     3.128771167458     1.007825032230
         H            1.005729749448    -3.110106526904     1.920206167458     1.007825032230
         C            1.738519749448     1.154823473096    -2.425228832542    12.000000000000
         C            2.885519749448     1.602823473096    -1.553228832542    12.000000000000
         C            2.021519749448    -0.313176526904    -2.704228832542    12.000000000000
         H            1.687519749448     1.733823473096    -3.347228832542     1.007825032230
         H            0.801519749448     1.231823473096    -1.890228832542     1.007825032230
         H            3.725519749448     1.906823473096    -2.179228832542     1.007825032230
         H            2.565519749448     2.418823473096    -0.908228832542     1.007825032230
         H            2.625519749448    -0.433176526904    -3.593228832542     1.007825032230
         H            1.087519749448    -0.859176526904    -2.845228832542     1.007825032230
         H            3.143949749448     0.694956473096    -0.988433832542     1.007825032230
         H            2.544179749448    -0.676736526904    -1.807206832542     1.007825032230

  Running in c1 symmetry.

  Rotational constants: A =      0.03482  B =      0.01684  C =      0.01589 [cm^-1]
  Rotational constants: A =   1043.80252  B =    504.79341  C =    476.31472 [MHz]
  Nuclear repulsion =  772.379985911801214

  Charge       = 0
  Multiplicity = 1
  Electrons    = 96
  Nalpha       = 48
  Nbeta        = 48

  ==> Algorithm <==

  SCF Algorithm Type is PK.
  DIIS enabled.
  MOM disabled.
  Fractional occupation disabled.
  Guess Type is SAD.
  Energy threshold   = 1.00e-06
  Density threshold  = 1.00e-10
  Integral threshold = 0.00e+00

  ==> Primary Basis <==

  Basis Set: CC-PVDZ
    Blend: CC-PVDZ
    Number of shells: 129
    Number of basis function: 267
    Number of Cartesian functions: 280
    Spherical Harmonics?: true
    Max angular momentum: 2

  ==> Pre-Iterations <==

   -------------------------------------------------------
    Irrep   Nso     Nmo     Nalpha   Nbeta   Ndocc  Nsocc
   -------------------------------------------------------
     A        267     267       0       0       0       0
   -------------------------------------------------------
    Total     267     267      48      48      48       0
   -------------------------------------------------------

  ==> Integral Setup <==

  Using integral reordering PK algorithm.
  Sizing the integral batches needed.
  Building batch lookup table.
   Calculation information:
      Number of atoms:                  30
      Number of AO shells:             129
      Number of primitives:            371
      Number of atomic orbitals:       280
      Number of basis functions:       267

      Integral cutoff                 1.00e-12
      Number of threads:                 1

	Batch   1 pq = [       0,    9405] index = [             0,44231715] size =     44231715
	Batch   2 pq = [    9405,   13301] index = [      44231715,88464951] size =     44233236
	Batch   3 pq = [   13301,   16290] index = [      88464951,132690195] size =     44225244
	Batch   4 pq = [   16290,   18810] index = [     132690195,176917455] size =     44227260
	Batch   5 pq = [   18810,   21030] index = [     176917455,221140965] size =     44223510
	Batch   6 pq = [   21030,   23037] index = [     221140965,265363203] size =     44222238
	Batch   7 pq = [   23037,   24883] index = [     265363203,309594286] size =     44231083
	Batch   8 pq = [   24883,   26601] index = [     309594286,353819901] size =     44225615
	Batch   9 pq = [   26601,   28214] index = [     353819901,398029005] size =     44209104
	Batch  10 pq = [   28214,   29740] index = [     398029005,442248670] size =     44219665
	Batch  11 pq = [   29740,   31191] index = [     442248670,486454836] size =     44206166
	Batch  12 pq = [   31191,   32578] index = [     486454836,530679331] size =     44224495
	Batch  13 pq = [   32578,   33908] index = [     530679331,574893186] size =     44213855
	Batch  14 pq = [   33908,   35188] index = [     574893186,619115266] size =     44222080
	Batch  15 pq = [   35188,   35778] index = [     619115266,640050531] size =     20935265
  Task number: 58
  Buffer size: 11059200
  Buffer per thread: 2
  We computed 39646002 shell quartets total.
  Whereas there are 35158305 unique shell quartets.
    12.76 percent of shell quartets recomputed by reordering.

  ==> DiskJK: Disk-Based J/K Matrices <==

    J tasked:                  Yes
    K tasked:                  Yes
    wK tasked:                  No
    Memory [MiB]:              375
    Schwarz Cutoff:          1E-12

    OpenMP threads:              1

  Minimum eigenvalue in the overlap matrix is 2.3631680120E-04.
  Using Symmetric Orthogonalization.

  SCF Guess: Superposition of Atomic Densities via on-the-fly atomic UHF.

  ==> Iterations <==

                        Total Energy        Delta E     RMS |[F,P]|

   @RHF iter SAD:  -518.28244134234649   -5.18282e+02   0.00000e+00
   @RHF iter   1:  -518.46697230337304   -1.84531e-01   2.54382e-03 DIIS
   @RHF iter   2:  -518.72830456765121   -2.61332e-01   1.16658e-03 DIIS
   @RHF iter   3:  -518.77910678442890   -5.08022e-02   2.93944e-04 DIIS
   @RHF iter   4:  -518.78341998252279   -4.31320e-03   1.31503e-04 DIIS
   @RHF iter   5:  -518.78411332668736   -6.93344e-04   2.01842e-05 DIIS
   @RHF iter   6:  -518.78414540917265   -3.20825e-05   8.76301e-06 DIIS
   @RHF iter   7:  -518.78415195355183   -6.54438e-06   3.50051e-06 DIIS
   @RHF iter   8:  -518.78415358066673   -1.62711e-06   1.48703e-06 DIIS
   @RHF iter   9:  -518.78415395653747   -3.75871e-07   6.36782e-07 DIIS
   @RHF iter  10:  -518.78415402941869   -7.28812e-08   2.81798e-07 DIIS
   @RHF iter  11:  -518.78415404649274   -1.70741e-08   1.11452e-07 DIIS
   @RHF iter  12:  -518.78415404912516   -2.63242e-09   4.24283e-08 DIIS
   @RHF iter  13:  -518.78415404934901   -2.23849e-10   1.17026e-08 DIIS
   @RHF iter  14:  -518.78415404936356   -1.45519e-11   4.45173e-09 DIIS
   @RHF iter  15:  -518.78415404936993   -6.36646e-12   2.24005e-09 DIIS
   @RHF iter  16:  -518.78415404936152    8.41283e-12   1.01177e-09 DIIS
   @RHF iter  17:  -518.78415404936584   -4.32010e-12   5.00151e-10 DIIS
   @RHF iter  18:  -518.78415404936823   -2.38742e-12   1.73359e-10 DIIS
   @RHF iter  19:  -518.78415404937027   -2.04636e-12   6.33969e-11 DIIS
  Energy and wave function converged.

  ==> Post-Iterations <==

    Orbital Energies [Eh]
    ---------------------

    Doubly Occupied:

       1A    -15.603162     2A    -11.265362     3A    -11.265100
       4A    -11.231210     5A    -11.231081     6A    -11.229143
       7A    -11.227788     8A    -11.221930     9A    -11.221419
      10A    -11.218149    11A    -11.198584    12A    -11.198116
      13A    -11.195039    14A     -1.297197    15A     -1.132242
      16A     -1.075968    17A     -1.052422    18A     -0.999897
      19A     -0.989616    20A     -0.933421    21A     -0.902803
      22A     -0.842110    23A     -0.806349    24A     -0.784238
      25A     -0.754573    26A     -0.722197    27A     -0.664233
      28A     -0.644541    29A     -0.624345    30A     -0.605765
      31A     -0.601542    32A     -0.592994    33A     -0.592185
      34A     -0.569253    35A     -0.554233    36A     -0.539422
      37A     -0.530318    38A     -0.527049    39A     -0.501644
      40A     -0.496194    41A     -0.474126    42A     -0.472115
      43A     -0.466225    44A     -0.446702    45A     -0.444456
      46A     -0.374695    47A     -0.297001    48A     -0.276639

    Virtual:

      49A      0.122671    50A      0.166880    51A      0.177764
      52A      0.184671    53A      0.196479    54A      0.208055
      55A      0.218521    56A      0.225377    57A      0.226251
      58A      0.241611    59A      0.251476    60A      0.258563
      61A      0.264717    62A      0.276170    63A      0.286870
      64A      0.292122    65A      0.301941    66A      0.325021
      67A      0.348786    68A      0.349169    69A      0.372774
      70A      0.385162    71A      0.390048    72A      0.403813
      73A      0.421755    74A      0.445227    75A      0.452154
      76A      0.471233    77A      0.481626    78A      0.500373
      79A      0.511456    80A      0.569648    81A      0.589665
      82A      0.606221    83A      0.610485    84A      0.624461
      85A      0.635675    86A      0.643868    87A      0.646636
      88A      0.666971    89A      0.670778    90A      0.698167
      91A      0.708136    92A      0.722289    93A      0.732234
      94A      0.737656    95A      0.743740    96A      0.758525
      97A      0.761319    98A      0.766136    99A      0.780881
     100A      0.788786   101A      0.794945   102A      0.807217
     103A      0.819469   104A      0.844890   105A      0.854925
     106A      0.865303   107A      0.868800   108A      0.877886
     109A      0.881488   110A      0.884456   111A      0.887408
     112A      0.899389   113A      0.901363   114A      0.912745
     115A      0.923824   116A      0.929313   117A      0.934570
     118A      0.943377   119A      0.948897   120A      0.952253
     121A      0.957550   122A      0.962604   123A      0.979868
     124A      0.982447   125A      0.984930   126A      1.011935
     127A      1.025437   128A      1.049857   129A      1.070147
     130A      1.083843   131A      1.094597   132A      1.112249
     133A      1.126308   134A      1.136181   135A      1.142978
     136A      1.155183   137A      1.173835   138A      1.187434
     139A      1.214162   140A      1.224634   141A      1.230372
     142A      1.236020   143A      1.252921   144A      1.276978
     145A      1.285645   146A      1.303979   147A      1.323255
     148A      1.332497   149A      1.352400   150A      1.362649
     151A      1.378724   152A      1.417330   153A      1.444339
     154A      1.456381   155A      1.480838   156A      1.513110
     157A      1.518059   158A      1.550034   159A      1.570349
     160A      1.596242   161A      1.619002   162A      1.633599
     163A      1.638198   164A      1.643699   165A      1.648579
     166A      1.664055   167A      1.692558   168A      1.705518
     169A      1.725459   170A      1.739021   171A      1.750462
     172A      1.765956   173A      1.787096   174A      1.798349
     175A      1.807951   176A      1.819185   177A      1.843352
     178A      1.845293   179A      1.869232   180A      1.880471
     181A      1.893690   182A      1.894626   183A      1.900373
     184A      1.914453   185A      1.921426   186A      1.933730
     187A      1.938262   188A      1.945958   189A      1.949496
     190A      1.961527   191A      1.981825   192A      1.982771
     193A      1.991490   194A      1.994423   195A      2.005972
     196A      2.010553   197A      2.023278   198A      2.034637
     199A      2.048236   200A      2.049711   201A      2.061561
     202A      2.076766   203A      2.087368   204A      2.096428
     205A      2.107765   206A      2.114947   207A      2.126156
     208A      2.133938   209A      2.144921   210A      2.163653
     211A      2.168982   212A      2.177880   213A      2.192308
     214A      2.222044   215A      2.241397   216A      2.261801
     217A      2.275894   218A      2.287102   219A      2.308824
     220A      2.318325   221A      2.329307   222A      2.355951
     223A      2.371689   224A      2.381756   225A      2.406509
     226A      2.407694   227A      2.453299   228A      2.459140
     229A      2.463112   230A      2.470207   231A      2.527461
     232A      2.542660   233A      2.579600   234A      2.587326
     235A      2.600206   236A      2.636448   237A      2.659648
     238A      2.675261   239A      2.681104   240A      2.712737
     241A      2.727222   242A      2.766377   243A      2.774525
     244A      2.784001   245A      2.789079   246A      2.807609
     247A      2.819836   248A      2.825135   249A      2.834546
     250A      2.852315   251A      2.869841   252A      2.880359
     253A      2.888219   254A      2.923400   255A      2.952903
     256A      2.970314   257A      3.000080   258A      3.048352
     259A      3.062437   260A      3.077624   261A      3.104091
     262A      3.128017   263A      3.212010   264A      3.311865
     265A      3.380263   266A      3.744961   267A      3.965562

    Final Occupation by Irrep:
              A
    DOCC [    48 ]

  @RHF Final Energy:  -518.78415404937027

   => Energetics <=

    Nuclear Repulsion Energy =            772.3799859118012137
    One-Electron Energy =               -2234.5386955160875004
    Two-Electron Energy =                 943.3745555549160144
    Total Energy =                       -518.7841540493702723

Computation Completed

Properties will be evaluated at   0.000000,   0.000000,   0.000000 [a0]

Properties computed using the SCF density matrix

  Nuclear Dipole Moment: [e a0]
     X:    12.7598      Y:     0.8177      Z:    -7.4072

  Electronic Dipole Moment: [e a0]
     X:   -13.4930      Y:    -1.2926      Z:     7.1960

  Dipole Moment: [e a0]
     X:    -0.7332      Y:    -0.4749      Z:    -0.2112     Total:     0.8988

  Dipole Moment: [D]
     X:    -1.8637      Y:    -1.2071      Z:    -0.5367     Total:     2.2844

*** tstop() called on ds3 at Mon Apr 27 10:06:49 2020
Module time:
	user time   =     307.53 seconds =       5.13 minutes
	system time =      96.38 seconds =       1.61 minutes
	total time  =       1180 seconds =      19.67 minutes
Total time:
	user time   =     307.53 seconds =       5.13 minutes
	system time =      96.38 seconds =       1.61 minutes
	total time  =       1180 seconds =      19.67 minutes
                                     G D M A

                                 by Anthony Stone

                           version 2.2.06, 22 June 2011

               Distributed Multipoles from Gaussian wavefunctions

Starting at 10:6:49 on 27 Apr 2020

Using SCF density matrix from file ./SSI/SSI-036TRP-049PRO-1-dimer.test.1963.fchk

                         Distributed Multipole Analysis

Standard DMA

Positions and radii in angstrom
Multipole moments in atomic units, ea_0^k for rank k

C          x =  0.152520  y = -2.580177  z =  2.368771 angstrom
           Maximum rank =  0   Radius =  0.650 angstrom
                   Q00  =  -0.214429

C          x = -1.417480  y = -0.040177  z =  0.096771 angstrom
           Maximum rank =  0   Radius =  0.650 angstrom
                   Q00  =   0.275223

C          x = -0.434480  y = -0.400177  z =  1.052771 angstrom
           Maximum rank =  0   Radius =  0.650 angstrom
                   Q00  =  -0.050755

C          x = -0.649480  y = -1.776177  z =  1.393771 angstrom
           Maximum rank =  0   Radius =  0.650 angstrom
                   Q00  =  -0.123000

C          x = -1.716480  y = -2.188177  z =  0.656771 angstrom
           Maximum rank =  0   Radius =  0.650 angstrom
                   Q00  =   0.074209

C          x = -1.500480  y =  1.235823  z = -0.441229 angstrom
           Maximum rank =  0   Radius =  0.650 angstrom
                   Q00  =  -0.118709

C          x = -0.577480  y =  2.170823  z = -0.016229 angstrom
           Maximum rank =  0   Radius =  0.650 angstrom
                   Q00  =  -0.035919

C          x =  0.407520  y =  1.844823  z =  0.923771 angstrom
           Maximum rank =  0   Radius =  0.650 angstrom
                   Q00  =  -0.103772

C          x =  0.494520  y =  0.562823  z =  1.453771 angstrom
           Maximum rank =  0   Radius =  0.650 angstrom
                   Q00  =  -0.102573

N          x = -2.182480  y = -1.154177  z = -0.122229 angstrom
           Maximum rank =  0   Radius =  0.650 angstrom
                   Q00  =  -0.496580

H          x = -2.265480  y =  1.488823  z = -1.161229 angstrom
           Maximum rank =  0   Radius =  0.325 angstrom
                   Q00  =   0.073024

H          x = -0.633480  y =  3.179823  z = -0.395229 angstrom
           Maximum rank =  0   Radius =  0.325 angstrom
                   Q00  =   0.064054

H          x = -2.975480  y = -1.224177  z = -0.751229 angstrom
           Maximum rank =  0   Radius =  0.325 angstrom
                   Q00  =   0.218189

H          x =  1.119520  y =  2.600823  z =  1.224771 angstrom
           Maximum rank =  0   Radius =  0.325 angstrom
                   Q00  =   0.061766

H          x = -2.136480  y = -3.189177  z =  0.686771 angstrom
           Maximum rank =  0   Radius =  0.325 angstrom
                   Q00  =   0.101258

H          x =  1.282520  y =  0.293823  z =  2.131771 angstrom
           Maximum rank =  0   Radius =  0.325 angstrom
                   Q00  =   0.072129

H          x = -0.502480  y = -3.294177  z =  2.872771 angstrom
           Maximum rank =  0   Radius =  0.325 angstrom
                   Q00  =   0.104307

H          x =  0.528520  y = -1.894177  z =  3.128771 angstrom
           Maximum rank =  0   Radius =  0.325 angstrom
                   Q00  =   0.102772

H          x =  1.005730  y = -3.110107  z =  1.920206 angstrom
           Maximum rank =  0   Radius =  0.325 angstrom
                   Q00  =   0.101097

C          x =  1.738520  y =  1.154823  z = -2.425229 angstrom
           Maximum rank =  0   Radius =  0.650 angstrom
                   Q00  =  -0.103598

C          x =  2.885520  y =  1.602823  z = -1.553229 angstrom
           Maximum rank =  0   Radius =  0.650 angstrom
                   Q00  =  -0.213234

C          x =  2.021520  y = -0.313177  z = -2.704229 angstrom
           Maximum rank =  0   Radius =  0.650 angstrom
                   Q00  =  -0.223923

H          x =  1.687520  y =  1.733823  z = -3.347229 angstrom
           Maximum rank =  0   Radius =  0.325 angstrom
                   Q00  =   0.039949

H          x =  0.801520  y =  1.231823  z = -1.890229 angstrom
           Maximum rank =  0   Radius =  0.325 angstrom
                   Q00  =   0.085743

H          x =  3.725520  y =  1.906823  z = -2.179229 angstrom
           Maximum rank =  0   Radius =  0.325 angstrom
                   Q00  =   0.069239

H          x =  2.565520  y =  2.418823  z = -0.908229 angstrom
           Maximum rank =  0   Radius =  0.325 angstrom
                   Q00  =   0.076712

H          x =  2.625520  y = -0.433177  z = -3.593229 angstrom
           Maximum rank =  0   Radius =  0.325 angstrom
                   Q00  =   0.072255

H          x =  1.087520  y = -0.859177  z = -2.845229 angstrom
           Maximum rank =  0   Radius =  0.325 angstrom
                   Q00  =   0.080761

H          x =  3.143950  y =  0.694956  z = -0.988434 angstrom
           Maximum rank =  0   Radius =  0.325 angstrom
                   Q00  =   0.060301

H          x =  2.544180  y = -0.676737  z = -1.807207 angstrom
           Maximum rank =  0   Radius =  0.325 angstrom
                   Q00  =   0.053505

Total multipoles referred to origin at
           x =   0.000000,  y =    0.000000,  z =    0.000000 angstrom
                   Q00  =  -0.000000

Finished at 10:6:49 on 27 Apr 2020

  DMA results are available in the Python driver through the
	  variable('DMA DISTRIBUTED MULTIPOLES')
  and
	  variable('DMA TOTAL MULTIPOLES')
  commands.

    Psi4 stopped on: Monday, 27 April 2020 10:06AM
    Psi4 wall time for execution: 0:19:40.60

*** Psi4 exiting successfully. Buy a developer a beer!
