                               Psi4 1.3.2 release

  ==> Input File <==

--------------------------------------------------------------------------
import numpy as np
set {scf_type pk
basis cc-pvdz
d_convergence 10
gdma_switch   0
gdma_limit    0
gdma_origin   [ 0.0,  0.0,  0.0 ]
}
molecule test {
    units Angstrom
    0 1
    --
    0 1
    C               -1.199054129177691     1.452545120150849     1.977445833639653
    C               -0.141054129177691    -0.431454879849151     0.501445833639653
    C               -1.205054129177691     0.122545120150849     1.289445833639653
    C               -0.571054129177691    -1.702454879849151     0.038445833639653
    C               -2.208054129177691    -0.797454879849151     1.274445833639653
    C                1.134945870822309     0.016545120150849     0.140445833639653
    C                1.933945870822309    -0.793454879848151    -0.660554166360347
    C                1.477945870822309    -2.039454879849151    -1.108554166360347
    C                0.222945870822309    -2.509454879849151    -0.762554166360347
    N               -1.835054129177691    -1.892454879848151     0.527445833639653
    H                1.489945870822309     0.975545120150849     0.489445833639653
    H                2.911945870822309    -0.446454879849151    -0.964554166360347
    H                2.085945870822309    -2.601454879849151    -1.809554166360347
    H               -0.943054129177691     2.228545120150849     1.255445833639653
    H               -0.409054129177691     1.422545120150849     2.730445833639653
    H               -3.162054129177691    -0.687454879849151     1.773445833639653
    H               -2.433054129177691    -2.693454879849151     0.360445833639653
    H               -0.159054129177691    -3.446454879849151    -1.150554166360347
    H               -2.146994129177691     1.715265120150849     2.469775833639652
    C                0.897945870822309     3.559545120150849    -0.787554166360347
    C                1.445945870822309     3.776545120150849    -2.196554166360348
    H                1.708945870822309     3.288545120150849    -0.111554166360347
    H                0.434945870822309     4.470545120150849    -0.431554166360347
    H                0.149945870822309     2.768545120150849    -0.803554166360347
    H                0.594945870822309     4.044545120150849    -2.821554166360348
    H                1.906690870822309     2.856495120150849    -2.585420166360347
    H                2.160703870822309     4.612107120150850    -2.227474166360347

}
e, wfn = energy('scf', return_wfn=True)
gdma(wfn)
dmavals = variable('DMA DISTRIBUTED MULTIPOLES')
charges = np.array(dmavals)
print(charges)
np.save('SSI-037TRP-053LEU-1-dimer.npy', np.array(charges))--------------------------------------------------------------------------

*** tstart() called on ds3
*** at Mon Apr 27 17:42:00 2020

   => Loading Basis Set <=

    Name: CC-PVDZ
    Role: ORBITAL
    Keyword: BASIS
    atoms 1-9, 20-21   entry C          line   138 file /theoryfs2/ds/metcalf/miniconda2/envs/tf2gpu/share/psi4/basis/cc-pvdz.gbs
    atoms 10           entry N          line   168 file /theoryfs2/ds/metcalf/miniconda2/envs/tf2gpu/share/psi4/basis/cc-pvdz.gbs
    atoms 11-19, 22-27 entry H          line    22 file /theoryfs2/ds/metcalf/miniconda2/envs/tf2gpu/share/psi4/basis/cc-pvdz.gbs

         ---------------------------------------------------------
                                   SCF
               by Justin Turney, Rob Parrish, Andy Simmonett
                          and Daniel G. A. Smith
                              RHF Reference
                        1 Threads,    500 MiB Core
         ---------------------------------------------------------

  ==> Geometry <==

    Molecular point group: c1
    Full point group: C1

    Geometry (in Angstrom), charge = 0, multiplicity = 1:

       Center              X                  Y                   Z               Mass
    ------------   -----------------  -----------------  -----------------  -----------------
         C           -1.199054129178     1.452545120151     1.977445833640    12.000000000000
         C           -0.141054129178    -0.431454879849     0.501445833640    12.000000000000
         C           -1.205054129178     0.122545120151     1.289445833640    12.000000000000
         C           -0.571054129178    -1.702454879849     0.038445833640    12.000000000000
         C           -2.208054129178    -0.797454879849     1.274445833640    12.000000000000
         C            1.134945870822     0.016545120151     0.140445833640    12.000000000000
         C            1.933945870822    -0.793454879848    -0.660554166360    12.000000000000
         C            1.477945870822    -2.039454879849    -1.108554166360    12.000000000000
         C            0.222945870822    -2.509454879849    -0.762554166360    12.000000000000
         N           -1.835054129178    -1.892454879848     0.527445833640    14.003074004430
         H            1.489945870822     0.975545120151     0.489445833640     1.007825032230
         H            2.911945870822    -0.446454879849    -0.964554166360     1.007825032230
         H            2.085945870822    -2.601454879849    -1.809554166360     1.007825032230
         H           -0.943054129178     2.228545120151     1.255445833640     1.007825032230
         H           -0.409054129178     1.422545120151     2.730445833640     1.007825032230
         H           -3.162054129178    -0.687454879849     1.773445833640     1.007825032230
         H           -2.433054129178    -2.693454879849     0.360445833640     1.007825032230
         H           -0.159054129178    -3.446454879849    -1.150554166360     1.007825032230
         H           -2.146994129178     1.715265120151     2.469775833640     1.007825032230
         C            0.897945870822     3.559545120151    -0.787554166360    12.000000000000
         C            1.445945870822     3.776545120151    -2.196554166360    12.000000000000
         H            1.708945870822     3.288545120151    -0.111554166360     1.007825032230
         H            0.434945870822     4.470545120151    -0.431554166360     1.007825032230
         H            0.149945870822     2.768545120151    -0.803554166360     1.007825032230
         H            0.594945870822     4.044545120151    -2.821554166360     1.007825032230
         H            1.906690870822     2.856495120151    -2.585420166360     1.007825032230
         H            2.160703870822     4.612107120151    -2.227474166360     1.007825032230

  Running in c1 symmetry.

  Rotational constants: A =      0.03609  B =      0.02013  C =      0.01421 [cm^-1]
  Rotational constants: A =   1081.95591  B =    603.47884  C =    426.14815 [MHz]
  Nuclear repulsion =  654.251766572815995

  Charge       = 0
  Multiplicity = 1
  Electrons    = 88
  Nalpha       = 44
  Nbeta        = 44

  ==> Algorithm <==

  SCF Algorithm Type is PK.
  DIIS enabled.
  MOM disabled.
  Fractional occupation disabled.
  Guess Type is SAD.
  Energy threshold   = 1.00e-06
  Density threshold  = 1.00e-10
  Integral threshold = 0.00e+00

  ==> Primary Basis <==

  Basis Set: CC-PVDZ
    Blend: CC-PVDZ
    Number of shells: 117
    Number of basis function: 243
    Number of Cartesian functions: 255
    Spherical Harmonics?: true
    Max angular momentum: 2

  ==> Pre-Iterations <==

   -------------------------------------------------------
    Irrep   Nso     Nmo     Nalpha   Nbeta   Ndocc  Nsocc
   -------------------------------------------------------
     A        243     243       0       0       0       0
   -------------------------------------------------------
    Total     243     243      44      44      44       0
   -------------------------------------------------------

  ==> Integral Setup <==

  Using integral reordering PK algorithm.
  Sizing the integral batches needed.
  Building batch lookup table.
   Calculation information:
      Number of atoms:                  27
      Number of AO shells:             117
      Number of primitives:            339
      Number of atomic orbitals:       255
      Number of basis functions:       243

      Integral cutoff                 1.00e-12
      Number of threads:                 1

	Batch   1 pq = [       0,    9405] index = [             0,44231715] size =     44231715
	Batch   2 pq = [    9405,   13301] index = [      44231715,88464951] size =     44233236
	Batch   3 pq = [   13301,   16290] index = [      88464951,132690195] size =     44225244
	Batch   4 pq = [   16290,   18810] index = [     132690195,176917455] size =     44227260
	Batch   5 pq = [   18810,   21030] index = [     176917455,221140965] size =     44223510
	Batch   6 pq = [   21030,   23037] index = [     221140965,265363203] size =     44222238
	Batch   7 pq = [   23037,   24883] index = [     265363203,309594286] size =     44231083
	Batch   8 pq = [   24883,   26601] index = [     309594286,353819901] size =     44225615
	Batch   9 pq = [   26601,   28214] index = [     353819901,398029005] size =     44209104
	Batch  10 pq = [   28214,   29646] index = [     398029005,439457481] size =     41428476
  Task number: 40
  Buffer size: 11059200
  Buffer per thread: 2
  We computed 22197222 shell quartets total.
  Whereas there are 23829156 unique shell quartets.

  ==> DiskJK: Disk-Based J/K Matrices <==

    J tasked:                  Yes
    K tasked:                  Yes
    wK tasked:                  No
    Memory [MiB]:              375
    Schwarz Cutoff:          1E-12

    OpenMP threads:              1

  Minimum eigenvalue in the overlap matrix is 2.3727155232E-04.
  Using Symmetric Orthogonalization.

  SCF Guess: Superposition of Atomic Densities via on-the-fly atomic UHF.

  ==> Iterations <==

                        Total Energy        Delta E     RMS |[F,P]|

   @RHF iter SAD:  -479.06677353223984   -4.79067e+02   0.00000e+00
   @RHF iter   1:  -479.48893283457272   -4.22159e-01   2.60585e-03 DIIS
   @RHF iter   2:  -479.72164957754273   -2.32717e-01   1.15682e-03 DIIS
   @RHF iter   3:  -479.76347416885608   -4.18246e-02   3.03420e-04 DIIS
   @RHF iter   4:  -479.76729316298594   -3.81899e-03   1.39999e-04 DIIS
   @RHF iter   5:  -479.76794859026438   -6.55427e-04   2.02343e-05 DIIS
   @RHF iter   6:  -479.76797859815497   -3.00079e-05   9.28129e-06 DIIS
   @RHF iter   7:  -479.76798478346200   -6.18531e-06   3.89991e-06 DIIS
   @RHF iter   8:  -479.76798657976468   -1.79630e-06   1.54754e-06 DIIS
   @RHF iter   9:  -479.76798693889663   -3.59132e-07   6.88906e-07 DIIS
   @RHF iter  10:  -479.76798701161943   -7.27228e-08   3.14005e-07 DIIS
   @RHF iter  11:  -479.76798702850277   -1.68833e-08   1.16561e-07 DIIS
   @RHF iter  12:  -479.76798703076912   -2.26635e-09   3.91719e-08 DIIS
   @RHF iter  13:  -479.76798703093175   -1.62629e-10   1.11456e-08 DIIS
   @RHF iter  14:  -479.76798703094300   -1.12550e-11   4.96867e-09 DIIS
   @RHF iter  15:  -479.76798703094278    2.27374e-13   2.27473e-09 DIIS
   @RHF iter  16:  -479.76798703094107    1.70530e-12   9.70697e-10 DIIS
   @RHF iter  17:  -479.76798703093954    1.53477e-12   4.32154e-10 DIIS
   @RHF iter  18:  -479.76798703093942    1.13687e-13   1.58653e-10 DIIS
   @RHF iter  19:  -479.76798703094278   -3.35376e-12   5.48027e-11 DIIS
  Energy and wave function converged.

  ==> Post-Iterations <==

    Orbital Energies [Eh]
    ---------------------

    Doubly Occupied:

       1A    -15.599555     2A    -11.263280     3A    -11.262159
       4A    -11.229858     5A    -11.229460     6A    -11.228573
       7A    -11.225805     8A    -11.220232     9A    -11.219598
      10A    -11.217277    11A    -11.215173    12A    -11.212574
      13A     -1.294121    14A     -1.128301    15A     -1.073132
      16A     -1.016144    17A     -0.996788    18A     -0.986525
      19A     -0.931122    20A     -0.839724    21A     -0.833460
      22A     -0.803166    23A     -0.751903    24A     -0.718548
      25A     -0.661362    26A     -0.641613    27A     -0.603879
      28A     -0.597206    29A     -0.596524    30A     -0.589880
      31A     -0.587929    32A     -0.568584    33A     -0.551091
      34A     -0.535787    35A     -0.526812    36A     -0.497186
      37A     -0.493735    38A     -0.485246    39A     -0.480812
      40A     -0.470243    41A     -0.460575    42A     -0.371685
      43A     -0.294659    44A     -0.274563

    Virtual:

      45A      0.126464    46A      0.168675    47A      0.179064
      48A      0.181962    49A      0.196449    50A      0.206628
      51A      0.223024    52A      0.229376    53A      0.232044
      54A      0.252362    55A      0.253785    56A      0.266223
      57A      0.274196    58A      0.280898    59A      0.281863
      60A      0.298862    61A      0.327270    62A      0.337432
      63A      0.378358    64A      0.387288    65A      0.408795
      66A      0.411307    67A      0.428007    68A      0.445672
      69A      0.477058    70A      0.484642    71A      0.497976
      72A      0.510537    73A      0.594828    74A      0.600642
      75A      0.604568    76A      0.616258    77A      0.626588
      78A      0.633833    79A      0.655700    80A      0.665966
      81A      0.681808    82A      0.696854    83A      0.705899
      84A      0.712872    85A      0.720421    86A      0.735287
      87A      0.737993    88A      0.741048    89A      0.746719
      90A      0.761074    91A      0.771495    92A      0.784339
      93A      0.792351    94A      0.801380    95A      0.806695
      96A      0.829126    97A      0.864569    98A      0.869963
      99A      0.881031   100A      0.884087   101A      0.888989
     102A      0.891298   103A      0.899016   104A      0.908057
     105A      0.910448   106A      0.919621   107A      0.923554
     108A      0.937358   109A      0.944281   110A      0.960454
     111A      0.966497   112A      0.985431   113A      1.000616
     114A      1.006878   115A      1.020466   116A      1.037460
     117A      1.060439   118A      1.077448   119A      1.089428
     120A      1.127491   121A      1.133446   122A      1.140927
     123A      1.144482   124A      1.157345   125A      1.172585
     126A      1.179210   127A      1.205753   128A      1.223762
     129A      1.233015   130A      1.236952   131A      1.250851
     132A      1.258022   133A      1.272469   134A      1.295445
     135A      1.302393   136A      1.325755   137A      1.343965
     138A      1.362503   139A      1.373946   140A      1.401820
     141A      1.443810   142A      1.480004   143A      1.495110
     144A      1.526586   145A      1.569718   146A      1.575555
     147A      1.584716   148A      1.617406   149A      1.636317
     150A      1.649272   151A      1.661661   152A      1.683840
     153A      1.687358   154A      1.695563   155A      1.714749
     156A      1.744295   157A      1.764304   158A      1.780133
     159A      1.788372   160A      1.810458   161A      1.822414
     162A      1.829373   163A      1.863642   164A      1.875448
     165A      1.880462   166A      1.888972   167A      1.898274
     168A      1.919261   169A      1.920495   170A      1.924793
     171A      1.938304   172A      1.944302   173A      1.954048
     174A      1.957466   175A      1.962327   176A      1.977201
     177A      1.980207   178A      1.985891   179A      1.993799
     180A      2.019011   181A      2.019882   182A      2.035670
     183A      2.038312   184A      2.077991   185A      2.085447
     186A      2.092275   187A      2.102707   188A      2.109878
     189A      2.113128   190A      2.133087   191A      2.141704
     192A      2.146915   193A      2.150776   194A      2.168619
     195A      2.182083   196A      2.228513   197A      2.232488
     198A      2.294734   199A      2.300218   200A      2.307215
     201A      2.321084   202A      2.328270   203A      2.331489
     204A      2.356164   205A      2.394475   206A      2.441376
     207A      2.454702   208A      2.461916   209A      2.469349
     210A      2.488937   211A      2.534554   212A      2.563772
     213A      2.582470   214A      2.586478   215A      2.606924
     216A      2.654738   217A      2.663978   218A      2.674290
     219A      2.708343   220A      2.766243   221A      2.770624
     222A      2.781269   223A      2.792265   224A      2.798223
     225A      2.802108   226A      2.823418   227A      2.850682
     228A      2.867541   229A      2.871839   230A      2.879487
     231A      2.907530   232A      2.967598   233A      2.975625
     234A      2.979122   235A      3.037353   236A      3.055946
     237A      3.082155   238A      3.127335   239A      3.208399
     240A      3.310407   241A      3.384752   242A      3.744329
     243A      3.950503

    Final Occupation by Irrep:
              A
    DOCC [    44 ]

  @RHF Final Energy:  -479.76798703094278

   => Energetics <=

    Nuclear Repulsion Energy =            654.2517665728159955
    One-Electron Energy =               -1946.4678034419462165
    Two-Electron Energy =                 812.4480498381874440
    Total Energy =                       -479.7679870309427770

Computation Completed

Properties will be evaluated at   0.000000,   0.000000,   0.000000 [a0]

Properties computed using the SCF density matrix

  Nuclear Dipole Moment: [e a0]
     X:     3.9340      Y:    17.3556      Z:    -3.5890

  Electronic Dipole Moment: [e a0]
     X:    -4.6750      Y:   -17.6848      Z:     3.6750

  Dipole Moment: [e a0]
     X:    -0.7409      Y:    -0.3292      Z:     0.0860     Total:     0.8153

  Dipole Moment: [D]
     X:    -1.8833      Y:    -0.8366      Z:     0.2185     Total:     2.0723

*** tstop() called on ds3 at Mon Apr 27 17:46:10 2020
Module time:
	user time   =     186.76 seconds =       3.11 minutes
	system time =      72.76 seconds =       1.21 minutes
	total time  =        250 seconds =       4.17 minutes
Total time:
	user time   =     186.76 seconds =       3.11 minutes
	system time =      72.76 seconds =       1.21 minutes
	total time  =        250 seconds =       4.17 minutes
                                     G D M A

                                 by Anthony Stone

                           version 2.2.06, 22 June 2011

               Distributed Multipoles from Gaussian wavefunctions

Starting at 17:46:10 on 27 Apr 2020

Using SCF density matrix from file ./SSI/SSI-037TRP-053LEU-1-dimer.test.8038.fchk

                         Distributed Multipole Analysis

Standard DMA

Positions and radii in angstrom
Multipole moments in atomic units, ea_0^k for rank k

C          x = -1.199054  y =  1.452545  z =  1.977446 angstrom
           Maximum rank =  0   Radius =  0.650 angstrom
                   Q00  =  -0.205444

C          x = -0.141054  y = -0.431455  z =  0.501446 angstrom
           Maximum rank =  0   Radius =  0.650 angstrom
                   Q00  =  -0.062015

C          x = -1.205054  y =  0.122545  z =  1.289446 angstrom
           Maximum rank =  0   Radius =  0.650 angstrom
                   Q00  =  -0.122311

C          x = -0.571054  y = -1.702455  z =  0.038446 angstrom
           Maximum rank =  0   Radius =  0.650 angstrom
                   Q00  =   0.280993

C          x = -2.208054  y = -0.797455  z =  1.274446 angstrom
           Maximum rank =  0   Radius =  0.650 angstrom
                   Q00  =   0.069757

C          x =  1.134946  y =  0.016545  z =  0.140446 angstrom
           Maximum rank =  0   Radius =  0.650 angstrom
                   Q00  =  -0.095795

C          x =  1.933946  y = -0.793455  z = -0.660554 angstrom
           Maximum rank =  0   Radius =  0.650 angstrom
                   Q00  =  -0.101577

C          x =  1.477946  y = -2.039455  z = -1.108554 angstrom
           Maximum rank =  0   Radius =  0.650 angstrom
                   Q00  =  -0.038307

C          x =  0.222946  y = -2.509455  z = -0.762554 angstrom
           Maximum rank =  0   Radius =  0.650 angstrom
                   Q00  =  -0.122339

N          x = -1.835054  y = -1.892455  z =  0.527446 angstrom
           Maximum rank =  0   Radius =  0.650 angstrom
                   Q00  =  -0.497883

H          x =  1.489946  y =  0.975545  z =  0.489446 angstrom
           Maximum rank =  0   Radius =  0.325 angstrom
                   Q00  =   0.074379

H          x =  2.911946  y = -0.446455  z = -0.964554 angstrom
           Maximum rank =  0   Radius =  0.325 angstrom
                   Q00  =   0.058894

H          x =  2.085946  y = -2.601455  z = -1.809554 angstrom
           Maximum rank =  0   Radius =  0.325 angstrom
                   Q00  =   0.065026

H          x = -0.943054  y =  2.228545  z =  1.255446 angstrom
           Maximum rank =  0   Radius =  0.325 angstrom
                   Q00  =   0.103106

H          x = -0.409054  y =  1.422545  z =  2.730446 angstrom
           Maximum rank =  0   Radius =  0.325 angstrom
                   Q00  =   0.096620

H          x = -3.162054  y = -0.687455  z =  1.773446 angstrom
           Maximum rank =  0   Radius =  0.325 angstrom
                   Q00  =   0.100978

H          x = -2.433054  y = -2.693455  z =  0.360446 angstrom
           Maximum rank =  0   Radius =  0.325 angstrom
                   Q00  =   0.216008

H          x = -0.159054  y = -3.446455  z = -1.150554 angstrom
           Maximum rank =  0   Radius =  0.325 angstrom
                   Q00  =   0.073745

H          x = -2.146994  y =  1.715265  z =  2.469776 angstrom
           Maximum rank =  0   Radius =  0.325 angstrom
                   Q00  =   0.105479

C          x =  0.897946  y =  3.559545  z = -0.787554 angstrom
           Maximum rank =  0   Radius =  0.650 angstrom
                   Q00  =  -0.243568

C          x =  1.445946  y =  3.776545  z = -2.196554 angstrom
           Maximum rank =  0   Radius =  0.650 angstrom
                   Q00  =  -0.230853

H          x =  1.708946  y =  3.288545  z = -0.111554 angstrom
           Maximum rank =  0   Radius =  0.325 angstrom
                   Q00  =   0.073830

H          x =  0.434946  y =  4.470545  z = -0.431554 angstrom
           Maximum rank =  0   Radius =  0.325 angstrom
                   Q00  =   0.077157

H          x =  0.149946  y =  2.768545  z = -0.803554 angstrom
           Maximum rank =  0   Radius =  0.325 angstrom
                   Q00  =   0.087075

H          x =  0.594946  y =  4.044545  z = -2.821554 angstrom
           Maximum rank =  0   Radius =  0.325 angstrom
                   Q00  =   0.076304

H          x =  1.906691  y =  2.856495  z = -2.585420 angstrom
           Maximum rank =  0   Radius =  0.325 angstrom
                   Q00  =   0.083678

H          x =  2.160704  y =  4.612107  z = -2.227474 angstrom
           Maximum rank =  0   Radius =  0.325 angstrom
                   Q00  =   0.077062

Total multipoles referred to origin at
           x =   0.000000,  y =    0.000000,  z =    0.000000 angstrom
                   Q00  =  -0.000000

Finished at 17:46:10 on 27 Apr 2020

  DMA results are available in the Python driver through the
	  variable('DMA DISTRIBUTED MULTIPOLES')
  and
	  variable('DMA TOTAL MULTIPOLES')
  commands.

    Psi4 stopped on: Monday, 27 April 2020 05:46PM
    Psi4 wall time for execution: 0:04:10.35

*** Psi4 exiting successfully. Buy a developer a beer!
