                               Psi4 1.3.2 release

  ==> Input File <==

--------------------------------------------------------------------------
import numpy as np
set {scf_type pk
basis cc-pvdz
d_convergence 10
gdma_switch   0
gdma_limit    0
gdma_origin   [ 0.0,  0.0,  0.0 ]
}
molecule test {
    units Angstrom
    1 1
    --
    1 1
    C                2.746327498339717     1.606704671850717    -1.634926757455632
    N                1.352327498339717     1.147704671850717    -1.927926757455632
    H                0.835327498339717     0.966704671850717    -1.072926757454632
    H                0.850327498339717     1.838704671850717    -2.476926757455632
    H                1.361327498339717     0.285704671850717    -2.462926757455631
    H                2.703327498339717     2.589704671850717    -1.154926757454632
    H                3.304327498339717     1.719704671850717    -2.570926757455632
    H                3.298577498339717     0.921098671850717    -0.975406757454632
    C               -2.161672501660283     0.169704671850717     0.736073242545368
    C               -1.034672501660283    -0.781295328149283     0.955073242544368
    O               -0.091672501660283    -0.613295328149283     0.196073242545368
    N               -1.062672501660283    -1.687295328149284     1.950073242544368
    H               -2.912672501660283    -0.004295328149283     1.510073242545368
    H               -2.621672501660283    -0.055295328149283    -0.226926757455632
    H               -0.290672501660283    -2.333295328149283     2.037073242544369
    H               -1.880672501660283    -1.773295328149283     2.533073242545368
    H               -1.858902501660283     1.226610671850717     0.771813242545368

}
e, wfn = energy('scf', return_wfn=True)
gdma(wfn)
dmavals = variable('DMA DISTRIBUTED MULTIPOLES')
charges = np.array(dmavals)
print(charges)
np.save('SSI-002LYS-075ASN-1-dimer.npy', np.array(charges))--------------------------------------------------------------------------

*** tstart() called on ds3
*** at Sun Apr 26 20:08:21 2020

   => Loading Basis Set <=

    Name: CC-PVDZ
    Role: ORBITAL
    Keyword: BASIS
    atoms 1, 9-10    entry C          line   138 file /theoryfs2/ds/metcalf/miniconda2/envs/tf2gpu/share/psi4/basis/cc-pvdz.gbs
    atoms 2, 12      entry N          line   168 file /theoryfs2/ds/metcalf/miniconda2/envs/tf2gpu/share/psi4/basis/cc-pvdz.gbs
    atoms 3-8, 13-17 entry H          line    22 file /theoryfs2/ds/metcalf/miniconda2/envs/tf2gpu/share/psi4/basis/cc-pvdz.gbs
    atoms 11         entry O          line   198 file /theoryfs2/ds/metcalf/miniconda2/envs/tf2gpu/share/psi4/basis/cc-pvdz.gbs

         ---------------------------------------------------------
                                   SCF
               by Justin Turney, Rob Parrish, Andy Simmonett
                          and Daniel G. A. Smith
                              RHF Reference
                        1 Threads,    500 MiB Core
         ---------------------------------------------------------

  ==> Geometry <==

    Molecular point group: c1
    Full point group: C1

    Geometry (in Angstrom), charge = 1, multiplicity = 1:

       Center              X                  Y                   Z               Mass
    ------------   -----------------  -----------------  -----------------  -----------------
         C            2.746327498340     1.606704671851    -1.634926757456    12.000000000000
         N            1.352327498340     1.147704671851    -1.927926757456    14.003074004430
         H            0.835327498340     0.966704671851    -1.072926757455     1.007825032230
         H            0.850327498340     1.838704671851    -2.476926757456     1.007825032230
         H            1.361327498340     0.285704671851    -2.462926757456     1.007825032230
         H            2.703327498340     2.589704671851    -1.154926757455     1.007825032230
         H            3.304327498340     1.719704671851    -2.570926757456     1.007825032230
         H            3.298577498340     0.921098671851    -0.975406757455     1.007825032230
         C           -2.161672501660     0.169704671851     0.736073242545    12.000000000000
         C           -1.034672501660    -0.781295328149     0.955073242544    12.000000000000
         O           -0.091672501660    -0.613295328149     0.196073242545    15.994914619570
         N           -1.062672501660    -1.687295328149     1.950073242544    14.003074004430
         H           -2.912672501660    -0.004295328149     1.510073242545     1.007825032230
         H           -2.621672501660    -0.055295328149    -0.226926757456     1.007825032230
         H           -0.290672501660    -2.333295328149     2.037073242544     1.007825032230
         H           -1.880672501660    -1.773295328149     2.533073242545     1.007825032230
         H           -1.858902501660     1.226610671851     0.771813242545     1.007825032230

  Running in c1 symmetry.

  Rotational constants: A =      0.23294  B =      0.03269  C =      0.02990 [cm^-1]
  Rotational constants: A =   6983.39910  B =    980.08415  C =    896.52138 [MHz]
  Nuclear repulsion =  240.019540815709121

  Charge       = 1
  Multiplicity = 1
  Electrons    = 50
  Nalpha       = 25
  Nbeta        = 25

  ==> Algorithm <==

  SCF Algorithm Type is PK.
  DIIS enabled.
  MOM disabled.
  Fractional occupation disabled.
  Guess Type is SAD.
  Energy threshold   = 1.00e-06
  Density threshold  = 1.00e-10
  Integral threshold = 0.00e+00

  ==> Primary Basis <==

  Basis Set: CC-PVDZ
    Blend: CC-PVDZ
    Number of shells: 69
    Number of basis function: 139
    Number of Cartesian functions: 145
    Spherical Harmonics?: true
    Max angular momentum: 2

  ==> Pre-Iterations <==

   -------------------------------------------------------
    Irrep   Nso     Nmo     Nalpha   Nbeta   Ndocc  Nsocc
   -------------------------------------------------------
     A        139     139       0       0       0       0
   -------------------------------------------------------
    Total     139     139      25      25      25       0
   -------------------------------------------------------

  ==> Integral Setup <==

  Using integral reordering PK algorithm.
  Sizing the integral batches needed.
  Building batch lookup table.
   Calculation information:
      Number of atoms:                  17
      Number of AO shells:              69
      Number of primitives:            187
      Number of atomic orbitals:       145
      Number of basis functions:       139

      Integral cutoff                 1.00e-12
      Number of threads:                 1

	Batch   1 pq = [       0,    9730] index = [             0,47341315] size =     47341315
  Task number: 5
  Buffer size: 11059200
  Buffer per thread: 2
  We computed 2252544 shell quartets total.
  Whereas there are 2917320 unique shell quartets.

  ==> DiskJK: Disk-Based J/K Matrices <==

    J tasked:                  Yes
    K tasked:                  Yes
    wK tasked:                  No
    Memory [MiB]:              375
    Schwarz Cutoff:          1E-12

    OpenMP threads:              1

  Minimum eigenvalue in the overlap matrix is 4.3931932994E-03.
  Using Symmetric Orthogonalization.

  SCF Guess: Superposition of Atomic Densities via on-the-fly atomic UHF.

  ==> Iterations <==

                        Total Energy        Delta E     RMS |[F,P]|

   @RHF iter SAD:  -302.74727430076882   -3.02747e+02   0.00000e+00
   @RHF iter   1:  -303.42421089140083   -6.76937e-01   4.21918e-03 DIIS
   @RHF iter   2:  -303.57447988224550   -1.50269e-01   2.18513e-03 DIIS
   @RHF iter   3:  -303.60888396374060   -3.44041e-02   5.34258e-04 DIIS
   @RHF iter   4:  -303.61204490233251   -3.16094e-03   1.78839e-04 DIIS
   @RHF iter   5:  -303.61241758652966   -3.72684e-04   3.16428e-05 DIIS
   @RHF iter   6:  -303.61243937431180   -2.17878e-05   1.30918e-05 DIIS
   @RHF iter   7:  -303.61244204439623   -2.67008e-06   4.29576e-06 DIIS
   @RHF iter   8:  -303.61244259991770   -5.55521e-07   1.40569e-06 DIIS
   @RHF iter   9:  -303.61244266075016   -6.08325e-08   3.53258e-07 DIIS
   @RHF iter  10:  -303.61244266457101   -3.82084e-09   9.55007e-08 DIIS
   @RHF iter  11:  -303.61244266477729   -2.06285e-10   2.95071e-08 DIIS
   @RHF iter  12:  -303.61244266479537   -1.80762e-11   7.63089e-09 DIIS
   @RHF iter  13:  -303.61244266479628   -9.09495e-13   2.16809e-09 DIIS
   @RHF iter  14:  -303.61244266479650   -2.27374e-13   9.44746e-10 DIIS
   @RHF iter  15:  -303.61244266479656   -5.68434e-14   3.13850e-10 DIIS
   @RHF iter  16:  -303.61244266479645    1.13687e-13   1.42206e-10 DIIS
   @RHF iter  17:  -303.61244266479679   -3.41061e-13   6.36112e-11 DIIS
  Energy and wave function converged.

  ==> Post-Iterations <==

    Orbital Energies [Eh]
    ---------------------

    Doubly Occupied:

       1A    -20.639675     2A    -15.879747     3A    -15.709014
       4A    -11.477800     5A    -11.470456     6A    -11.354527
       7A     -1.506715     8A     -1.495092     9A     -1.332972
      10A     -1.143453    11A     -1.119582    12A     -0.954412
      13A     -0.951153    14A     -0.914423    15A     -0.842607
      16A     -0.838464    17A     -0.790293    18A     -0.745283
      19A     -0.743944    20A     -0.735101    21A     -0.704032
      22A     -0.673702    23A     -0.640875    24A     -0.542634
      25A     -0.534736

    Virtual:

      26A     -0.024915    27A      0.040761    28A      0.044367
      29A      0.054855    30A      0.072002    31A      0.089263
      32A      0.102785    33A      0.105459    34A      0.121831
      35A      0.127852    36A      0.164058    37A      0.176128
      38A      0.181298    39A      0.274304    40A      0.347543
      41A      0.391886    42A      0.392405    43A      0.442540
      44A      0.453952    45A      0.515765    46A      0.527559
      47A      0.548807    48A      0.564357    49A      0.577531
      50A      0.595669    51A      0.621170    52A      0.626221
      53A      0.667322    54A      0.674389    55A      0.680498
      56A      0.712688    57A      0.721936    58A      0.739559
      59A      0.776201    60A      0.781235    61A      0.803508
      62A      0.808135    63A      0.821474    64A      0.876156
      65A      0.884252    66A      0.897311    67A      0.919863
      68A      0.938682    69A      0.946374    70A      1.006347
      71A      1.030559    72A      1.092182    73A      1.204416
      74A      1.228997    75A      1.273417    76A      1.277125
      77A      1.285714    78A      1.317744    79A      1.329426
      80A      1.336246    81A      1.352710    82A      1.483803
      83A      1.500789    84A      1.524912    85A      1.551044
      86A      1.593249    87A      1.624090    88A      1.667763
      89A      1.699358    90A      1.708872    91A      1.717834
      92A      1.739761    93A      1.740192    94A      1.750257
      95A      1.762272    96A      1.778081    97A      1.805928
      98A      1.817994    99A      1.855594   100A      1.930275
     101A      1.939159   102A      1.948691   103A      1.959067
     104A      1.969657   105A      1.980352   106A      2.009900
     107A      2.025930   108A      2.137436   109A      2.149535
     110A      2.194509   111A      2.270472   112A      2.277900
     113A      2.283431   114A      2.305268   115A      2.368942
     116A      2.375556   117A      2.425331   118A      2.456423
     119A      2.490677   120A      2.499492   121A      2.523715
     122A      2.545589   123A      2.625899   124A      2.657086
     125A      2.694823   126A      2.709542   127A      2.734625
     128A      2.754774   129A      2.783491   130A      2.830094
     131A      2.961406   132A      2.994348   133A      3.089811
     134A      3.126077   135A      3.162993   136A      3.367578
     137A      3.392999   138A      3.734199   139A      3.802271

    Final Occupation by Irrep:
              A
    DOCC [    25 ]

  @RHF Final Energy:  -303.61244266479679

   => Energetics <=

    Nuclear Repulsion Energy =            240.0195408157091208
    One-Electron Energy =                -879.7825893085097277
    Two-Electron Energy =                 336.1506058280038474
    Total Energy =                       -303.6124426647967880

Computation Completed

Properties will be evaluated at   0.000000,   0.000000,   0.000000 [a0]

Properties computed using the SCF density matrix

  Nuclear Dipole Moment: [e a0]
     X:     2.6130      Y:     5.0441      Z:    -3.8324

  Electronic Dipole Moment: [e a0]
     X:    -1.2094      Y:    -3.5357      Z:     1.8635

  Dipole Moment: [e a0]
     X:     1.4035      Y:     1.5084      Z:    -1.9689     Total:     2.8499

  Dipole Moment: [D]
     X:     3.5674      Y:     3.8341      Z:    -5.0044     Total:     7.2436

*** tstop() called on ds3 at Sun Apr 26 20:08:45 2020
Module time:
	user time   =      15.14 seconds =       0.25 minutes
	system time =       7.28 seconds =       0.12 minutes
	total time  =         24 seconds =       0.40 minutes
Total time:
	user time   =      15.14 seconds =       0.25 minutes
	system time =       7.28 seconds =       0.12 minutes
	total time  =         24 seconds =       0.40 minutes
                                     G D M A

                                 by Anthony Stone

                           version 2.2.06, 22 June 2011

               Distributed Multipoles from Gaussian wavefunctions

Starting at 20:8:45 on 26 Apr 2020

Using SCF density matrix from file ./SSI/SSI-002LYS-075ASN-1-dimer.test.12200.fchk

                         Distributed Multipole Analysis

Standard DMA

Positions and radii in angstrom
Multipole moments in atomic units, ea_0^k for rank k

C          x =  2.746327  y =  1.606705  z = -1.634927 angstrom
           Maximum rank =  0   Radius =  0.650 angstrom
                   Q00  =  -0.151761

N          x =  1.352327  y =  1.147705  z = -1.927927 angstrom
           Maximum rank =  0   Radius =  0.650 angstrom
                   Q00  =  -0.136325

H          x =  0.835328  y =  0.966705  z = -1.072927 angstrom
           Maximum rank =  0   Radius =  0.325 angstrom
                   Q00  =   0.283804

H          x =  0.850327  y =  1.838705  z = -2.476927 angstrom
           Maximum rank =  0   Radius =  0.325 angstrom
                   Q00  =   0.249724

H          x =  1.361327  y =  0.285705  z = -2.462927 angstrom
           Maximum rank =  0   Radius =  0.325 angstrom
                   Q00  =   0.260857

H          x =  2.703328  y =  2.589705  z = -1.154927 angstrom
           Maximum rank =  0   Radius =  0.325 angstrom
                   Q00  =   0.155073

H          x =  3.304328  y =  1.719705  z = -2.570927 angstrom
           Maximum rank =  0   Radius =  0.325 angstrom
                   Q00  =   0.154030

H          x =  3.298578  y =  0.921099  z = -0.975407 angstrom
           Maximum rank =  0   Radius =  0.325 angstrom
                   Q00  =   0.169638

C          x = -2.161673  y =  0.169705  z =  0.736073 angstrom
           Maximum rank =  0   Radius =  0.650 angstrom
                   Q00  =  -0.254593

C          x = -1.034673  y = -0.781295  z =  0.955073 angstrom
           Maximum rank =  0   Radius =  0.650 angstrom
                   Q00  =   0.818526

O          x = -0.091673  y = -0.613295  z =  0.196073 angstrom
           Maximum rank =  0   Radius =  0.650 angstrom
                   Q00  =  -0.822243

N          x = -1.062673  y = -1.687295  z =  1.950073 angstrom
           Maximum rank =  0   Radius =  0.650 angstrom
                   Q00  =  -0.560402

H          x = -2.912673  y = -0.004295  z =  1.510073 angstrom
           Maximum rank =  0   Radius =  0.325 angstrom
                   Q00  =   0.094512

H          x = -2.621673  y = -0.055295  z = -0.226927 angstrom
           Maximum rank =  0   Radius =  0.325 angstrom
                   Q00  =   0.134848

H          x = -0.290673  y = -2.333295  z =  2.037073 angstrom
           Maximum rank =  0   Radius =  0.325 angstrom
                   Q00  =   0.242471

H          x = -1.880673  y = -1.773295  z =  2.533073 angstrom
           Maximum rank =  0   Radius =  0.325 angstrom
                   Q00  =   0.237188

H          x = -1.858903  y =  1.226611  z =  0.771813 angstrom
           Maximum rank =  0   Radius =  0.325 angstrom
                   Q00  =   0.124654

Total multipoles referred to origin at
           x =   0.000000,  y =    0.000000,  z =    0.000000 angstrom
                   Q00  =   1.000000

Finished at 20:8:45 on 26 Apr 2020

  DMA results are available in the Python driver through the
	  variable('DMA DISTRIBUTED MULTIPOLES')
  and
	  variable('DMA TOTAL MULTIPOLES')
  commands.

    Psi4 stopped on: Sunday, 26 April 2020 08:08PM
    Psi4 wall time for execution: 0:00:23.72

*** Psi4 exiting successfully. Buy a developer a beer!
