                               Psi4 1.3.2 release

  ==> Input File <==

--------------------------------------------------------------------------
import numpy as np
set {scf_type pk
basis cc-pvdz
d_convergence 10
gdma_switch   0
gdma_limit    0
gdma_origin   [ 0.0,  0.0,  0.0 ]
}
molecule test {
    units Angstrom
    0 1
    --
    0 1
    C                1.301330864053361    -1.260513504095823     1.890944030416327
    C                1.479330864053360    -0.084513504095823     2.922944030416327
    C                1.154330864053360    -2.446513504095823     2.836944030416327
    H                2.183330864053361    -1.382513504095823     1.262944030416327
    H                0.414330864053360    -1.185513504095823     1.258944030416327
    H                2.477330864053360    -0.093513504095823     3.373944030416327
    H                1.296330864053360     0.887486495904177     2.469944030416327
    H                0.559330864053361    -3.257513504095823     2.419944030416327
    H                0.716804864053360    -0.325613504095823     3.678204030416327
    H                0.613307864053360    -2.024213504095823     3.696574030416327
    H                2.146870864053360    -2.839053504095823     3.102974030416327
    C                0.745330864053360     1.884486495904177    -2.779055969583673
    C               -1.704669135946640    -0.363513504095823    -0.069055969583673
    C               -1.182669135946639    -0.989513504095823    -1.207055969583673
    C               -1.403669135946640     0.997486495904177     0.196944030416327
    C               -0.370669135946640    -0.251513504095823    -2.069055969583673
    C               -0.575669135946640     1.715486495904177    -0.675055969583673
    C               -0.068669135946640     1.090486495904177    -1.812055969583673
    H               -2.338669135946639    -0.926513504095823     0.606944030416327
    H               -1.406669135946640    -2.026513504095823    -1.415055969583673
    H               -1.808669135946640     1.491486495904177     1.071944030416327
    H                0.035330864053360    -0.716513504095823    -2.955055969583673
    H               -0.333669135946640     2.749486495904177    -0.472055969583673
    H                1.485330864053360     1.208486495904177    -3.199055969583673
    H                1.252330864053360     2.657486495904177    -2.203055969583673
    H                0.157045864053360     2.307856495904177    -3.606505969583673

}
e, wfn = energy('scf', return_wfn=True)
gdma(wfn)
dmavals = variable('DMA DISTRIBUTED MULTIPOLES')
charges = np.array(dmavals)
print(charges)
np.save('SSI-061PRO-088PHE-1-dimer.npy', np.array(charges))--------------------------------------------------------------------------

*** tstart() called on ds3
*** at Mon Apr 27 17:39:10 2020

   => Loading Basis Set <=

    Name: CC-PVDZ
    Role: ORBITAL
    Keyword: BASIS
    atoms 1-3, 12-18  entry C          line   138 file /theoryfs2/ds/metcalf/miniconda2/envs/tf2gpu/share/psi4/basis/cc-pvdz.gbs
    atoms 4-11, 19-26 entry H          line    22 file /theoryfs2/ds/metcalf/miniconda2/envs/tf2gpu/share/psi4/basis/cc-pvdz.gbs

         ---------------------------------------------------------
                                   SCF
               by Justin Turney, Rob Parrish, Andy Simmonett
                          and Daniel G. A. Smith
                              RHF Reference
                        1 Threads,    500 MiB Core
         ---------------------------------------------------------

  ==> Geometry <==

    Molecular point group: c1
    Full point group: C1

    Geometry (in Angstrom), charge = 0, multiplicity = 1:

       Center              X                  Y                   Z               Mass
    ------------   -----------------  -----------------  -----------------  -----------------
         C            1.301330864053    -1.260513504096     1.890944030416    12.000000000000
         C            1.479330864053    -0.084513504096     2.922944030416    12.000000000000
         C            1.154330864053    -2.446513504096     2.836944030416    12.000000000000
         H            2.183330864053    -1.382513504096     1.262944030416     1.007825032230
         H            0.414330864053    -1.185513504096     1.258944030416     1.007825032230
         H            2.477330864053    -0.093513504096     3.373944030416     1.007825032230
         H            1.296330864053     0.887486495904     2.469944030416     1.007825032230
         H            0.559330864053    -3.257513504096     2.419944030416     1.007825032230
         H            0.716804864053    -0.325613504096     3.678204030416     1.007825032230
         H            0.613307864053    -2.024213504096     3.696574030416     1.007825032230
         H            2.146870864053    -2.839053504096     3.102974030416     1.007825032230
         C            0.745330864053     1.884486495904    -2.779055969584    12.000000000000
         C           -1.704669135947    -0.363513504096    -0.069055969584    12.000000000000
         C           -1.182669135947    -0.989513504096    -1.207055969584    12.000000000000
         C           -1.403669135947     0.997486495904     0.196944030416    12.000000000000
         C           -0.370669135947    -0.251513504096    -2.069055969584    12.000000000000
         C           -0.575669135947     1.715486495904    -0.675055969584    12.000000000000
         C           -0.068669135947     1.090486495904    -1.812055969584    12.000000000000
         H           -2.338669135947    -0.926513504096     0.606944030416     1.007825032230
         H           -1.406669135947    -2.026513504096    -1.415055969584     1.007825032230
         H           -1.808669135947     1.491486495904     1.071944030416     1.007825032230
         H            0.035330864053    -0.716513504096    -2.955055969584     1.007825032230
         H           -0.333669135947     2.749486495904    -0.472055969584     1.007825032230
         H            1.485330864053     1.208486495904    -3.199055969584     1.007825032230
         H            1.252330864053     2.657486495904    -2.203055969584     1.007825032230
         H            0.157045864053     2.307856495904    -3.606505969584     1.007825032230

  Running in c1 symmetry.

  Rotational constants: A =      0.06070  B =      0.02010  C =      0.01894 [cm^-1]
  Rotational constants: A =   1819.74590  B =    602.70511  C =    567.87622 [MHz]
  Nuclear repulsion =  492.094727722128596

  Charge       = 0
  Multiplicity = 1
  Electrons    = 76
  Nalpha       = 38
  Nbeta        = 38

  ==> Algorithm <==

  SCF Algorithm Type is PK.
  DIIS enabled.
  MOM disabled.
  Fractional occupation disabled.
  Guess Type is SAD.
  Energy threshold   = 1.00e-06
  Density threshold  = 1.00e-10
  Integral threshold = 0.00e+00

  ==> Primary Basis <==

  Basis Set: CC-PVDZ
    Blend: CC-PVDZ
    Number of shells: 108
    Number of basis function: 220
    Number of Cartesian functions: 230
    Spherical Harmonics?: true
    Max angular momentum: 2

  ==> Pre-Iterations <==

   -------------------------------------------------------
    Irrep   Nso     Nmo     Nalpha   Nbeta   Ndocc  Nsocc
   -------------------------------------------------------
     A        220     220       0       0       0       0
   -------------------------------------------------------
    Total     220     220      38      38      38       0
   -------------------------------------------------------

  ==> Integral Setup <==

  Using integral reordering PK algorithm.
  Sizing the integral batches needed.
  Building batch lookup table.
   Calculation information:
      Number of atoms:                  26
      Number of AO shells:             108
      Number of primitives:            300
      Number of atomic orbitals:       230
      Number of basis functions:       220

      Integral cutoff                 1.00e-12
      Number of threads:                 1

	Batch   1 pq = [       0,    9405] index = [             0,44231715] size =     44231715
	Batch   2 pq = [    9405,   13301] index = [      44231715,88464951] size =     44233236
	Batch   3 pq = [   13301,   16290] index = [      88464951,132690195] size =     44225244
	Batch   4 pq = [   16290,   18810] index = [     132690195,176917455] size =     44227260
	Batch   5 pq = [   18810,   21030] index = [     176917455,221140965] size =     44223510
	Batch   6 pq = [   21030,   23037] index = [     221140965,265363203] size =     44222238
	Batch   7 pq = [   23037,   24310] index = [     265363203,295500205] size =     30137002
  Task number: 27
  Buffer size: 11059200
  Buffer per thread: 2
  We computed 16009809 shell quartets total.
  Whereas there are 17325441 unique shell quartets.

  ==> DiskJK: Disk-Based J/K Matrices <==

    J tasked:                  Yes
    K tasked:                  Yes
    wK tasked:                  No
    Memory [MiB]:              375
    Schwarz Cutoff:          1E-12

    OpenMP threads:              1

  Minimum eigenvalue in the overlap matrix is 3.2989868641E-04.
  Using Symmetric Orthogonalization.

  SCF Guess: Superposition of Atomic Densities via on-the-fly atomic UHF.

  ==> Iterations <==

                        Total Energy        Delta E     RMS |[F,P]|

   @RHF iter SAD:  -386.85915688219382   -3.86859e+02   0.00000e+00
   @RHF iter   1:  -387.75328658208838   -8.94130e-01   2.73315e-03 DIIS
   @RHF iter   2:  -387.96873318314420   -2.15447e-01   1.15093e-03 DIIS
   @RHF iter   3:  -388.00356687317640   -3.48337e-02   2.51730e-04 DIIS
   @RHF iter   4:  -388.00639817056026   -2.83130e-03   5.93309e-05 DIIS
   @RHF iter   5:  -388.00650620400313   -1.08033e-04   1.88929e-05 DIIS
   @RHF iter   6:  -388.00651727704349   -1.10730e-05   5.12851e-06 DIIS
   @RHF iter   7:  -388.00651821525628   -9.38213e-07   1.09444e-06 DIIS
   @RHF iter   8:  -388.00651826718098   -5.19247e-08   2.70303e-07 DIIS
   @RHF iter   9:  -388.00651827175602   -4.57504e-09   1.05242e-07 DIIS
   @RHF iter  10:  -388.00651827250675   -7.50731e-10   4.76291e-08 DIIS
   @RHF iter  11:  -388.00651827276670   -2.59945e-10   2.02522e-08 DIIS
   @RHF iter  12:  -388.00651827282701   -6.03109e-11   9.21271e-09 DIIS
   @RHF iter  13:  -388.00651827283775   -1.07434e-11   3.76355e-09 DIIS
   @RHF iter  14:  -388.00651827283826   -5.11591e-13   1.12221e-09 DIIS
   @RHF iter  15:  -388.00651827284003   -1.76215e-12   3.74540e-10 DIIS
   @RHF iter  16:  -388.00651827284088   -8.52651e-13   9.10805e-11 DIIS
  Energy and wave function converged.

  ==> Post-Iterations <==

    Orbital Energies [Eh]
    ---------------------

    Doubly Occupied:

       1A    -11.241894     2A    -11.240776     3A    -11.239858
       4A    -11.237348     5A    -11.233404     6A    -11.232637
       7A    -11.228404     8A    -11.211534     9A    -11.209201
      10A    -11.206146    11A     -1.150494    12A     -1.048510
      13A     -1.045025    14A     -1.011712    15A     -0.930142
      16A     -0.901869    17A     -0.825787    18A     -0.795470
      19A     -0.792973    20A     -0.689248    21A     -0.633572
      22A     -0.631641    23A     -0.625828    24A     -0.600381
      25A     -0.585740    26A     -0.580185    27A     -0.559396
      28A     -0.537359    29A     -0.528852    30A     -0.501905
      31A     -0.489933    32A     -0.486899    33A     -0.481938
      34A     -0.473963    35A     -0.461063    36A     -0.444657
      37A     -0.333875    38A     -0.319101

    Virtual:

      39A      0.131040    40A      0.135918    41A      0.175374
      42A      0.194481    43A      0.205802    44A      0.210104
      45A      0.234134    46A      0.238545    47A      0.247330
      48A      0.252468    49A      0.257818    50A      0.262908
      51A      0.271727    52A      0.283982    53A      0.292180
      54A      0.304062    55A      0.335726    56A      0.339039
      57A      0.359754    58A      0.374481    59A      0.387499
      60A      0.420982    61A      0.446076    62A      0.454644
      63A      0.482456    64A      0.484980    65A      0.563219
      66A      0.565249    67A      0.599796    68A      0.601913
      69A      0.607654    70A      0.635755    71A      0.643968
      72A      0.662451    73A      0.672580    74A      0.680679
      75A      0.699188    76A      0.731341    77A      0.739015
      78A      0.741083    79A      0.757053    80A      0.763749
      81A      0.771573    82A      0.773215    83A      0.786437
      84A      0.818929    85A      0.840431    86A      0.844481
      87A      0.849599    88A      0.856988    89A      0.863083
      90A      0.871480    91A      0.877637    92A      0.885564
      93A      0.890719    94A      0.897594    95A      0.900822
      96A      0.912407    97A      0.916547    98A      0.923261
      99A      0.929188   100A      0.937374   101A      0.940017
     102A      0.944536   103A      0.951675   104A      0.974859
     105A      0.987681   106A      1.002700   107A      1.045072
     108A      1.066830   109A      1.107484   110A      1.112581
     111A      1.138318   112A      1.146220   113A      1.152067
     114A      1.166997   115A      1.185919   116A      1.232509
     117A      1.240131   118A      1.246898   119A      1.251293
     120A      1.296568   121A      1.302247   122A      1.310484
     123A      1.312953   124A      1.351145   125A      1.381901
     126A      1.412362   127A      1.441600   128A      1.489206
     129A      1.508534   130A      1.518597   131A      1.566705
     132A      1.601194   133A      1.605833   134A      1.625314
     135A      1.644327   136A      1.679569   137A      1.698805
     138A      1.724863   139A      1.735702   140A      1.744690
     141A      1.751981   142A      1.765430   143A      1.787059
     144A      1.805267   145A      1.817408   146A      1.853987
     147A      1.856374   148A      1.866889   149A      1.874538
     150A      1.900559   151A      1.903715   152A      1.907972
     153A      1.911575   154A      1.918384   155A      1.931264
     156A      1.938054   157A      1.938998   158A      1.949836
     159A      1.954661   160A      1.973182   161A      1.991353
     162A      1.992379   163A      2.001425   164A      2.016501
     165A      2.021229   166A      2.034180   167A      2.045671
     168A      2.059066   169A      2.080148   170A      2.101681
     171A      2.109794   172A      2.137303   173A      2.140515
     174A      2.145381   175A      2.154090   176A      2.161885
     177A      2.178163   178A      2.186190   179A      2.244975
     180A      2.257647   181A      2.270472   182A      2.279279
     183A      2.298369   184A      2.306330   185A      2.323496
     186A      2.330589   187A      2.340745   188A      2.420801
     189A      2.443706   190A      2.463654   191A      2.482099
     192A      2.496565   193A      2.530666   194A      2.536656
     195A      2.538738   196A      2.614380   197A      2.643235
     198A      2.692626   199A      2.736857   200A      2.745295
     201A      2.758946   202A      2.770341   203A      2.775893
     204A      2.792200   205A      2.795135   206A      2.798028
     207A      2.830113   208A      2.850477   209A      2.875821
     210A      2.890393   211A      2.924722   212A      2.951577
     213A      2.969146   214A      2.986454   215A      3.011141
     216A      3.100282   217A      3.132090   218A      3.188702
     219A      3.278683   220A      3.940822

    Final Occupation by Irrep:
              A
    DOCC [    38 ]

  @RHF Final Energy:  -388.00651827284088

   => Energetics <=

    Nuclear Repulsion Energy =            492.0947277221285958
    One-Electron Energy =               -1498.7050517028746981
    Two-Electron Energy =                 618.6038057079051669
    Total Energy =                       -388.0065182728409354

Computation Completed

Properties will be evaluated at   0.000000,   0.000000,   0.000000 [a0]

Properties computed using the SCF density matrix

  Nuclear Dipole Moment: [e a0]
     X:     6.9841      Y:    -3.2579      Z:     8.5231

  Electronic Dipole Moment: [e a0]
     X:    -6.9747      Y:     3.3739      Z:    -8.7641

  Dipole Moment: [e a0]
     X:     0.0095      Y:     0.1160      Z:    -0.2410     Total:     0.2676

  Dipole Moment: [D]
     X:     0.0241      Y:     0.2948      Z:    -0.6125     Total:     0.6802

*** tstop() called on ds3 at Mon Apr 27 17:41:47 2020
Module time:
	user time   =     118.43 seconds =       1.97 minutes
	system time =      45.94 seconds =       0.77 minutes
	total time  =        157 seconds =       2.62 minutes
Total time:
	user time   =     118.43 seconds =       1.97 minutes
	system time =      45.94 seconds =       0.77 minutes
	total time  =        157 seconds =       2.62 minutes
                                     G D M A

                                 by Anthony Stone

                           version 2.2.06, 22 June 2011

               Distributed Multipoles from Gaussian wavefunctions

Starting at 17:41:47 on 27 Apr 2020

Using SCF density matrix from file ./SSI/SSI-061PRO-088PHE-1-dimer.test.9914.fchk

                         Distributed Multipole Analysis

Standard DMA

Positions and radii in angstrom
Multipole moments in atomic units, ea_0^k for rank k

C          x =  1.301331  y = -1.260514  z =  1.890944 angstrom
           Maximum rank =  0   Radius =  0.650 angstrom
                   Q00  =  -0.081196

C          x =  1.479331  y = -0.084514  z =  2.922944 angstrom
           Maximum rank =  0   Radius =  0.650 angstrom
                   Q00  =  -0.241724

C          x =  1.154331  y = -2.446514  z =  2.836944 angstrom
           Maximum rank =  0   Radius =  0.650 angstrom
                   Q00  =  -0.246420

H          x =  2.183331  y = -1.382514  z =  1.262944 angstrom
           Maximum rank =  0   Radius =  0.325 angstrom
                   Q00  =   0.054135

H          x =  0.414331  y = -1.185514  z =  1.258944 angstrom
           Maximum rank =  0   Radius =  0.325 angstrom
                   Q00  =   0.086525

H          x =  2.477331  y = -0.093514  z =  3.373944 angstrom
           Maximum rank =  0   Radius =  0.325 angstrom
                   Q00  =   0.082854

H          x =  1.296331  y =  0.887486  z =  2.469944 angstrom
           Maximum rank =  0   Radius =  0.325 angstrom
                   Q00  =   0.085107

H          x =  0.559331  y = -3.257514  z =  2.419944 angstrom
           Maximum rank =  0   Radius =  0.325 angstrom
                   Q00  =   0.073566

H          x =  0.716805  y = -0.325614  z =  3.678204 angstrom
           Maximum rank =  0   Radius =  0.325 angstrom
                   Q00  =   0.050369

H          x =  0.613308  y = -2.024214  z =  3.696574 angstrom
           Maximum rank =  0   Radius =  0.325 angstrom
                   Q00  =   0.054990

H          x =  2.146871  y = -2.839054  z =  3.102974 angstrom
           Maximum rank =  0   Radius =  0.325 angstrom
                   Q00  =   0.080596

C          x =  0.745331  y =  1.884486  z = -2.779056 angstrom
           Maximum rank =  0   Radius =  0.650 angstrom
                   Q00  =  -0.184361

C          x = -1.704669  y = -0.363514  z = -0.069056 angstrom
           Maximum rank =  0   Radius =  0.650 angstrom
                   Q00  =  -0.111378

C          x = -1.182669  y = -0.989514  z = -1.207056 angstrom
           Maximum rank =  0   Radius =  0.650 angstrom
                   Q00  =  -0.071313

C          x = -1.403669  y =  0.997486  z =  0.196944 angstrom
           Maximum rank =  0   Radius =  0.650 angstrom
                   Q00  =  -0.061108

C          x = -0.370669  y = -0.251514  z = -2.069056 angstrom
           Maximum rank =  0   Radius =  0.650 angstrom
                   Q00  =   0.001588

C          x = -0.575669  y =  1.715486  z = -0.675056 angstrom
           Maximum rank =  0   Radius =  0.650 angstrom
                   Q00  =  -0.083778

C          x = -0.068669  y =  1.090486  z = -1.812056 angstrom
           Maximum rank =  0   Radius =  0.650 angstrom
                   Q00  =  -0.106521

H          x = -2.338669  y = -0.926514  z =  0.606944 angstrom
           Maximum rank =  0   Radius =  0.325 angstrom
                   Q00  =   0.064930

H          x = -1.406669  y = -2.026514  z = -1.415056 angstrom
           Maximum rank =  0   Radius =  0.325 angstrom
                   Q00  =   0.069097

H          x = -1.808669  y =  1.491486  z =  1.071944 angstrom
           Maximum rank =  0   Radius =  0.325 angstrom
                   Q00  =   0.070021

H          x =  0.035331  y = -0.716514  z = -2.955056 angstrom
           Maximum rank =  0   Radius =  0.325 angstrom
                   Q00  =   0.056649

H          x = -0.333669  y =  2.749486  z = -0.472056 angstrom
           Maximum rank =  0   Radius =  0.325 angstrom
                   Q00  =   0.060648

H          x =  1.485331  y =  1.208486  z = -3.199056 angstrom
           Maximum rank =  0   Radius =  0.325 angstrom
                   Q00  =   0.095364

H          x =  1.252331  y =  2.657486  z = -2.203056 angstrom
           Maximum rank =  0   Radius =  0.325 angstrom
                   Q00  =   0.095670

H          x =  0.157046  y =  2.307856  z = -3.606506 angstrom
           Maximum rank =  0   Radius =  0.325 angstrom
                   Q00  =   0.105688

Total multipoles referred to origin at
           x =   0.000000,  y =    0.000000,  z =    0.000000 angstrom
                   Q00  =  -0.000000

Finished at 17:41:48 on 27 Apr 2020

  DMA results are available in the Python driver through the
	  variable('DMA DISTRIBUTED MULTIPOLES')
  and
	  variable('DMA TOTAL MULTIPOLES')
  commands.

    Psi4 stopped on: Monday, 27 April 2020 05:41PM
    Psi4 wall time for execution: 0:02:37.58

*** Psi4 exiting successfully. Buy a developer a beer!
