                               Psi4 1.3.2 release

  ==> Input File <==

--------------------------------------------------------------------------
import numpy as np
set {scf_type pk
basis cc-pvdz
d_convergence 10
gdma_switch   0
gdma_limit    0
gdma_origin   [ 0.0,  0.0,  0.0 ]
}
molecule test {
    units Angstrom
    1 1
    --
    1 1
    C                0.718555213015361     1.019704592938427    -1.289140023226721
    C                0.367555213015361     0.834704592938427    -2.720140023226721
    C                2.240555213015361     1.042704592938427    -1.293140023226721
    H                0.371555213015361     0.136704592938427    -0.774140023226721
    H                0.271555213015361     1.923704592938427    -0.884140023226721
    H               -0.594444786984639     0.351704592938427    -2.787140023226721
    H                0.439555213015361     1.764704592938427    -3.282140023226721
    H                2.593555213015361     2.071704592938427    -1.384140023226721
    H                1.106972213015361     0.089436592938427    -3.048530023226721
    H                2.497894213015361     0.483501592938427    -2.204770023226720
    H                2.656456213015361     0.593042592938427    -0.379450023226721
    C               -0.793444786984639    -0.892295407061573     1.202859976773279
    C               -2.047444786984639    -0.011295407061573     1.383859976773279
    N               -0.439444786984639    -1.737295407061573     2.397859976773280
    H               -0.937444786984639    -1.539295407061573     0.330859976773279
    H                0.049555213015361    -0.225295407061573     1.010859976773279
    H               -1.752444786984639     0.999704592938427     1.676859976773279
    H               -2.649444786984639    -0.433295407061573     2.191859976773279
    H               -1.182444786984639    -2.389295407061573     2.621859976773279
    H                0.396555213015361    -2.285295407061573     2.230859976773279
    H               -0.272444786984639    -1.168295407061573     3.219859976773280
    H               -2.673237786984639     0.028618592938427     0.480099976773279

}
e, wfn = energy('scf', return_wfn=True)
gdma(wfn)
dmavals = variable('DMA DISTRIBUTED MULTIPOLES')
charges = np.array(dmavals)
print(charges)
np.save('SSI-117PRO-130LYS-1-dimer.npy', np.array(charges))--------------------------------------------------------------------------

*** tstart() called on ds3
*** at Mon Apr 27 22:36:27 2020

   => Loading Basis Set <=

    Name: CC-PVDZ
    Role: ORBITAL
    Keyword: BASIS
    atoms 1-3, 12-13  entry C          line   138 file /theoryfs2/ds/metcalf/miniconda2/envs/tf2gpu/share/psi4/basis/cc-pvdz.gbs
    atoms 4-11, 15-22 entry H          line    22 file /theoryfs2/ds/metcalf/miniconda2/envs/tf2gpu/share/psi4/basis/cc-pvdz.gbs
    atoms 14          entry N          line   168 file /theoryfs2/ds/metcalf/miniconda2/envs/tf2gpu/share/psi4/basis/cc-pvdz.gbs

         ---------------------------------------------------------
                                   SCF
               by Justin Turney, Rob Parrish, Andy Simmonett
                          and Daniel G. A. Smith
                              RHF Reference
                        1 Threads,    500 MiB Core
         ---------------------------------------------------------

  ==> Geometry <==

    Molecular point group: c1
    Full point group: C1

    Geometry (in Angstrom), charge = 1, multiplicity = 1:

       Center              X                  Y                   Z               Mass
    ------------   -----------------  -----------------  -----------------  -----------------
         C            0.718555213015     1.019704592938    -1.289140023227    12.000000000000
         C            0.367555213015     0.834704592938    -2.720140023227    12.000000000000
         C            2.240555213015     1.042704592938    -1.293140023227    12.000000000000
         H            0.371555213015     0.136704592938    -0.774140023227     1.007825032230
         H            0.271555213015     1.923704592938    -0.884140023227     1.007825032230
         H           -0.594444786985     0.351704592938    -2.787140023227     1.007825032230
         H            0.439555213015     1.764704592938    -3.282140023227     1.007825032230
         H            2.593555213015     2.071704592938    -1.384140023227     1.007825032230
         H            1.106972213015     0.089436592938    -3.048530023227     1.007825032230
         H            2.497894213015     0.483501592938    -2.204770023227     1.007825032230
         H            2.656456213015     0.593042592938    -0.379450023227     1.007825032230
         C           -0.793444786985    -0.892295407062     1.202859976773    12.000000000000
         C           -2.047444786985    -0.011295407062     1.383859976773    12.000000000000
         N           -0.439444786985    -1.737295407062     2.397859976773    14.003074004430
         H           -0.937444786985    -1.539295407062     0.330859976773     1.007825032230
         H            0.049555213015    -0.225295407062     1.010859976773     1.007825032230
         H           -1.752444786985     0.999704592938     1.676859976773     1.007825032230
         H           -2.649444786985    -0.433295407062     2.191859976773     1.007825032230
         H           -1.182444786985    -2.389295407062     2.621859976773     1.007825032230
         H            0.396555213015    -2.285295407062     2.230859976773     1.007825032230
         H           -0.272444786985    -1.168295407062     3.219859976773     1.007825032230
         H           -2.673237786985     0.028618592938     0.480099976773     1.007825032230

  Running in c1 symmetry.

  Rotational constants: A =      0.14757  B =      0.03280  C =      0.02929 [cm^-1]
  Rotational constants: A =   4424.07226  B =    983.41041  C =    877.95020 [MHz]
  Nuclear repulsion =  254.057618667682249

  Charge       = 1
  Multiplicity = 1
  Electrons    = 52
  Nalpha       = 26
  Nbeta        = 26

  ==> Algorithm <==

  SCF Algorithm Type is PK.
  DIIS enabled.
  MOM disabled.
  Fractional occupation disabled.
  Guess Type is SAD.
  Energy threshold   = 1.00e-06
  Density threshold  = 1.00e-10
  Integral threshold = 0.00e+00

  ==> Primary Basis <==

  Basis Set: CC-PVDZ
    Blend: CC-PVDZ
    Number of shells: 84
    Number of basis function: 164
    Number of Cartesian functions: 170
    Spherical Harmonics?: true
    Max angular momentum: 2

  ==> Pre-Iterations <==

   -------------------------------------------------------
    Irrep   Nso     Nmo     Nalpha   Nbeta   Ndocc  Nsocc
   -------------------------------------------------------
     A        164     164       0       0       0       0
   -------------------------------------------------------
    Total     164     164      26      26      26       0
   -------------------------------------------------------

  ==> Integral Setup <==

  Using integral reordering PK algorithm.
  Sizing the integral batches needed.
  Building batch lookup table.
   Calculation information:
      Number of atoms:                  22
      Number of AO shells:              84
      Number of primitives:            212
      Number of atomic orbitals:       170
      Number of basis functions:       164

      Integral cutoff                 1.00e-12
      Number of threads:                 1

	Batch   1 pq = [       0,    9405] index = [             0,44231715] size =     44231715
	Batch   2 pq = [    9405,   13530] index = [      44231715,91537215] size =     47305500
  Task number: 9
  Buffer size: 11059200
  Buffer per thread: 2
  We computed 5575799 shell quartets total.
  Whereas there are 6374235 unique shell quartets.

  ==> DiskJK: Disk-Based J/K Matrices <==

    J tasked:                  Yes
    K tasked:                  Yes
    wK tasked:                  No
    Memory [MiB]:              375
    Schwarz Cutoff:          1E-12

    OpenMP threads:              1

  Minimum eigenvalue in the overlap matrix is 4.0729781947E-03.
  Using Symmetric Orthogonalization.

  SCF Guess: Superposition of Atomic Densities via on-the-fly atomic UHF.

  ==> Iterations <==

                        Total Energy        Delta E     RMS |[F,P]|

   @RHF iter SAD:  -252.39111611628857   -2.52391e+02   0.00000e+00
   @RHF iter   1:  -252.65680836395740   -2.65692e-01   3.37882e-03 DIIS
   @RHF iter   2:  -252.83870333782966   -1.81895e-01   1.35394e-03 DIIS
   @RHF iter   3:  -252.86584221088611   -2.71389e-02   3.35159e-04 DIIS
   @RHF iter   4:  -252.86857896098968   -2.73675e-03   5.48967e-05 DIIS
   @RHF iter   5:  -252.86865049382220   -7.15328e-05   1.79243e-05 DIIS
   @RHF iter   6:  -252.86865786874893   -7.37493e-06   3.76296e-06 DIIS
   @RHF iter   7:  -252.86865827180358   -4.03055e-07   9.61976e-07 DIIS
   @RHF iter   8:  -252.86865830192761   -3.01240e-08   2.57793e-07 DIIS
   @RHF iter   9:  -252.86865830370283   -1.77522e-09   7.58887e-08 DIIS
   @RHF iter  10:  -252.86865830382345   -1.20622e-10   1.61252e-08 DIIS
   @RHF iter  11:  -252.86865830382982   -6.36646e-12   3.33291e-09 DIIS
   @RHF iter  12:  -252.86865830383059   -7.67386e-13   1.01513e-09 DIIS
   @RHF iter  13:  -252.86865830383095   -3.69482e-13   2.10633e-10 DIIS
   @RHF iter  14:  -252.86865830383135   -3.97904e-13   5.03723e-11 DIIS
  Energy and wave function converged.

  ==> Post-Iterations <==

    Orbital Energies [Eh]
    ---------------------

    Doubly Occupied:

       1A    -15.906697     2A    -11.482541     3A    -11.407578
       4A    -11.322334     5A    -11.314745     6A    -11.307325
       7A     -1.522546     8A     -1.217119     9A     -1.180257
      10A     -1.057676    11A     -1.015860    12A     -0.980694
      13A     -0.969136    14A     -0.908404    15A     -0.857117
      16A     -0.800239    17A     -0.749027    18A     -0.726654
      19A     -0.718375    20A     -0.694613    21A     -0.684695
      22A     -0.645602    23A     -0.610847    24A     -0.588350
      25A     -0.577556    26A     -0.558409

    Virtual:

      27A     -0.051322    28A      0.017233    29A      0.017872
      30A      0.032087    31A      0.056559    32A      0.071529
      33A      0.086864    34A      0.104215    35A      0.126524
      36A      0.143251    37A      0.146208    38A      0.172419
      39A      0.177309    40A      0.196062    41A      0.205978
      42A      0.207294    43A      0.217725    44A      0.239319
      45A      0.278856    46A      0.336027    47A      0.375856
      48A      0.391902    49A      0.425546    50A      0.453325
      51A      0.474219    52A      0.497729    53A      0.516502
      54A      0.533834    55A      0.558231    56A      0.573771
      57A      0.608527    58A      0.626707    59A      0.640128
      60A      0.668134    61A      0.675691    62A      0.700929
      63A      0.704349    64A      0.715626    65A      0.726798
      66A      0.737715    67A      0.755009    68A      0.760114
      69A      0.769081    70A      0.781118    71A      0.793700
      72A      0.794073    73A      0.803554    74A      0.813142
      75A      0.820867    76A      0.828717    77A      0.840813
      78A      0.859903    79A      0.871715    80A      0.882901
      81A      0.906827    82A      0.953891    83A      0.995959
      84A      1.030420    85A      1.045205    86A      1.162614
      87A      1.198265    88A      1.271729    89A      1.297382
      90A      1.326336    91A      1.349847    92A      1.374045
      93A      1.401067    94A      1.463240    95A      1.480113
      96A      1.506120    97A      1.514295    98A      1.520906
      99A      1.545349   100A      1.614886   101A      1.618455
     102A      1.634675   103A      1.645332   104A      1.663398
     105A      1.699783   106A      1.717375   107A      1.743545
     108A      1.747150   109A      1.766958   110A      1.772597
     111A      1.785071   112A      1.800694   113A      1.809054
     114A      1.821224   115A      1.829523   116A      1.845297
     117A      1.855454   118A      1.879867   119A      1.899367
     120A      1.923595   121A      1.929212   122A      1.948866
     123A      1.963166   124A      1.978813   125A      2.001428
     126A      2.007262   127A      2.014143   128A      2.031133
     129A      2.056577   130A      2.104411   131A      2.114672
     132A      2.142479   133A      2.150392   134A      2.154788
     135A      2.205323   136A      2.235208   137A      2.267410
     138A      2.320436   139A      2.340573   140A      2.389335
     141A      2.405489   142A      2.429057   143A      2.441375
     144A      2.455661   145A      2.512394   146A      2.522013
     147A      2.551096   148A      2.590758   149A      2.609919
     150A      2.634298   151A      2.664774   152A      2.679109
     153A      2.691702   154A      2.711797   155A      2.724609
     156A      2.730554   157A      2.769640   158A      2.784867
     159A      2.813621   160A      2.842454   161A      2.892163
     162A      2.990057   163A      3.081476   164A      3.096883

    Final Occupation by Irrep:
              A
    DOCC [    26 ]

  @RHF Final Energy:  -252.86865830383135

   => Energetics <=

    Nuclear Repulsion Energy =            254.0576186676822488
    One-Electron Energy =                -834.2437600795037724
    Two-Electron Energy =                 327.3174831079901423
    Total Energy =                       -252.8686583038313529

Computation Completed

Properties will be evaluated at   0.000000,   0.000000,   0.000000 [a0]

Properties computed using the SCF density matrix

  Nuclear Dipole Moment: [e a0]
     X:     0.3029      Y:     0.3820      Z:    -0.9269

  Electronic Dipole Moment: [e a0]
     X:    -1.3587      Y:    -3.0116      Z:     4.7532

  Dipole Moment: [e a0]
     X:    -1.0558      Y:    -2.6296      Z:     3.8263     Total:     4.7613

  Dipole Moment: [D]
     X:    -2.6836      Y:    -6.6838      Z:     9.7254     Total:    12.1020

*** tstop() called on ds3 at Mon Apr 27 22:37:16 2020
Module time:
	user time   =      30.20 seconds =       0.50 minutes
	system time =      12.30 seconds =       0.21 minutes
	total time  =         49 seconds =       0.82 minutes
Total time:
	user time   =      30.20 seconds =       0.50 minutes
	system time =      12.30 seconds =       0.21 minutes
	total time  =         49 seconds =       0.82 minutes
                                     G D M A

                                 by Anthony Stone

                           version 2.2.06, 22 June 2011

               Distributed Multipoles from Gaussian wavefunctions

Starting at 22:37:16 on 27 Apr 2020

Using SCF density matrix from file ./SSI/SSI-117PRO-130LYS-1-dimer.test.31431.fchk

                         Distributed Multipole Analysis

Standard DMA

Positions and radii in angstrom
Multipole moments in atomic units, ea_0^k for rank k

C          x =  0.718555  y =  1.019705  z = -1.289140 angstrom
           Maximum rank =  0   Radius =  0.650 angstrom
                   Q00  =  -0.131311

C          x =  0.367555  y =  0.834705  z = -2.720140 angstrom
           Maximum rank =  0   Radius =  0.650 angstrom
                   Q00  =  -0.167576

C          x =  2.240555  y =  1.042705  z = -1.293140 angstrom
           Maximum rank =  0   Radius =  0.650 angstrom
                   Q00  =  -0.224691

H          x =  0.371555  y =  0.136705  z = -0.774140 angstrom
           Maximum rank =  0   Radius =  0.325 angstrom
                   Q00  =  -0.013247

H          x =  0.271555  y =  1.923705  z = -0.884140 angstrom
           Maximum rank =  0   Radius =  0.325 angstrom
                   Q00  =   0.066439

H          x = -0.594445  y =  0.351705  z = -2.787140 angstrom
           Maximum rank =  0   Radius =  0.325 angstrom
                   Q00  =   0.061718

H          x =  0.439555  y =  1.764705  z = -3.282140 angstrom
           Maximum rank =  0   Radius =  0.325 angstrom
                   Q00  =   0.102396

H          x =  2.593555  y =  2.071705  z = -1.384140 angstrom
           Maximum rank =  0   Radius =  0.325 angstrom
                   Q00  =   0.103888

H          x =  1.106972  y =  0.089437  z = -3.048530 angstrom
           Maximum rank =  0   Radius =  0.325 angstrom
                   Q00  =   0.049578

H          x =  2.497894  y =  0.483502  z = -2.204770 angstrom
           Maximum rank =  0   Radius =  0.325 angstrom
                   Q00  =   0.084802

H          x =  2.656456  y =  0.593043  z = -0.379450 angstrom
           Maximum rank =  0   Radius =  0.325 angstrom
                   Q00  =   0.059493

C          x = -0.793445  y = -0.892295  z =  1.202860 angstrom
           Maximum rank =  0   Radius =  0.650 angstrom
                   Q00  =  -0.045000

C          x = -2.047445  y = -0.011295  z =  1.383860 angstrom
           Maximum rank =  0   Radius =  0.650 angstrom
                   Q00  =  -0.232348

N          x = -0.439445  y = -1.737295  z =  2.397860 angstrom
           Maximum rank =  0   Radius =  0.650 angstrom
                   Q00  =  -0.138427

H          x = -0.937445  y = -1.539295  z =  0.330860 angstrom
           Maximum rank =  0   Radius =  0.325 angstrom
                   Q00  =   0.134131

H          x =  0.049555  y = -0.225295  z =  1.010860 angstrom
           Maximum rank =  0   Radius =  0.325 angstrom
                   Q00  =   0.138368

H          x = -1.752445  y =  0.999705  z =  1.676860 angstrom
           Maximum rank =  0   Radius =  0.325 angstrom
                   Q00  =   0.132541

H          x = -2.649445  y = -0.433295  z =  2.191860 angstrom
           Maximum rank =  0   Radius =  0.325 angstrom
                   Q00  =   0.088870

H          x = -1.182445  y = -2.389295  z =  2.621860 angstrom
           Maximum rank =  0   Radius =  0.325 angstrom
                   Q00  =   0.255391

H          x =  0.396555  y = -2.285295  z =  2.230860 angstrom
           Maximum rank =  0   Radius =  0.325 angstrom
                   Q00  =   0.261497

H          x = -0.272445  y = -1.168295  z =  3.219860 angstrom
           Maximum rank =  0   Radius =  0.325 angstrom
                   Q00  =   0.259293

H          x = -2.673238  y =  0.028619  z =  0.480100 angstrom
           Maximum rank =  0   Radius =  0.325 angstrom
                   Q00  =   0.154194

Total multipoles referred to origin at
           x =   0.000000,  y =    0.000000,  z =    0.000000 angstrom
                   Q00  =   1.000000

Finished at 22:37:16 on 27 Apr 2020

  DMA results are available in the Python driver through the
	  variable('DMA DISTRIBUTED MULTIPOLES')
  and
	  variable('DMA TOTAL MULTIPOLES')
  commands.

    Psi4 stopped on: Monday, 27 April 2020 10:37PM
    Psi4 wall time for execution: 0:00:48.75

*** Psi4 exiting successfully. Buy a developer a beer!
