                               Psi4 1.3.2 release

  ==> Input File <==

--------------------------------------------------------------------------
import numpy as np
set {scf_type pk
basis cc-pvdz
d_convergence 10
gdma_switch   0
gdma_limit    0
gdma_origin   [ 0.0,  0.0,  0.0 ]
}
molecule test {
    units Angstrom
    -1 1
    --
    -1 1
    C               -1.704344332224086     0.080459694521288    -3.525666973524101
    C               -0.872344332224086     0.529459694521288    -2.328666973524101
    O               -1.163344332224086     0.117459694521288    -1.189666973524101
    O                0.100655667775914     1.288459694521288    -2.535666973524101
    H               -1.153344332224086    -0.712540305478712    -4.026666973524101
    H               -1.826344332224086     0.904459694521288    -4.231666973524101
    H               -2.690334332224086    -0.309770305478712    -3.233176973524101
    C                1.303655667775914    -1.868540305478712     2.708333026475899
    C                0.917655667775914    -0.427540305478712     2.426333026475899
    O                1.244655667775914     0.485459694521288     3.185333026475899
    N                0.226655667775914    -0.206540305478712     1.323333026475899
    H               -0.089344332224086     0.715459694521288     1.105333026475899
    H               -0.239344332224086    -0.980540305478712     0.861333026475899
    H                2.209655667775913    -2.099540305478712     2.151333026475899
    H                0.516655667775914    -2.524540305478712     2.347333026475899
    H                1.466635667775914    -2.063970305478712     3.778495026475899

}
e, wfn = energy('scf', return_wfn=True)
gdma(wfn)
dmavals = variable('DMA DISTRIBUTED MULTIPOLES')
charges = np.array(dmavals)
print(charges)
np.save('SSI-113ASP-195GLN-1-dimer.npy', np.array(charges))--------------------------------------------------------------------------

*** tstart() called on ds3
*** at Tue Apr 28 14:01:13 2020

   => Loading Basis Set <=

    Name: CC-PVDZ
    Role: ORBITAL
    Keyword: BASIS
    atoms 1-2, 8-9   entry C          line   138 file /theoryfs2/ds/metcalf/miniconda2/envs/tf2gpu/share/psi4/basis/cc-pvdz.gbs
    atoms 3-4, 10    entry O          line   198 file /theoryfs2/ds/metcalf/miniconda2/envs/tf2gpu/share/psi4/basis/cc-pvdz.gbs
    atoms 5-7, 12-16 entry H          line    22 file /theoryfs2/ds/metcalf/miniconda2/envs/tf2gpu/share/psi4/basis/cc-pvdz.gbs
    atoms 11         entry N          line   168 file /theoryfs2/ds/metcalf/miniconda2/envs/tf2gpu/share/psi4/basis/cc-pvdz.gbs

         ---------------------------------------------------------
                                   SCF
               by Justin Turney, Rob Parrish, Andy Simmonett
                          and Daniel G. A. Smith
                              RHF Reference
                        1 Threads,    500 MiB Core
         ---------------------------------------------------------

  ==> Geometry <==

    Molecular point group: c1
    Full point group: C1

    Geometry (in Angstrom), charge = -1, multiplicity = 1:

       Center              X                  Y                   Z               Mass
    ------------   -----------------  -----------------  -----------------  -----------------
         C           -1.704344332224     0.080459694521    -3.525666973524    12.000000000000
         C           -0.872344332224     0.529459694521    -2.328666973524    12.000000000000
         O           -1.163344332224     0.117459694521    -1.189666973524    15.994914619570
         O            0.100655667776     1.288459694521    -2.535666973524    15.994914619570
         H           -1.153344332224    -0.712540305479    -4.026666973524     1.007825032230
         H           -1.826344332224     0.904459694521    -4.231666973524     1.007825032230
         H           -2.690334332224    -0.309770305479    -3.233176973524     1.007825032230
         C            1.303655667776    -1.868540305479     2.708333026476    12.000000000000
         C            0.917655667776    -0.427540305479     2.426333026476    12.000000000000
         O            1.244655667776     0.485459694521     3.185333026476    15.994914619570
         N            0.226655667776    -0.206540305479     1.323333026476    14.003074004430
         H           -0.089344332224     0.715459694521     1.105333026476     1.007825032230
         H           -0.239344332224    -0.980540305479     0.861333026476     1.007825032230
         H            2.209655667776    -2.099540305479     2.151333026476     1.007825032230
         H            0.516655667776    -2.524540305479     2.347333026476     1.007825032230
         H            1.466635667776    -2.063970305479     3.778495026476     1.007825032230

  Running in c1 symmetry.

  Rotational constants: A =      0.16945  B =      0.01830  C =      0.01740 [cm^-1]
  Rotational constants: A =   5079.94566  B =    548.60575  C =    521.73807 [MHz]
  Nuclear repulsion =  338.377682237609179

  Charge       = -1
  Multiplicity = 1
  Electrons    = 64
  Nalpha       = 32
  Nbeta        = 32

  ==> Algorithm <==

  SCF Algorithm Type is PK.
  DIIS enabled.
  MOM disabled.
  Fractional occupation disabled.
  Guess Type is SAD.
  Energy threshold   = 1.00e-06
  Density threshold  = 1.00e-10
  Integral threshold = 0.00e+00

  ==> Primary Basis <==

  Basis Set: CC-PVDZ
    Blend: CC-PVDZ
    Number of shells: 72
    Number of basis function: 152
    Number of Cartesian functions: 160
    Spherical Harmonics?: true
    Max angular momentum: 2

  ==> Pre-Iterations <==

   -------------------------------------------------------
    Irrep   Nso     Nmo     Nalpha   Nbeta   Ndocc  Nsocc
   -------------------------------------------------------
     A        152     152       0       0       0       0
   -------------------------------------------------------
    Total     152     152      32      32      32       0
   -------------------------------------------------------

  ==> Integral Setup <==

  Using integral reordering PK algorithm.
  Sizing the integral batches needed.
  Building batch lookup table.
   Calculation information:
      Number of atoms:                  16
      Number of AO shells:              72
      Number of primitives:            216
      Number of atomic orbitals:       160
      Number of basis functions:       152

      Integral cutoff                 1.00e-12
      Number of threads:                 1

	Batch   1 pq = [       0,    9405] index = [             0,44231715] size =     44231715
	Batch   2 pq = [    9405,   11628] index = [      44231715,67611006] size =     23379291
  Task number: 7
  Buffer size: 11059200
  Buffer per thread: 2
  We computed 2263158 shell quartets total.
  Whereas there are 3454506 unique shell quartets.

  ==> DiskJK: Disk-Based J/K Matrices <==

    J tasked:                  Yes
    K tasked:                  Yes
    wK tasked:                  No
    Memory [MiB]:              375
    Schwarz Cutoff:          1E-12

    OpenMP threads:              1

  Minimum eigenvalue in the overlap matrix is 4.6825754007E-03.
  Using Symmetric Orthogonalization.

  SCF Guess: Superposition of Atomic Densities via on-the-fly atomic UHF.

  ==> Iterations <==

                        Total Energy        Delta E     RMS |[F,P]|

   @RHF iter SAD:  -433.45102317440592   -4.33451e+02   0.00000e+00
   @RHF iter   1:  -434.93055559071848   -1.47953e+00   5.48695e-03 DIIS
   @RHF iter   2:  -435.16576267919453   -2.35207e-01   3.23541e-03 DIIS
   @RHF iter   3:  -435.24989574344056   -8.41331e-02   4.81960e-04 DIIS
   @RHF iter   4:  -435.25316513032101   -3.26939e-03   1.87757e-04 DIIS
   @RHF iter   5:  -435.25371954858178   -5.54418e-04   3.91705e-05 DIIS
   @RHF iter   6:  -435.25374692548303   -2.73769e-05   1.93991e-05 DIIS
   @RHF iter   7:  -435.25375328009034   -6.35461e-06   5.22476e-06 DIIS
   @RHF iter   8:  -435.25375425408049   -9.73990e-07   2.22952e-06 DIIS
   @RHF iter   9:  -435.25375440612237   -1.52042e-07   9.02100e-07 DIIS
   @RHF iter  10:  -435.25375442876782   -2.26455e-08   2.15914e-07 DIIS
   @RHF iter  11:  -435.25375442995210   -1.18428e-09   9.61341e-08 DIIS
   @RHF iter  12:  -435.25375443007295   -1.20849e-10   2.40575e-08 DIIS
   @RHF iter  13:  -435.25375443008966   -1.67120e-11   6.68942e-09 DIIS
   @RHF iter  14:  -435.25375443009057   -9.09495e-13   2.43184e-09 DIIS
   @RHF iter  15:  -435.25375443009091   -3.41061e-13   8.82466e-10 DIIS
   @RHF iter  16:  -435.25375443009204   -1.13687e-12   3.37150e-10 DIIS
   @RHF iter  17:  -435.25375443009125    7.95808e-13   1.37278e-10 DIIS
   @RHF iter  18:  -435.25375443009085    3.97904e-13   4.99512e-11 DIIS
  Energy and wave function converged.

  ==> Post-Iterations <==

    Orbital Energies [Eh]
    ---------------------

    Doubly Occupied:

       1A    -20.378560     2A    -20.275007     3A    -20.265142
       4A    -15.440280     5A    -11.222206     6A    -11.136581
       7A    -11.127880     8A    -11.061138     9A     -1.241735
      10A     -1.163261    11A     -1.077718    12A     -1.046892
      13A     -0.888871    14A     -0.806918    15A     -0.664366
      16A     -0.581967    17A     -0.535112    18A     -0.511220
      19A     -0.499959    20A     -0.451057    21A     -0.444347
      22A     -0.421799    23A     -0.419202    24A     -0.415077
      25A     -0.400978    26A     -0.354541    27A     -0.316937
      28A     -0.288992    29A     -0.267745    30A     -0.196568
      31A     -0.181818    32A     -0.173048

    Virtual:

      33A      0.285455    34A      0.311526    35A      0.341291
      36A      0.345090    37A      0.383801    38A      0.386086
      39A      0.390610    40A      0.406173    41A      0.415052
      42A      0.475889    43A      0.497669    44A      0.562673
      45A      0.580046    46A      0.674169    47A      0.688805
      48A      0.693680    49A      0.740486    50A      0.774472
      51A      0.807016    52A      0.816886    53A      0.845949
      54A      0.862416    55A      0.881024    56A      0.922927
      57A      0.934400    58A      0.951793    59A      0.965726
      60A      0.968795    61A      0.991160    62A      1.017404
      63A      1.025355    64A      1.028407    65A      1.038431
      66A      1.060071    67A      1.074304    68A      1.123872
      69A      1.140039    70A      1.170132    71A      1.183667
      72A      1.215566    73A      1.230709    74A      1.258022
      75A      1.335546    76A      1.338290    77A      1.418940
      78A      1.430526    79A      1.473135    80A      1.489024
      81A      1.500774    82A      1.523443    83A      1.533631
      84A      1.557816    85A      1.571876    86A      1.582686
      87A      1.605715    88A      1.637865    89A      1.685337
      90A      1.727315    91A      1.737980    92A      1.757450
      93A      1.763152    94A      1.831845    95A      1.838590
      96A      1.841224    97A      1.955671    98A      1.979536
      99A      2.006541   100A      2.022124   101A      2.036735
     102A      2.044014   103A      2.063721   104A      2.084771
     105A      2.088184   106A      2.126952   107A      2.131450
     108A      2.184980   109A      2.194884   110A      2.201031
     111A      2.238651   112A      2.308113   113A      2.322638
     114A      2.343067   115A      2.373158   116A      2.412382
     117A      2.422945   118A      2.541305   119A      2.552113
     120A      2.571617   121A      2.579497   122A      2.659534
     123A      2.664236   124A      2.700464   125A      2.726081
     126A      2.777795   127A      2.803441   128A      2.845878
     129A      2.871714   130A      2.905530   131A      2.910912
     132A      2.959015   133A      2.976297   134A      3.003808
     135A      3.145591   136A      3.226021   137A      3.230824
     138A      3.261175   139A      3.267215   140A      3.283465
     141A      3.349652   142A      3.401520   143A      3.621947
     144A      3.630662   145A      3.680555   146A      3.769410
     147A      3.818973   148A      3.978640   149A      4.025986
     150A      4.056178   151A      4.076481   152A      4.199692

    Final Occupation by Irrep:
              A
    DOCC [    32 ]

  @RHF Final Energy:  -435.25375443009085

   => Energetics <=

    Nuclear Repulsion Energy =            338.3776822376091786
    One-Electron Energy =               -1278.7490295277302721
    Two-Electron Energy =                 505.1175928600302427
    Total Energy =                       -435.2537544300908507

Computation Completed

Properties will be evaluated at   0.000000,   0.000000,   0.000000 [a0]

Properties computed using the SCF density matrix

  Nuclear Dipole Moment: [e a0]
     X:    -1.6926      Y:    -6.6191      Z:    -1.1761

  Electronic Dipole Moment: [e a0]
     X:     1.6109      Y:     4.3377      Z:     2.7317

  Dipole Moment: [e a0]
     X:    -0.0818      Y:    -2.2814      Z:     1.5556     Total:     2.7625

  Dipole Moment: [D]
     X:    -0.2078      Y:    -5.7988      Z:     3.9539     Total:     7.0216

*** tstop() called on ds3 at Tue Apr 28 14:01:47 2020
Module time:
	user time   =      22.39 seconds =       0.37 minutes
	system time =      11.82 seconds =       0.20 minutes
	total time  =         34 seconds =       0.57 minutes
Total time:
	user time   =      22.39 seconds =       0.37 minutes
	system time =      11.82 seconds =       0.20 minutes
	total time  =         34 seconds =       0.57 minutes
                                     G D M A

                                 by Anthony Stone

                           version 2.2.06, 22 June 2011

               Distributed Multipoles from Gaussian wavefunctions

Starting at 14:1:47 on 28 Apr 2020

Using SCF density matrix from file ./SSI/SSI-113ASP-195GLN-1-dimer.test.17146.fchk

                         Distributed Multipole Analysis

Standard DMA

Positions and radii in angstrom
Multipole moments in atomic units, ea_0^k for rank k

C          x = -1.704344  y =  0.080460  z = -3.525667 angstrom
           Maximum rank =  0   Radius =  0.650 angstrom
                   Q00  =  -0.283460

C          x = -0.872344  y =  0.529460  z = -2.328667 angstrom
           Maximum rank =  0   Radius =  0.650 angstrom
                   Q00  =   0.968357

O          x = -1.163344  y =  0.117460  z = -1.189667 angstrom
           Maximum rank =  0   Radius =  0.650 angstrom
                   Q00  =  -0.944963

O          x =  0.100656  y =  1.288460  z = -2.535667 angstrom
           Maximum rank =  0   Radius =  0.650 angstrom
                   Q00  =  -0.925821

H          x = -1.153344  y = -0.712540  z = -4.026667 angstrom
           Maximum rank =  0   Radius =  0.325 angstrom
                   Q00  =   0.081325

H          x = -1.826344  y =  0.904460  z = -4.231667 angstrom
           Maximum rank =  0   Radius =  0.325 angstrom
                   Q00  =   0.064754

H          x = -2.690334  y = -0.309770  z = -3.233177 angstrom
           Maximum rank =  0   Radius =  0.325 angstrom
                   Q00  =   0.049791

C          x =  1.303656  y = -1.868540  z =  2.708333 angstrom
           Maximum rank =  0   Radius =  0.650 angstrom
                   Q00  =  -0.270784

C          x =  0.917656  y = -0.427540  z =  2.426333 angstrom
           Maximum rank =  0   Radius =  0.650 angstrom
                   Q00  =   0.844286

O          x =  1.244656  y =  0.485460  z =  3.185333 angstrom
           Maximum rank =  0   Radius =  0.650 angstrom
                   Q00  =  -0.834165

N          x =  0.226656  y = -0.206540  z =  1.323333 angstrom
           Maximum rank =  0   Radius =  0.650 angstrom
                   Q00  =  -0.518859

H          x = -0.089344  y =  0.715460  z =  1.105333 angstrom
           Maximum rank =  0   Radius =  0.325 angstrom
                   Q00  =   0.246441

H          x = -0.239344  y = -0.980540  z =  0.861333 angstrom
           Maximum rank =  0   Radius =  0.325 angstrom
                   Q00  =   0.220352

H          x =  2.209656  y = -2.099540  z =  2.151333 angstrom
           Maximum rank =  0   Radius =  0.325 angstrom
                   Q00  =   0.121437

H          x =  0.516656  y = -2.524540  z =  2.347333 angstrom
           Maximum rank =  0   Radius =  0.325 angstrom
                   Q00  =   0.080427

H          x =  1.466636  y = -2.063970  z =  3.778495 angstrom
           Maximum rank =  0   Radius =  0.325 angstrom
                   Q00  =   0.100881

Total multipoles referred to origin at
           x =   0.000000,  y =    0.000000,  z =    0.000000 angstrom
                   Q00  =  -1.000000

Finished at 14:1:47 on 28 Apr 2020

  DMA results are available in the Python driver through the
	  variable('DMA DISTRIBUTED MULTIPOLES')
  and
	  variable('DMA TOTAL MULTIPOLES')
  commands.

    Psi4 stopped on: Tuesday, 28 April 2020 02:01PM
    Psi4 wall time for execution: 0:00:33.69

*** Psi4 exiting successfully. Buy a developer a beer!
