                               Psi4 1.3.2 release

  ==> Input File <==

--------------------------------------------------------------------------
import numpy as np
set {scf_type pk
basis cc-pvdz
d_convergence 10
gdma_switch   0
gdma_limit    0
gdma_origin   [ 0.0,  0.0,  0.0 ]
}
molecule test {
    units Angstrom
    0 1
    --
    0 1
    C                2.169389331457595     1.405649500188469     0.139902326939458
    C                2.940389331457595     0.663649500188469    -0.955097673060542
    H                2.859389331457595     2.006649500188469     0.731902326939458
    H                1.437389331457595     2.067649500188469    -0.321097673060542
    H                1.660389331457595     0.696649500188469     0.791902326939458
    H                3.454389331457595     1.405649500188469    -1.564097673060541
    H                3.686971331457595    -0.000218499811531    -0.494777673060542
    H                2.249483331457595     0.098428500188469    -1.597887673060542
    C               -1.144610668542405    -0.516350499811531     0.121902326939458
    C               -2.105610668542405     0.357649500188469     0.936902326939458
    O               -1.769610668542405    -1.752350499811531    -0.182097673060542
    H               -0.881610668542405    -0.000350499811531    -0.803097673060542
    H               -0.238610668542405    -0.697350499811531     0.700902326939458
    H               -2.335610668542406    -0.171350499811531     1.861902326939459
    H               -1.284610668542405    -2.175350499811531    -0.903097673060542
    H               -3.040277668542405     0.522368500188469     0.380782326939458
    H               -1.623716668542405     1.309136500188469     1.206072326939458

}
e, wfn = energy('scf', return_wfn=True)
gdma(wfn)
dmavals = variable('DMA DISTRIBUTED MULTIPOLES')
charges = np.array(dmavals)
print(charges)
np.save('SSI-009LEU-055SER-2-dimer.npy', np.array(charges))--------------------------------------------------------------------------

*** tstart() called on ds3
*** at Tue Apr 28 08:09:01 2020

   => Loading Basis Set <=

    Name: CC-PVDZ
    Role: ORBITAL
    Keyword: BASIS
    atoms 1-2, 9-10  entry C          line   138 file /theoryfs2/ds/metcalf/miniconda2/envs/tf2gpu/share/psi4/basis/cc-pvdz.gbs
    atoms 3-8, 12-17 entry H          line    22 file /theoryfs2/ds/metcalf/miniconda2/envs/tf2gpu/share/psi4/basis/cc-pvdz.gbs
    atoms 11         entry O          line   198 file /theoryfs2/ds/metcalf/miniconda2/envs/tf2gpu/share/psi4/basis/cc-pvdz.gbs

         ---------------------------------------------------------
                                   SCF
               by Justin Turney, Rob Parrish, Andy Simmonett
                          and Daniel G. A. Smith
                              RHF Reference
                        1 Threads,    500 MiB Core
         ---------------------------------------------------------

  ==> Geometry <==

    Molecular point group: c1
    Full point group: C1

    Geometry (in Angstrom), charge = 0, multiplicity = 1:

       Center              X                  Y                   Z               Mass
    ------------   -----------------  -----------------  -----------------  -----------------
         C            2.169389331458     1.405649500188     0.139902326939    12.000000000000
         C            2.940389331458     0.663649500188    -0.955097673061    12.000000000000
         H            2.859389331458     2.006649500188     0.731902326939     1.007825032230
         H            1.437389331458     2.067649500188    -0.321097673061     1.007825032230
         H            1.660389331458     0.696649500188     0.791902326939     1.007825032230
         H            3.454389331458     1.405649500188    -1.564097673061     1.007825032230
         H            3.686971331458    -0.000218499812    -0.494777673061     1.007825032230
         H            2.249483331458     0.098428500188    -1.597887673061     1.007825032230
         C           -1.144610668542    -0.516350499812     0.121902326939    12.000000000000
         C           -2.105610668542     0.357649500188     0.936902326939    12.000000000000
         O           -1.769610668542    -1.752350499812    -0.182097673061    15.994914619570
         H           -0.881610668542    -0.000350499812    -0.803097673061     1.007825032230
         H           -0.238610668542    -0.697350499812     0.700902326939     1.007825032230
         H           -2.335610668542    -0.171350499812     1.861902326939     1.007825032230
         H           -1.284610668542    -2.175350499812    -0.903097673061     1.007825032230
         H           -3.040277668542     0.522368500188     0.380782326939     1.007825032230
         H           -1.623716668542     1.309136500188     1.206072326939     1.007825032230

  Running in c1 symmetry.

  Rotational constants: A =      0.21882  B =      0.04106  C =      0.03566 [cm^-1]
  Rotational constants: A =   6559.98070  B =   1230.98039  C =   1068.92013 [MHz]
  Nuclear repulsion =  176.743213326477814

  Charge       = 0
  Multiplicity = 1
  Electrons    = 44
  Nalpha       = 22
  Nbeta        = 22

  ==> Algorithm <==

  SCF Algorithm Type is PK.
  DIIS enabled.
  MOM disabled.
  Fractional occupation disabled.
  Guess Type is SAD.
  Energy threshold   = 1.00e-06
  Density threshold  = 1.00e-10
  Integral threshold = 0.00e+00

  ==> Primary Basis <==

  Basis Set: CC-PVDZ
    Blend: CC-PVDZ
    Number of shells: 66
    Number of basis function: 130
    Number of Cartesian functions: 135
    Spherical Harmonics?: true
    Max angular momentum: 2

  ==> Pre-Iterations <==

   -------------------------------------------------------
    Irrep   Nso     Nmo     Nalpha   Nbeta   Ndocc  Nsocc
   -------------------------------------------------------
     A        130     130       0       0       0       0
   -------------------------------------------------------
    Total     130     130      22      22      22       0
   -------------------------------------------------------

  ==> Integral Setup <==

  Using integral reordering PK algorithm.
  Sizing the integral batches needed.
  Building batch lookup table.
   Calculation information:
      Number of atoms:                  17
      Number of AO shells:              66
      Number of primitives:            170
      Number of atomic orbitals:       135
      Number of basis functions:       130

      Integral cutoff                 1.00e-12
      Number of threads:                 1

	Batch   1 pq = [       0,    8515] index = [             0,36256870] size =     36256870
  Task number: 4
  Buffer size: 11059200
  Buffer per thread: 2
  We computed 1972055 shell quartets total.
  Whereas there are 2445366 unique shell quartets.

  ==> DiskJK: Disk-Based J/K Matrices <==

    J tasked:                  Yes
    K tasked:                  Yes
    wK tasked:                  No
    Memory [MiB]:              375
    Schwarz Cutoff:          1E-12

    OpenMP threads:              1

  Minimum eigenvalue in the overlap matrix is 6.2610514342E-03.
  Using Symmetric Orthogonalization.

  SCF Guess: Superposition of Atomic Densities via on-the-fly atomic UHF.

  ==> Iterations <==

                        Total Energy        Delta E     RMS |[F,P]|

   @RHF iter SAD:  -232.05100307160873   -2.32051e+02   0.00000e+00
   @RHF iter   1:  -233.14232398381927   -1.09132e+00   4.23382e-03 DIIS
   @RHF iter   2:  -233.29164838852634   -1.49324e-01   1.99749e-03 DIIS
   @RHF iter   3:  -233.32146262031165   -2.98142e-02   3.80470e-04 DIIS
   @RHF iter   4:  -233.32352939656300   -2.06678e-03   1.23159e-04 DIIS
   @RHF iter   5:  -233.32366767758845   -1.38281e-04   2.33083e-05 DIIS
   @RHF iter   6:  -233.32367531929532   -7.64171e-06   3.85033e-06 DIIS
   @RHF iter   7:  -233.32367559353878   -2.74243e-07   9.29312e-07 DIIS
   @RHF iter   8:  -233.32367560685964   -1.33209e-08   2.99886e-07 DIIS
   @RHF iter   9:  -233.32367560836914   -1.50951e-09   7.34485e-08 DIIS
   @RHF iter  10:  -233.32367560849792   -1.28779e-10   1.39061e-08 DIIS
   @RHF iter  11:  -233.32367560850301   -5.08749e-12   3.49216e-09 DIIS
   @RHF iter  12:  -233.32367560850233    6.82121e-13   1.19692e-09 DIIS
   @RHF iter  13:  -233.32367560850307   -7.38964e-13   2.97967e-10 DIIS
   @RHF iter  14:  -233.32367560850270    3.69482e-13   7.69250e-11 DIIS
  Energy and wave function converged.

  ==> Post-Iterations <==

    Orbital Energies [Eh]
    ---------------------

    Doubly Occupied:

       1A    -20.546515     2A    -11.274758     3A    -11.224438
       4A    -11.221605     5A    -11.220438     6A     -1.349563
       7A     -1.023398     8A     -1.004849     9A     -0.841276
      10A     -0.830904    11A     -0.690013    12A     -0.641450
      13A     -0.604274    14A     -0.603217    15A     -0.562556
      16A     -0.532389    17A     -0.523524    18A     -0.502688
      19A     -0.492308    20A     -0.491521    21A     -0.473557
      22A     -0.434061

    Virtual:

      23A      0.161028    24A      0.197834    25A      0.202441
      26A      0.225744    27A      0.238772    28A      0.243279
      29A      0.260655    30A      0.265929    31A      0.278275
      32A      0.288057    33A      0.307684    34A      0.354944
      35A      0.381485    36A      0.394798    37A      0.415619
      38A      0.575457    39A      0.597068    40A      0.605592
      41A      0.607136    42A      0.653025    43A      0.665363
      44A      0.672107    45A      0.682361    46A      0.745801
      47A      0.798781    48A      0.813930    49A      0.837877
      50A      0.860408    51A      0.882441    52A      0.887365
      53A      0.889276    54A      0.898669    55A      0.900366
      56A      0.903181    57A      0.923710    58A      0.931428
      59A      0.938738    60A      0.969354    61A      0.986886
      62A      1.119492    63A      1.122960    64A      1.138834
      65A      1.158097    66A      1.179378    67A      1.246861
      68A      1.262355    69A      1.330321    70A      1.424367
      71A      1.474239    72A      1.474487    73A      1.479428
      74A      1.532970    75A      1.545268    76A      1.568063
      77A      1.627724    78A      1.674142    79A      1.681851
      80A      1.691013    81A      1.791079    82A      1.850982
      83A      1.868450    84A      1.873391    85A      1.879370
      86A      1.882397    87A      1.900319    88A      1.920708
      89A      1.940045    90A      1.941081    91A      1.949174
      92A      1.953597    93A      1.955499    94A      1.966853
      95A      1.981365    96A      1.996020    97A      2.042736
      98A      2.099817    99A      2.107287   100A      2.120013
     101A      2.199341   102A      2.242204   103A      2.280085
     104A      2.290397   105A      2.303654   106A      2.311895
     107A      2.446350   108A      2.459993   109A      2.486936
     110A      2.516657   111A      2.541035   112A      2.559583
     113A      2.571468   114A      2.581277   115A      2.753438
     116A      2.760909   117A      2.776102   118A      2.790543
     119A      2.803692   120A      2.840016   121A      2.842435
     122A      2.888661   123A      2.934599   124A      2.951171
     125A      2.960031   126A      3.323267   127A      3.415502
     128A      3.463834   129A      3.630890   130A      4.111558

    Final Occupation by Irrep:
              A
    DOCC [    22 ]

  @RHF Final Energy:  -233.32367560850270

   => Energetics <=

    Nuclear Repulsion Energy =            176.7432133264778145
    One-Electron Energy =                -665.9551739770070071
    Two-Electron Energy =                 255.8882850420264958
    Total Energy =                       -233.3236756085026968

Computation Completed

Properties will be evaluated at   0.000000,   0.000000,   0.000000 [a0]

Properties computed using the SCF density matrix

  Nuclear Dipole Moment: [e a0]
     X:     5.5634      Y:     4.7370      Z:    -0.0108

  Electronic Dipole Moment: [e a0]
     X:    -5.0111      Y:    -4.4769      Z:    -0.3008

  Dipole Moment: [e a0]
     X:     0.5523      Y:     0.2601      Z:    -0.3116     Total:     0.6854

  Dipole Moment: [D]
     X:     1.4039      Y:     0.6610      Z:    -0.7921     Total:     1.7422

*** tstop() called on ds3 at Tue Apr 28 08:09:27 2020
Module time:
	user time   =      11.16 seconds =       0.19 minutes
	system time =       4.52 seconds =       0.08 minutes
	total time  =         26 seconds =       0.43 minutes
Total time:
	user time   =      11.16 seconds =       0.19 minutes
	system time =       4.52 seconds =       0.08 minutes
	total time  =         26 seconds =       0.43 minutes
                                     G D M A

                                 by Anthony Stone

                           version 2.2.06, 22 June 2011

               Distributed Multipoles from Gaussian wavefunctions

Starting at 8:9:27 on 28 Apr 2020

Using SCF density matrix from file ./SSI/SSI-009LEU-055SER-2-dimer.test.9320.fchk

                         Distributed Multipole Analysis

Standard DMA

Positions and radii in angstrom
Multipole moments in atomic units, ea_0^k for rank k

C          x =  2.169389  y =  1.405649  z =  0.139902 angstrom
           Maximum rank =  0   Radius =  0.650 angstrom
                   Q00  =  -0.234002

C          x =  2.940389  y =  0.663650  z = -0.955098 angstrom
           Maximum rank =  0   Radius =  0.650 angstrom
                   Q00  =  -0.240276

H          x =  2.859389  y =  2.006650  z =  0.731902 angstrom
           Maximum rank =  0   Radius =  0.325 angstrom
                   Q00  =   0.081849

H          x =  1.437389  y =  2.067650  z = -0.321098 angstrom
           Maximum rank =  0   Radius =  0.325 angstrom
                   Q00  =   0.077603

H          x =  1.660389  y =  0.696650  z =  0.791902 angstrom
           Maximum rank =  0   Radius =  0.325 angstrom
                   Q00  =   0.079448

H          x =  3.454389  y =  1.405649  z = -1.564098 angstrom
           Maximum rank =  0   Radius =  0.325 angstrom
                   Q00  =   0.080458

H          x =  3.686971  y = -0.000218  z = -0.494778 angstrom
           Maximum rank =  0   Radius =  0.325 angstrom
                   Q00  =   0.080248

H          x =  2.249483  y =  0.098429  z = -1.597888 angstrom
           Maximum rank =  0   Radius =  0.325 angstrom
                   Q00  =   0.075764

C          x = -1.144611  y = -0.516350  z =  0.121902 angstrom
           Maximum rank =  0   Radius =  0.650 angstrom
                   Q00  =   0.077169

C          x = -2.105611  y =  0.357650  z =  0.936902 angstrom
           Maximum rank =  0   Radius =  0.650 angstrom
                   Q00  =  -0.241168

O          x = -1.769611  y = -1.752351  z = -0.182098 angstrom
           Maximum rank =  0   Radius =  0.650 angstrom
                   Q00  =  -0.581226

H          x = -0.881611  y = -0.000350  z = -0.803098 angstrom
           Maximum rank =  0   Radius =  0.325 angstrom
                   Q00  =   0.040214

H          x = -0.238611  y = -0.697351  z =  0.700902 angstrom
           Maximum rank =  0   Radius =  0.325 angstrom
                   Q00  =   0.048779

H          x = -2.335611  y = -0.171350  z =  1.861902 angstrom
           Maximum rank =  0   Radius =  0.325 angstrom
                   Q00  =   0.090290

H          x = -1.284611  y = -2.175351  z = -0.903098 angstrom
           Maximum rank =  0   Radius =  0.325 angstrom
                   Q00  =   0.388608

H          x = -3.040278  y =  0.522369  z =  0.380782 angstrom
           Maximum rank =  0   Radius =  0.325 angstrom
                   Q00  =   0.091193

H          x = -1.623717  y =  1.309137  z =  1.206072 angstrom
           Maximum rank =  0   Radius =  0.325 angstrom
                   Q00  =   0.085049

Total multipoles referred to origin at
           x =   0.000000,  y =    0.000000,  z =    0.000000 angstrom
                   Q00  =  -0.000000

Finished at 8:9:27 on 28 Apr 2020

  DMA results are available in the Python driver through the
	  variable('DMA DISTRIBUTED MULTIPOLES')
  and
	  variable('DMA TOTAL MULTIPOLES')
  commands.

    Psi4 stopped on: Tuesday, 28 April 2020 08:09AM
    Psi4 wall time for execution: 0:00:26.59

*** Psi4 exiting successfully. Buy a developer a beer!
