                               Psi4 1.3.2 release

  ==> Input File <==

--------------------------------------------------------------------------
import numpy as np
set {scf_type pk
basis cc-pvdz
d_convergence 10
gdma_switch   0
gdma_limit    0
gdma_origin   [ 0.0,  0.0,  0.0 ]
}
molecule test {
    units Angstrom
    0 1
    --
    0 1
    C               -1.720761358317669     1.164224960032591     2.393593934583826
    C               -1.012761358317669     1.371224960032591     3.707593934583826
    C               -2.878761358317669     0.247224960032591     2.776593934583826
    H               -1.040761358317669     0.656224960032591     1.710593934583825
    H               -2.068761358317669     2.106224960032591     1.967593934583825
    H                0.028238641682331     1.649224960032591     3.551593934583826
    H               -1.526761358317669     2.150224960032591     4.274593934583827
    H               -3.736761358317669     0.861224960032591     3.055593934583825
    H               -1.091017358317669     0.417098960032591     4.249363934583826
    H               -2.508560358317669    -0.276345039967409     3.670363934583825
    H               -3.178159358317669    -0.437937039967409     1.969803934583825
    C               -0.538761358317669     0.251224960032591    -1.065406065416174
    C               -1.358761358317669     0.334224960032591    -2.321406065416175
    C                0.593238641682331    -0.971775039967409    -2.830406065416175
    C                2.941238641682331    -1.318775039967409    -1.140406065416174
    C                1.722238641682331    -0.556775039967409    -0.644406065416175
    O                1.721238641682331    -0.053775039967409     0.474593934583826
    N                0.670238641682331    -0.476775039967409    -1.458406065416175
    H               -0.307761358317669     1.250224960032591    -0.690406065416175
    H               -1.078761358317669    -0.327775039967409    -0.317406065416174
    H               -1.111761358317669     1.244224960032591    -2.864406065416174
    H               -2.422761358317669     0.313224960032591    -2.093406065416174
    H                0.903238641682331    -2.009775039967409    -2.890406065416174
    H                2.918238641682331    -1.393775039967409    -2.222406065416175
    H               -1.032050358317669    -0.537726039967409    -2.907034065416174
    H               -0.482793358317669    -0.902145039967409    -3.047909065416174
    H                1.174078641682331    -0.335445039967409    -3.514298065416174
    H                3.866318641682331    -0.802632039967409    -0.844046065416174
    H                2.893888641682331    -2.347487539967409    -0.753746065416175

}
e, wfn = energy('scf', return_wfn=True)
gdma(wfn)
dmavals = variable('DMA DISTRIBUTED MULTIPOLES')
charges = np.array(dmavals)
print(charges)
np.save('SSI-034PRO-075PRO-1-dimer.npy', np.array(charges))--------------------------------------------------------------------------

*** tstart() called on ds3
*** at Mon Apr 27 07:30:53 2020

   => Loading Basis Set <=

    Name: CC-PVDZ
    Role: ORBITAL
    Keyword: BASIS
    atoms 1-3, 12-16  entry C          line   138 file /theoryfs2/ds/metcalf/miniconda2/envs/tf2gpu/share/psi4/basis/cc-pvdz.gbs
    atoms 4-11, 19-29 entry H          line    22 file /theoryfs2/ds/metcalf/miniconda2/envs/tf2gpu/share/psi4/basis/cc-pvdz.gbs
    atoms 17          entry O          line   198 file /theoryfs2/ds/metcalf/miniconda2/envs/tf2gpu/share/psi4/basis/cc-pvdz.gbs
    atoms 18          entry N          line   168 file /theoryfs2/ds/metcalf/miniconda2/envs/tf2gpu/share/psi4/basis/cc-pvdz.gbs

         ---------------------------------------------------------
                                   SCF
               by Justin Turney, Rob Parrish, Andy Simmonett
                          and Daniel G. A. Smith
                              RHF Reference
                        1 Threads,    500 MiB Core
         ---------------------------------------------------------

  ==> Geometry <==

    Molecular point group: c1
    Full point group: C1

    Geometry (in Angstrom), charge = 0, multiplicity = 1:

       Center              X                  Y                   Z               Mass
    ------------   -----------------  -----------------  -----------------  -----------------
         C           -1.720761358318     1.164224960033     2.393593934584    12.000000000000
         C           -1.012761358318     1.371224960033     3.707593934584    12.000000000000
         C           -2.878761358318     0.247224960033     2.776593934584    12.000000000000
         H           -1.040761358318     0.656224960033     1.710593934584     1.007825032230
         H           -2.068761358318     2.106224960033     1.967593934584     1.007825032230
         H            0.028238641682     1.649224960033     3.551593934584     1.007825032230
         H           -1.526761358318     2.150224960033     4.274593934584     1.007825032230
         H           -3.736761358318     0.861224960033     3.055593934584     1.007825032230
         H           -1.091017358318     0.417098960033     4.249363934584     1.007825032230
         H           -2.508560358318    -0.276345039967     3.670363934584     1.007825032230
         H           -3.178159358318    -0.437937039967     1.969803934584     1.007825032230
         C           -0.538761358318     0.251224960033    -1.065406065416    12.000000000000
         C           -1.358761358318     0.334224960033    -2.321406065416    12.000000000000
         C            0.593238641682    -0.971775039967    -2.830406065416    12.000000000000
         C            2.941238641682    -1.318775039967    -1.140406065416    12.000000000000
         C            1.722238641682    -0.556775039967    -0.644406065416    12.000000000000
         O            1.721238641682    -0.053775039967     0.474593934584    15.994914619570
         N            0.670238641682    -0.476775039967    -1.458406065416    14.003074004430
         H           -0.307761358318     1.250224960033    -0.690406065416     1.007825032230
         H           -1.078761358318    -0.327775039967    -0.317406065416     1.007825032230
         H           -1.111761358318     1.244224960033    -2.864406065416     1.007825032230
         H           -2.422761358318     0.313224960033    -2.093406065416     1.007825032230
         H            0.903238641682    -2.009775039967    -2.890406065416     1.007825032230
         H            2.918238641682    -1.393775039967    -2.222406065416     1.007825032230
         H           -1.032050358318    -0.537726039967    -2.907034065416     1.007825032230
         H           -0.482793358318    -0.902145039967    -3.047909065416     1.007825032230
         H            1.174078641682    -0.335445039967    -3.514298065416     1.007825032230
         H            3.866318641682    -0.802632039967    -0.844046065416     1.007825032230
         H            2.893888641682    -2.347487539967    -0.753746065416     1.007825032230

  Running in c1 symmetry.

  Rotational constants: A =      0.05283  B =      0.01722  C =      0.01377 [cm^-1]
  Rotational constants: A =   1583.86632  B =    516.27907  C =    412.94651 [MHz]
  Nuclear repulsion =  555.171944886583674

  Charge       = 0
  Multiplicity = 1
  Electrons    = 82
  Nalpha       = 41
  Nbeta        = 41

  ==> Algorithm <==

  SCF Algorithm Type is PK.
  DIIS enabled.
  MOM disabled.
  Fractional occupation disabled.
  Guess Type is SAD.
  Energy threshold   = 1.00e-06
  Density threshold  = 1.00e-10
  Integral threshold = 0.00e+00

  ==> Primary Basis <==

  Basis Set: CC-PVDZ
    Blend: CC-PVDZ
    Number of shells: 117
    Number of basis function: 235
    Number of Cartesian functions: 245
    Spherical Harmonics?: true
    Max angular momentum: 2

  ==> Pre-Iterations <==

   -------------------------------------------------------
    Irrep   Nso     Nmo     Nalpha   Nbeta   Ndocc  Nsocc
   -------------------------------------------------------
     A        235     235       0       0       0       0
   -------------------------------------------------------
    Total     235     235      41      41      41       0
   -------------------------------------------------------

  ==> Integral Setup <==

  Using integral reordering PK algorithm.
  Sizing the integral batches needed.
  Building batch lookup table.
   Calculation information:
      Number of atoms:                  29
      Number of AO shells:             117
      Number of primitives:            315
      Number of atomic orbitals:       245
      Number of basis functions:       235

      Integral cutoff                 1.00e-12
      Number of threads:                 1

	Batch   1 pq = [       0,    9405] index = [             0,44231715] size =     44231715
	Batch   2 pq = [    9405,   13301] index = [      44231715,88464951] size =     44233236
	Batch   3 pq = [   13301,   16290] index = [      88464951,132690195] size =     44225244
	Batch   4 pq = [   16290,   18810] index = [     132690195,176917455] size =     44227260
	Batch   5 pq = [   18810,   21030] index = [     176917455,221140965] size =     44223510
	Batch   6 pq = [   21030,   23037] index = [     221140965,265363203] size =     44222238
	Batch   7 pq = [   23037,   24883] index = [     265363203,309594286] size =     44231083
	Batch   8 pq = [   24883,   26601] index = [     309594286,353819901] size =     44225615
	Batch   9 pq = [   26601,   27730] index = [     353819901,384490315] size =     30670414
  Task number: 35
  Buffer size: 11059200
  Buffer per thread: 2
  We computed 19934497 shell quartets total.
  Whereas there are 23829156 unique shell quartets.

  ==> DiskJK: Disk-Based J/K Matrices <==

    J tasked:                  Yes
    K tasked:                  Yes
    wK tasked:                  No
    Memory [MiB]:              375
    Schwarz Cutoff:          1E-12

    OpenMP threads:              1

  Minimum eigenvalue in the overlap matrix is 1.5275633570E-03.
  Using Symmetric Orthogonalization.

  SCF Guess: Superposition of Atomic Densities via on-the-fly atomic UHF.

  ==> Iterations <==

                        Total Energy        Delta E     RMS |[F,P]|

   @RHF iter SAD:  -442.62680206017848   -4.42627e+02   0.00000e+00
   @RHF iter   1:  -442.81800989635360   -1.91208e-01   3.14233e-03 DIIS
   @RHF iter   2:  -443.07495668944279   -2.56947e-01   1.70509e-03 DIIS
   @RHF iter   3:  -443.14030648313542   -6.53498e-02   4.09491e-04 DIIS
   @RHF iter   4:  -443.14583743773284   -5.53095e-03   1.65585e-04 DIIS
   @RHF iter   5:  -443.14674227405004   -9.04836e-04   2.76894e-05 DIIS
   @RHF iter   6:  -443.14679568500179   -5.34110e-05   1.32777e-05 DIIS
   @RHF iter   7:  -443.14680590787725   -1.02229e-05   4.97662e-06 DIIS
   @RHF iter   8:  -443.14680798385569   -2.07598e-06   2.04650e-06 DIIS
   @RHF iter   9:  -443.14680832524647   -3.41391e-07   5.68321e-07 DIIS
   @RHF iter  10:  -443.14680834649090   -2.12444e-08   1.54771e-07 DIIS
   @RHF iter  11:  -443.14680834818193   -1.69103e-09   4.28807e-08 DIIS
   @RHF iter  12:  -443.14680834830273   -1.20792e-10   1.19477e-08 DIIS
   @RHF iter  13:  -443.14680834831319   -1.04592e-11   3.85724e-09 DIIS
   @RHF iter  14:  -443.14680834831302    1.70530e-13   1.06176e-09 DIIS
   @RHF iter  15:  -443.14680834831086    2.16005e-12   3.11955e-10 DIIS
   @RHF iter  16:  -443.14680834830807    2.78533e-12   1.24782e-10 DIIS
   @RHF iter  17:  -443.14680834830978   -1.70530e-12   4.56825e-11 DIIS
  Energy and wave function converged.

  ==> Post-Iterations <==

    Orbital Energies [Eh]
    ---------------------

    Doubly Occupied:

       1A    -20.499098     2A    -15.582760     3A    -11.339094
       4A    -11.262974     5A    -11.260735     6A    -11.235124
       7A    -11.219558     8A    -11.205526     9A    -11.201659
      10A    -11.198496    11A     -1.366971    12A     -1.257568
      13A     -1.072789    14A     -1.055879    15A     -1.001102
      16A     -0.980109    17A     -0.901581    18A     -0.851279
      19A     -0.788139    20A     -0.761584    21A     -0.725857
      22A     -0.672667    23A     -0.663189    24A     -0.625290
      25A     -0.612181    26A     -0.602465    27A     -0.601115
      28A     -0.581638    29A     -0.556795    30A     -0.539978
      31A     -0.527752    32A     -0.523677    33A     -0.517096
      34A     -0.501491    35A     -0.483722    36A     -0.475583
      37A     -0.453690    38A     -0.446111    39A     -0.411536
      40A     -0.398379    41A     -0.362297

    Virtual:

      42A      0.164634    43A      0.179917    44A      0.195152
      45A      0.203128    46A      0.218313    47A      0.224130
      48A      0.238031    49A      0.240734    50A      0.246260
      51A      0.251712    52A      0.259536    53A      0.266597
      54A      0.278070    55A      0.285972    56A      0.299159
      57A      0.308104    58A      0.315961    59A      0.321127
      60A      0.339965    61A      0.348556    62A      0.364574
      63A      0.389487    64A      0.394203    65A      0.408789
      66A      0.450094    67A      0.467635    68A      0.488924
      69A      0.514380    70A      0.553502    71A      0.570443
      72A      0.588630    73A      0.607686    74A      0.617731
      75A      0.641697    76A      0.650368    77A      0.663515
      78A      0.674034    79A      0.677224    80A      0.688236
      81A      0.705876    82A      0.717702    83A      0.758328
      84A      0.782606    85A      0.795289    86A      0.807765
      87A      0.827814    88A      0.834220    89A      0.845942
      90A      0.854604    91A      0.858430    92A      0.860910
      93A      0.872377    94A      0.872656    95A      0.883041
      96A      0.888565    97A      0.894171    98A      0.902513
      99A      0.908531   100A      0.913708   101A      0.918919
     102A      0.926520   103A      0.927930   104A      0.939151
     105A      0.941426   106A      0.949765   107A      0.973121
     108A      0.978134   109A      0.999245   110A      1.016462
     111A      1.021039   112A      1.036575   113A      1.058776
     114A      1.104564   115A      1.112921   116A      1.127890
     117A      1.148868   118A      1.163828   119A      1.204412
     120A      1.219745   121A      1.248771   122A      1.272843
     123A      1.344858   124A      1.390587   125A      1.410825
     126A      1.416034   127A      1.427126   128A      1.442594
     129A      1.476828   130A      1.487451   131A      1.500500
     132A      1.513224   133A      1.542957   134A      1.560380
     135A      1.582195   136A      1.591076   137A      1.608698
     138A      1.625857   139A      1.632820   140A      1.639486
     141A      1.656461   142A      1.680979   143A      1.700390
     144A      1.743213   145A      1.754250   146A      1.755541
     147A      1.778082   148A      1.817448   149A      1.826912
     150A      1.840729   151A      1.845789   152A      1.870340
     153A      1.878821   154A      1.886407   155A      1.891120
     156A      1.900700   157A      1.915750   158A      1.931083
     159A      1.936285   160A      1.938286   161A      1.951636
     162A      1.966678   163A      1.969486   164A      1.981605
     165A      1.990740   166A      1.994081   167A      2.010278
     168A      2.014680   169A      2.028345   170A      2.030640
     171A      2.054429   172A      2.064078   173A      2.079524
     174A      2.092654   175A      2.106353   176A      2.113543
     177A      2.133338   178A      2.153483   179A      2.170118
     180A      2.180959   181A      2.187898   182A      2.225392
     183A      2.231269   184A      2.251627   185A      2.257440
     186A      2.289149   187A      2.321008   188A      2.325142
     189A      2.333323   190A      2.363933   191A      2.366260
     192A      2.412350   193A      2.443307   194A      2.454618
     195A      2.480870   196A      2.495416   197A      2.506659
     198A      2.516783   199A      2.524341   200A      2.564919
     201A      2.573534   202A      2.626104   203A      2.645873
     204A      2.654596   205A      2.695144   206A      2.715846
     207A      2.746393   208A      2.759892   209A      2.766901
     210A      2.778005   211A      2.786099   212A      2.792287
     213A      2.804670   214A      2.812965   215A      2.833190
     216A      2.845410   217A      2.848236   218A      2.856486
     219A      2.881273   220A      2.933645   221A      2.941356
     222A      2.975906   223A      2.979413   224A      3.035115
     225A      3.086099   226A      3.099225   227A      3.122373
     228A      3.179607   229A      3.214082   230A      3.281438
     231A      3.395071   232A      3.530306   233A      3.840670
     234A      3.923384   235A      4.965045

    Final Occupation by Irrep:
              A
    DOCC [    41 ]

  @RHF Final Energy:  -443.14680834830978

   => Energetics <=

    Nuclear Repulsion Energy =            555.1719448865836739
    One-Electron Energy =               -1701.9884337033138308
    Two-Electron Energy =                 703.6696804684204380
    Total Energy =                       -443.1468083483098326

Computation Completed

Properties will be evaluated at   0.000000,   0.000000,   0.000000 [a0]

Properties computed using the SCF density matrix

  Nuclear Dipole Moment: [e a0]
     X:    -9.1834      Y:     1.1981      Z:     2.1665

  Electronic Dipole Moment: [e a0]
     X:     8.8154      Y:    -1.7045      Z:    -3.8885

  Dipole Moment: [e a0]
     X:    -0.3680      Y:    -0.5063      Z:    -1.7220     Total:     1.8323

  Dipole Moment: [D]
     X:    -0.9354      Y:    -1.2869      Z:    -4.3769     Total:     4.6571

*** tstop() called on ds3 at Mon Apr 27 07:35:15 2020
Module time:
	user time   =     134.74 seconds =       2.25 minutes
	system time =      57.33 seconds =       0.96 minutes
	total time  =        262 seconds =       4.37 minutes
Total time:
	user time   =     134.74 seconds =       2.25 minutes
	system time =      57.33 seconds =       0.96 minutes
	total time  =        262 seconds =       4.37 minutes
                                     G D M A

                                 by Anthony Stone

                           version 2.2.06, 22 June 2011

               Distributed Multipoles from Gaussian wavefunctions

Starting at 7:35:15 on 27 Apr 2020

Using SCF density matrix from file ./SSI/SSI-034PRO-075PRO-1-dimer.test.20946.fchk

                         Distributed Multipole Analysis

Standard DMA

Positions and radii in angstrom
Multipole moments in atomic units, ea_0^k for rank k

C          x = -1.720761  y =  1.164225  z =  2.393594 angstrom
           Maximum rank =  0   Radius =  0.650 angstrom
                   Q00  =  -0.087448

C          x = -1.012761  y =  1.371225  z =  3.707594 angstrom
           Maximum rank =  0   Radius =  0.650 angstrom
                   Q00  =  -0.213229

C          x = -2.878761  y =  0.247225  z =  2.776594 angstrom
           Maximum rank =  0   Radius =  0.650 angstrom
                   Q00  =  -0.241828

H          x = -1.040761  y =  0.656225  z =  1.710594 angstrom
           Maximum rank =  0   Radius =  0.325 angstrom
                   Q00  =   0.060620

H          x = -2.068761  y =  2.106225  z =  1.967594 angstrom
           Maximum rank =  0   Radius =  0.325 angstrom
                   Q00  =   0.046823

H          x =  0.028239  y =  1.649225  z =  3.551594 angstrom
           Maximum rank =  0   Radius =  0.325 angstrom
                   Q00  =   0.091219

H          x = -1.526761  y =  2.150225  z =  4.274594 angstrom
           Maximum rank =  0   Radius =  0.325 angstrom
                   Q00  =   0.065121

H          x = -3.736761  y =  0.861225  z =  3.055594 angstrom
           Maximum rank =  0   Radius =  0.325 angstrom
                   Q00  =   0.078680

H          x = -1.091017  y =  0.417099  z =  4.249364 angstrom
           Maximum rank =  0   Radius =  0.325 angstrom
                   Q00  =   0.050865

H          x = -2.508560  y = -0.276345  z =  3.670364 angstrom
           Maximum rank =  0   Radius =  0.325 angstrom
                   Q00  =   0.069634

H          x = -3.178159  y = -0.437937  z =  1.969804 angstrom
           Maximum rank =  0   Radius =  0.325 angstrom
                   Q00  =   0.072782

C          x = -0.538761  y =  0.251225  z = -1.065406 angstrom
           Maximum rank =  0   Radius =  0.650 angstrom
                   Q00  =   0.035067

C          x = -1.358761  y =  0.334225  z = -2.321406 angstrom
           Maximum rank =  0   Radius =  0.650 angstrom
                   Q00  =  -0.265850

C          x =  0.593239  y = -0.971775  z = -2.830406 angstrom
           Maximum rank =  0   Radius =  0.650 angstrom
                   Q00  =  -0.085143

C          x =  2.941239  y = -1.318775  z = -1.140406 angstrom
           Maximum rank =  0   Radius =  0.650 angstrom
                   Q00  =  -0.268414

C          x =  1.722239  y = -0.556775  z = -0.644406 angstrom
           Maximum rank =  0   Radius =  0.650 angstrom
                   Q00  =   0.754829

O          x =  1.721239  y = -0.053775  z =  0.474594 angstrom
           Maximum rank =  0   Radius =  0.650 angstrom
                   Q00  =  -0.795559

N          x =  0.670239  y = -0.476775  z = -1.458406 angstrom
           Maximum rank =  0   Radius =  0.650 angstrom
                   Q00  =  -0.465868

H          x = -0.307761  y =  1.250225  z = -0.690406 angstrom
           Maximum rank =  0   Radius =  0.325 angstrom
                   Q00  =   0.094753

H          x = -1.078761  y = -0.327775  z = -0.317406 angstrom
           Maximum rank =  0   Radius =  0.325 angstrom
                   Q00  =   0.067621

H          x = -1.111761  y =  1.244225  z = -2.864406 angstrom
           Maximum rank =  0   Radius =  0.325 angstrom
                   Q00  =   0.098656

H          x = -2.422761  y =  0.313225  z = -2.093406 angstrom
           Maximum rank =  0   Radius =  0.325 angstrom
                   Q00  =   0.098906

H          x =  0.903239  y = -2.009775  z = -2.890406 angstrom
           Maximum rank =  0   Radius =  0.325 angstrom
                   Q00  =   0.091250

H          x =  2.918239  y = -1.393775  z = -2.222406 angstrom
           Maximum rank =  0   Radius =  0.325 angstrom
                   Q00  =   0.088245

H          x = -1.032050  y = -0.537726  z = -2.907034 angstrom
           Maximum rank =  0   Radius =  0.325 angstrom
                   Q00  =   0.070369

H          x = -0.482793  y = -0.902145  z = -3.047909 angstrom
           Maximum rank =  0   Radius =  0.325 angstrom
                   Q00  =   0.146710

H          x =  1.174079  y = -0.335445  z = -3.514298 angstrom
           Maximum rank =  0   Radius =  0.325 angstrom
                   Q00  =   0.084930

H          x =  3.866319  y = -0.802632  z = -0.844046 angstrom
           Maximum rank =  0   Radius =  0.325 angstrom
                   Q00  =   0.128970

H          x =  2.893889  y = -2.347488  z = -0.753746 angstrom
           Maximum rank =  0   Radius =  0.325 angstrom
                   Q00  =   0.127289

Total multipoles referred to origin at
           x =   0.000000,  y =    0.000000,  z =    0.000000 angstrom
                   Q00  =  -0.000000

Finished at 7:35:15 on 27 Apr 2020

  DMA results are available in the Python driver through the
	  variable('DMA DISTRIBUTED MULTIPOLES')
  and
	  variable('DMA TOTAL MULTIPOLES')
  commands.

    Psi4 stopped on: Monday, 27 April 2020 07:35AM
    Psi4 wall time for execution: 0:04:21.66

*** Psi4 exiting successfully. Buy a developer a beer!
