                               Psi4 1.3.2 release

  ==> Input File <==

--------------------------------------------------------------------------
import numpy as np
set {scf_type pk
basis cc-pvdz
d_convergence 10
gdma_switch   0
gdma_limit    0
gdma_origin   [ 0.0,  0.0,  0.0 ]
}
molecule test {
    units Angstrom
    1 1
    --
    1 1
    C               -0.440204913047015     2.027736673889130    -1.610345068578685
    C                0.298795086952985     3.064736673889130    -0.759345068578685
    H               -1.204204913047015     1.534736673889130    -1.009345068578685
    H               -0.922204913047015     2.521736673889130    -2.455345068578685
    H                0.263795086952985     1.283736673889130    -1.984345068578685
    H               -0.453204913047015     3.796736673889130    -0.475345068578685
    H                0.753635086952985     2.632028173889130     0.143915931421315
    H                1.062985086952985     3.580962673889130    -1.358950068578685
    C               -0.129204913047015    -1.265263326110870     0.372654931421315
    C               -0.738204913047015    -1.248263326110870     1.754654931421315
    N                0.886795086952985    -2.343263326110870     0.247654931421315
    H               -0.927204913047015    -1.414263326110870    -0.365345068578685
    H                0.333795086952985    -0.291263326110870     0.173654931421315
    H                0.091795086952985    -1.223263326110870     2.430654931421315
    H               -1.205204913047015    -2.226263326110870     1.907654931421315
    H                0.497795086952985    -3.263263326110870     0.438654931421315
    H                1.260795086952985    -2.378263326110870    -0.696345068578685
    H                1.679795086952985    -2.201263326110870     0.865654931421315
    H               -1.541964913047015    -0.501049326110870     1.829805931421315

}
e, wfn = energy('scf', return_wfn=True)
gdma(wfn)
dmavals = variable('DMA DISTRIBUTED MULTIPOLES')
charges = np.array(dmavals)
print(charges)
np.save('SSI-005LEU-015LYS-1-dimer.npy', np.array(charges))--------------------------------------------------------------------------

*** tstart() called on ds3
*** at Tue Apr 28 13:23:10 2020

   => Loading Basis Set <=

    Name: CC-PVDZ
    Role: ORBITAL
    Keyword: BASIS
    atoms 1-2, 9-10  entry C          line   138 file /theoryfs2/ds/metcalf/miniconda2/envs/tf2gpu/share/psi4/basis/cc-pvdz.gbs
    atoms 3-8, 12-19 entry H          line    22 file /theoryfs2/ds/metcalf/miniconda2/envs/tf2gpu/share/psi4/basis/cc-pvdz.gbs
    atoms 11         entry N          line   168 file /theoryfs2/ds/metcalf/miniconda2/envs/tf2gpu/share/psi4/basis/cc-pvdz.gbs

         ---------------------------------------------------------
                                   SCF
               by Justin Turney, Rob Parrish, Andy Simmonett
                          and Daniel G. A. Smith
                              RHF Reference
                        1 Threads,    500 MiB Core
         ---------------------------------------------------------

  ==> Geometry <==

    Molecular point group: c1
    Full point group: C1

    Geometry (in Angstrom), charge = 1, multiplicity = 1:

       Center              X                  Y                   Z               Mass
    ------------   -----------------  -----------------  -----------------  -----------------
         C           -0.440204913047     2.027736673889    -1.610345068579    12.000000000000
         C            0.298795086953     3.064736673889    -0.759345068579    12.000000000000
         H           -1.204204913047     1.534736673889    -1.009345068579     1.007825032230
         H           -0.922204913047     2.521736673889    -2.455345068579     1.007825032230
         H            0.263795086953     1.283736673889    -1.984345068579     1.007825032230
         H           -0.453204913047     3.796736673889    -0.475345068579     1.007825032230
         H            0.753635086953     2.632028173889     0.143915931421     1.007825032230
         H            1.062985086953     3.580962673889    -1.358950068579     1.007825032230
         C           -0.129204913047    -1.265263326111     0.372654931421    12.000000000000
         C           -0.738204913047    -1.248263326111     1.754654931421    12.000000000000
         N            0.886795086953    -2.343263326111     0.247654931421    14.003074004430
         H           -0.927204913047    -1.414263326111    -0.365345068579     1.007825032230
         H            0.333795086953    -0.291263326111     0.173654931421     1.007825032230
         H            0.091795086953    -1.223263326111     2.430654931421     1.007825032230
         H           -1.205204913047    -2.226263326111     1.907654931421     1.007825032230
         H            0.497795086953    -3.263263326111     0.438654931421     1.007825032230
         H            1.260795086953    -2.378263326111    -0.696345068579     1.007825032230
         H            1.679795086953    -2.201263326111     0.865654931421     1.007825032230
         H           -1.541964913047    -0.501049326111     1.829805931421     1.007825032230

  Running in c1 symmetry.

  Rotational constants: A =      0.20692  B =      0.03883  C =      0.03596 [cm^-1]
  Rotational constants: A =   6203.27564  B =   1164.05484  C =   1078.13874 [MHz]
  Nuclear repulsion =  187.079291814271528

  Charge       = 1
  Multiplicity = 1
  Electrons    = 44
  Nalpha       = 22
  Nbeta        = 22

  ==> Algorithm <==

  SCF Algorithm Type is PK.
  DIIS enabled.
  MOM disabled.
  Fractional occupation disabled.
  Guess Type is SAD.
  Energy threshold   = 1.00e-06
  Density threshold  = 1.00e-10
  Integral threshold = 0.00e+00

  ==> Primary Basis <==

  Basis Set: CC-PVDZ
    Blend: CC-PVDZ
    Number of shells: 72
    Number of basis function: 140
    Number of Cartesian functions: 145
    Spherical Harmonics?: true
    Max angular momentum: 2

  ==> Pre-Iterations <==

   -------------------------------------------------------
    Irrep   Nso     Nmo     Nalpha   Nbeta   Ndocc  Nsocc
   -------------------------------------------------------
     A        140     140       0       0       0       0
   -------------------------------------------------------
    Total     140     140      22      22      22       0
   -------------------------------------------------------

  ==> Integral Setup <==

  Using integral reordering PK algorithm.
  Sizing the integral batches needed.
  Building batch lookup table.
   Calculation information:
      Number of atoms:                  19
      Number of AO shells:              72
      Number of primitives:            180
      Number of atomic orbitals:       145
      Number of basis functions:       140

      Integral cutoff                 1.00e-12
      Number of threads:                 1

	Batch   1 pq = [       0,    9405] index = [             0,44231715] size =     44231715
	Batch   2 pq = [    9405,    9870] index = [      44231715,48713385] size =      4481670
  Task number: 5
  Buffer size: 11059200
  Buffer per thread: 2
  We computed 2810228 shell quartets total.
  Whereas there are 3454506 unique shell quartets.

  ==> DiskJK: Disk-Based J/K Matrices <==

    J tasked:                  Yes
    K tasked:                  Yes
    wK tasked:                  No
    Memory [MiB]:              375
    Schwarz Cutoff:          1E-12

    OpenMP threads:              1

  Minimum eigenvalue in the overlap matrix is 5.2118056306E-03.
  Using Symmetric Orthogonalization.

  SCF Guess: Superposition of Atomic Densities via on-the-fly atomic UHF.

  ==> Iterations <==

                        Total Energy        Delta E     RMS |[F,P]|

   @RHF iter SAD:  -213.21253312769966   -2.13213e+02   0.00000e+00
   @RHF iter   1:  -213.68441797285209   -4.71885e-01   3.57953e-03 DIIS
   @RHF iter   2:  -213.83592372805558   -1.51506e-01   1.35792e-03 DIIS
   @RHF iter   3:  -213.85618610097873   -2.02624e-02   3.42559e-04 DIIS
   @RHF iter   4:  -213.85833505351459   -2.14895e-03   4.70912e-05 DIIS
   @RHF iter   5:  -213.85837991995538   -4.48664e-05   1.29853e-05 DIIS
   @RHF iter   6:  -213.85838269154934   -2.77159e-06   3.61111e-06 DIIS
   @RHF iter   7:  -213.85838288959795   -1.98049e-07   8.85359e-07 DIIS
   @RHF iter   8:  -213.85838290655693   -1.69590e-08   2.60938e-07 DIIS
   @RHF iter   9:  -213.85838290772710   -1.17018e-09   6.92610e-08 DIIS
   @RHF iter  10:  -213.85838290780873   -8.16271e-11   1.24202e-08 DIIS
   @RHF iter  11:  -213.85838290781194   -3.21165e-12   2.28819e-09 DIIS
   @RHF iter  12:  -213.85838290781177    1.70530e-13   4.16541e-10 DIIS
   @RHF iter  13:  -213.85838290781277   -9.94760e-13   9.85763e-11 DIIS
  Energy and wave function converged.

  ==> Post-Iterations <==

    Orbital Energies [Eh]
    ---------------------

    Doubly Occupied:

       1A    -15.910192     2A    -11.481866     3A    -11.407394
       4A    -11.326566     5A    -11.319136     6A     -1.529546
       7A     -1.229826     8A     -1.123246     9A     -1.060701
      10A     -0.986199    11A     -0.968325    12A     -0.940860
      13A     -0.869362    14A     -0.802636    15A     -0.737431
      16A     -0.708942    17A     -0.703240    18A     -0.700351
      19A     -0.680565    20A     -0.604609    21A     -0.591812
      22A     -0.587172

    Virtual:

      23A     -0.053514    24A      0.010941    25A      0.011985
      26A      0.022920    27A      0.071602    28A      0.084250
      29A      0.095016    30A      0.120289    31A      0.122485
      32A      0.139824    33A      0.141439    34A      0.164145
      35A      0.181042    36A      0.194081    37A      0.213496
      38A      0.222117    39A      0.290387    40A      0.374979
      41A      0.389543    42A      0.409282    43A      0.423972
      44A      0.448518    45A      0.497752    46A      0.505302
      47A      0.529361    48A      0.571650    49A      0.590538
      50A      0.609578    51A      0.622097    52A      0.658147
      53A      0.671031    54A      0.688065    55A      0.706533
      56A      0.719358    57A      0.737866    58A      0.741587
      59A      0.772512    60A      0.777210    61A      0.788217
      62A      0.794860    63A      0.799557    64A      0.811182
      65A      0.826074    66A      0.844205    67A      0.861549
      68A      0.869986    69A      0.929396    70A      0.934473
      71A      1.014440    72A      1.029061    73A      1.054400
      74A      1.132693    75A      1.195582    76A      1.260936
      77A      1.297817    78A      1.360190    79A      1.375845
      80A      1.387908    81A      1.454239    82A      1.466926
      83A      1.481803    84A      1.488047    85A      1.566880
      86A      1.586638    87A      1.609128    88A      1.662290
      89A      1.679682    90A      1.710950    91A      1.726935
      92A      1.758704    93A      1.760739    94A      1.772926
      95A      1.778474    96A      1.785776    97A      1.801737
      98A      1.814757    99A      1.837384   100A      1.845786
     101A      1.851218   102A      1.866971   103A      1.884506
     104A      1.889297   105A      1.899335   106A      1.932083
     107A      1.954490   108A      1.976899   109A      1.995700
     110A      2.029244   111A      2.040680   112A      2.091134
     113A      2.160930   114A      2.175014   115A      2.192051
     116A      2.208832   117A      2.306502   118A      2.327170
     119A      2.340488   120A      2.359724   121A      2.369110
     122A      2.437750   123A      2.453779   124A      2.483425
     125A      2.502448   126A      2.530297   127A      2.603588
     128A      2.649052   129A      2.661526   130A      2.667094
     131A      2.688680   132A      2.736542   133A      2.738292
     134A      2.756358   135A      2.777885   136A      2.840820
     137A      2.856838   138A      2.885981   139A      3.093345
     140A      3.126928

    Final Occupation by Irrep:
              A
    DOCC [    22 ]

  @RHF Final Energy:  -213.85838290781277

   => Energetics <=

    Nuclear Repulsion Energy =            187.0792918142715280
    One-Electron Energy =                -649.3353932791363832
    Two-Electron Energy =                 248.3977185570520874
    Total Energy =                       -213.8583829078127678

Computation Completed

Properties will be evaluated at   0.000000,   0.000000,   0.000000 [a0]

Properties computed using the SCF density matrix

  Nuclear Dipole Moment: [e a0]
     X:    -0.2928      Y:     1.7421      Z:    -0.5210

  Electronic Dipole Moment: [e a0]
     X:     1.4430      Y:    -5.5203      Z:     1.1088

  Dipole Moment: [e a0]
     X:     1.1502      Y:    -3.7782      Z:     0.5877     Total:     3.9929

  Dipole Moment: [D]
     X:     2.9236      Y:    -9.6031      Z:     1.4939     Total:    10.1488

*** tstop() called on ds3 at Tue Apr 28 13:23:38 2020
Module time:
	user time   =      15.53 seconds =       0.26 minutes
	system time =       6.16 seconds =       0.10 minutes
	total time  =         28 seconds =       0.47 minutes
Total time:
	user time   =      15.53 seconds =       0.26 minutes
	system time =       6.16 seconds =       0.10 minutes
	total time  =         28 seconds =       0.47 minutes
                                     G D M A

                                 by Anthony Stone

                           version 2.2.06, 22 June 2011

               Distributed Multipoles from Gaussian wavefunctions

Starting at 13:23:38 on 28 Apr 2020

Using SCF density matrix from file ./SSI/SSI-005LEU-015LYS-1-dimer.test.15985.fchk

                         Distributed Multipole Analysis

Standard DMA

Positions and radii in angstrom
Multipole moments in atomic units, ea_0^k for rank k

C          x = -0.440205  y =  2.027737  z = -1.610345 angstrom
           Maximum rank =  0   Radius =  0.650 angstrom
                   Q00  =  -0.247800

C          x =  0.298795  y =  3.064737  z = -0.759345 angstrom
           Maximum rank =  0   Radius =  0.650 angstrom
                   Q00  =  -0.232045

H          x = -1.204205  y =  1.534737  z = -1.009345 angstrom
           Maximum rank =  0   Radius =  0.325 angstrom
                   Q00  =   0.057536

H          x = -0.922205  y =  2.521737  z = -2.455345 angstrom
           Maximum rank =  0   Radius =  0.325 angstrom
                   Q00  =   0.114116

H          x =  0.263795  y =  1.283737  z = -1.984345 angstrom
           Maximum rank =  0   Radius =  0.325 angstrom
                   Q00  =   0.050922

H          x = -0.453205  y =  3.796737  z = -0.475345 angstrom
           Maximum rank =  0   Radius =  0.325 angstrom
                   Q00  =   0.097820

H          x =  0.753635  y =  2.632028  z =  0.143916 angstrom
           Maximum rank =  0   Radius =  0.325 angstrom
                   Q00  =   0.060345

H          x =  1.062985  y =  3.580963  z = -1.358950 angstrom
           Maximum rank =  0   Radius =  0.325 angstrom
                   Q00  =   0.100019

C          x = -0.129205  y = -1.265263  z =  0.372655 angstrom
           Maximum rank =  0   Radius =  0.650 angstrom
                   Q00  =  -0.040385

C          x = -0.738205  y = -1.248263  z =  1.754655 angstrom
           Maximum rank =  0   Radius =  0.650 angstrom
                   Q00  =  -0.183174

N          x =  0.886795  y = -2.343263  z =  0.247655 angstrom
           Maximum rank =  0   Radius =  0.650 angstrom
                   Q00  =  -0.150049

H          x = -0.927205  y = -1.414263  z = -0.365345 angstrom
           Maximum rank =  0   Radius =  0.325 angstrom
                   Q00  =   0.130959

H          x =  0.333795  y = -0.291263  z =  0.173655 angstrom
           Maximum rank =  0   Radius =  0.325 angstrom
                   Q00  =   0.131365

H          x =  0.091795  y = -1.223263  z =  2.430655 angstrom
           Maximum rank =  0   Radius =  0.325 angstrom
                   Q00  =   0.087553

H          x = -1.205205  y = -2.226263  z =  1.907655 angstrom
           Maximum rank =  0   Radius =  0.325 angstrom
                   Q00  =   0.094483

H          x =  0.497795  y = -3.263263  z =  0.438655 angstrom
           Maximum rank =  0   Radius =  0.325 angstrom
                   Q00  =   0.259258

H          x =  1.260795  y = -2.378263  z = -0.696345 angstrom
           Maximum rank =  0   Radius =  0.325 angstrom
                   Q00  =   0.258181

H          x =  1.679795  y = -2.201263  z =  0.865655 angstrom
           Maximum rank =  0   Radius =  0.325 angstrom
                   Q00  =   0.258871

H          x = -1.541965  y = -0.501049  z =  1.829806 angstrom
           Maximum rank =  0   Radius =  0.325 angstrom
                   Q00  =   0.152025

Total multipoles referred to origin at
           x =   0.000000,  y =    0.000000,  z =    0.000000 angstrom
                   Q00  =   1.000000

Finished at 13:23:38 on 28 Apr 2020

  DMA results are available in the Python driver through the
	  variable('DMA DISTRIBUTED MULTIPOLES')
  and
	  variable('DMA TOTAL MULTIPOLES')
  commands.

    Psi4 stopped on: Tuesday, 28 April 2020 01:23PM
    Psi4 wall time for execution: 0:00:28.75

*** Psi4 exiting successfully. Buy a developer a beer!
