                               Psi4 1.3.2 release

  ==> Input File <==

--------------------------------------------------------------------------
import numpy as np
set {scf_type pk
basis cc-pvdz
d_convergence 10
gdma_switch   0
gdma_limit    0
gdma_origin   [ 0.0,  0.0,  0.0 ]
}
molecule test {
    units Angstrom
    0 1
    --
    0 1
    C               -1.293883504017107    -0.820601250823634    -0.571138032143206
    C               -2.774883504017108    -0.464601250823634    -0.710138032143206
    H               -1.180883504017107    -1.902601250823634    -0.569138032143206
    H               -0.735883504017107    -0.423601250823634    -1.415138032143206
    H               -0.862883504017107    -0.420601250823634     0.338861967856794
    H               -2.871883504017108     0.621398749176366    -0.701138032143206
    H               -3.340523504017107    -0.898501250823634     0.127581967856794
    H               -3.180653504017108    -0.822341250823634    -1.667938032143206
    C                1.635116495982893     0.913398749176366     1.229861967856794
    C                2.436116495982893     0.375398749176366     0.053861967856794
    H                2.105116495982893     1.818398749176366     1.618861967856794
    H                0.623116495982893     1.159398749176366     0.909861967856794
    H                1.592116495982893     0.162398749176366     2.018861967856794
    H                1.980116495982893    -0.565601250823634    -0.259138032143206
    H                3.467926495982892     0.169188749176366     0.374551967856794
    H                2.374956495982892     1.059658749176366    -0.805238032143206

}
e, wfn = energy('scf', return_wfn=True)
gdma(wfn)
dmavals = variable('DMA DISTRIBUTED MULTIPOLES')
charges = np.array(dmavals)
print(charges)
np.save('SSI-003VAL-118ALA-1-dimer.npy', np.array(charges))--------------------------------------------------------------------------

*** tstart() called on ds3
*** at Mon Apr 27 23:22:46 2020

   => Loading Basis Set <=

    Name: CC-PVDZ
    Role: ORBITAL
    Keyword: BASIS
    atoms 1-2, 9-10  entry C          line   138 file /theoryfs2/ds/metcalf/miniconda2/envs/tf2gpu/share/psi4/basis/cc-pvdz.gbs
    atoms 3-8, 11-16 entry H          line    22 file /theoryfs2/ds/metcalf/miniconda2/envs/tf2gpu/share/psi4/basis/cc-pvdz.gbs

         ---------------------------------------------------------
                                   SCF
               by Justin Turney, Rob Parrish, Andy Simmonett
                          and Daniel G. A. Smith
                              RHF Reference
                        1 Threads,    500 MiB Core
         ---------------------------------------------------------

  ==> Geometry <==

    Molecular point group: c1
    Full point group: C1

    Geometry (in Angstrom), charge = 0, multiplicity = 1:

       Center              X                  Y                   Z               Mass
    ------------   -----------------  -----------------  -----------------  -----------------
         C           -1.293883504017    -0.820601250824    -0.571138032143    12.000000000000
         C           -2.774883504017    -0.464601250824    -0.710138032143    12.000000000000
         H           -1.180883504017    -1.902601250824    -0.569138032143     1.007825032230
         H           -0.735883504017    -0.423601250824    -1.415138032143     1.007825032230
         H           -0.862883504017    -0.420601250824     0.338861967857     1.007825032230
         H           -2.871883504017     0.621398749176    -0.701138032143     1.007825032230
         H           -3.340523504017    -0.898501250824     0.127581967857     1.007825032230
         H           -3.180653504017    -0.822341250824    -1.667938032143     1.007825032230
         C            1.635116495983     0.913398749176     1.229861967857    12.000000000000
         C            2.436116495983     0.375398749176     0.053861967857    12.000000000000
         H            2.105116495983     1.818398749176     1.618861967857     1.007825032230
         H            0.623116495983     1.159398749176     0.909861967857     1.007825032230
         H            1.592116495983     0.162398749176     2.018861967857     1.007825032230
         H            1.980116495983    -0.565601250824    -0.259138032143     1.007825032230
         H            3.467926495983     0.169188749176     0.374551967857     1.007825032230
         H            2.374956495983     1.059658749176    -0.805238032143     1.007825032230

  Running in c1 symmetry.

  Rotational constants: A =      0.47152  B =      0.05156  C =      0.04875 [cm^-1]
  Rotational constants: A =  14135.86352  B =   1545.73598  C =   1461.49721 [MHz]
  Nuclear repulsion =  123.215711530437048

  Charge       = 0
  Multiplicity = 1
  Electrons    = 36
  Nalpha       = 18
  Nbeta        = 18

  ==> Algorithm <==

  SCF Algorithm Type is PK.
  DIIS enabled.
  MOM disabled.
  Fractional occupation disabled.
  Guess Type is SAD.
  Energy threshold   = 1.00e-06
  Density threshold  = 1.00e-10
  Integral threshold = 0.00e+00

  ==> Primary Basis <==

  Basis Set: CC-PVDZ
    Blend: CC-PVDZ
    Number of shells: 60
    Number of basis function: 116
    Number of Cartesian functions: 120
    Spherical Harmonics?: true
    Max angular momentum: 2

  ==> Pre-Iterations <==

   -------------------------------------------------------
    Irrep   Nso     Nmo     Nalpha   Nbeta   Ndocc  Nsocc
   -------------------------------------------------------
     A        116     116       0       0       0       0
   -------------------------------------------------------
    Total     116     116      18      18      18       0
   -------------------------------------------------------

  ==> Integral Setup <==

  Using integral reordering PK algorithm.
  Sizing the integral batches needed.
  Building batch lookup table.
   Calculation information:
      Number of atoms:                  16
      Number of AO shells:              60
      Number of primitives:            148
      Number of atomic orbitals:       120
      Number of basis functions:       116

      Integral cutoff                 1.00e-12
      Number of threads:                 1

	Batch   1 pq = [       0,    6786] index = [             0,23028291] size =     23028291
  Task number: 3
  Buffer size: 11059200
  Buffer per thread: 2
  We computed 1467140 shell quartets total.
  Whereas there are 1675365 unique shell quartets.

  ==> DiskJK: Disk-Based J/K Matrices <==

    J tasked:                  Yes
    K tasked:                  Yes
    wK tasked:                  No
    Memory [MiB]:              375
    Schwarz Cutoff:          1E-12

    OpenMP threads:              1

  Minimum eigenvalue in the overlap matrix is 7.0897435611E-03.
  Using Symmetric Orthogonalization.

  SCF Guess: Superposition of Atomic Densities via on-the-fly atomic UHF.

  ==> Iterations <==

                        Total Energy        Delta E     RMS |[F,P]|

   @RHF iter SAD:  -157.36889790006308   -1.57369e+02   0.00000e+00
   @RHF iter   1:  -158.30652686238210   -9.37629e-01   4.22143e-03 DIIS
   @RHF iter   2:  -158.44037673545648   -1.33850e-01   1.79769e-03 DIIS
   @RHF iter   3:  -158.46383291847570   -2.34562e-02   3.49960e-04 DIIS
   @RHF iter   4:  -158.46566999959884   -1.83708e-03   3.87267e-05 DIIS
   @RHF iter   5:  -158.46569374363423   -2.37440e-05   6.32298e-06 DIIS
   @RHF iter   6:  -158.46569435080312   -6.07169e-07   9.89481e-07 DIIS
   @RHF iter   7:  -158.46569436094953   -1.01464e-08   3.10205e-07 DIIS
   @RHF iter   8:  -158.46569436180820   -8.58677e-10   4.62458e-08 DIIS
   @RHF iter   9:  -158.46569436184404   -3.58398e-11   1.02210e-08 DIIS
   @RHF iter  10:  -158.46569436184444   -3.97904e-13   2.93673e-09 DIIS
   @RHF iter  11:  -158.46569436184552   -1.08002e-12   8.07050e-10 DIIS
   @RHF iter  12:  -158.46569436184518    3.41061e-13   1.68889e-10 DIIS
   @RHF iter  13:  -158.46569436184515    2.84217e-14   2.93345e-11 DIIS
  Energy and wave function converged.

  ==> Post-Iterations <==

    Orbital Energies [Eh]
    ---------------------

    Doubly Occupied:

       1A    -11.219963     2A    -11.218388     3A    -11.216053
       4A    -11.215497     5A     -1.021147     6A     -1.017715
       7A     -0.838811     8A     -0.834737     9A     -0.606143
      10A     -0.599363    11A     -0.598637    12A     -0.591585
      13A     -0.503812    14A     -0.499174    15A     -0.491635
      16A     -0.487083    17A     -0.483525    18A     -0.477993

    Virtual:

      19A      0.172657    20A      0.196215    21A      0.226435
      22A      0.234986    23A      0.245660    24A      0.262538
      25A      0.264829    26A      0.273312    27A      0.283055
      28A      0.288860    29A      0.302461    30A      0.329687
      31A      0.391622    32A      0.412037    33A      0.572678
      34A      0.591848    35A      0.598864    36A      0.603929
      37A      0.612496    38A      0.649343    39A      0.672895
      40A      0.683058    41A      0.714165    42A      0.775271
      43A      0.846033    44A      0.856649    45A      0.882143
      46A      0.888438    47A      0.893489    48A      0.896479
      49A      0.900275    50A      0.907410    51A      0.915412
      52A      0.924773    53A      0.941263    54A      0.968944
      55A      0.986004    56A      1.003954    57A      1.124383
      58A      1.125803    59A      1.131739    60A      1.148288
      61A      1.241547    62A      1.252207    63A      1.461223
      64A      1.474026    65A      1.484656    66A      1.494024
      67A      1.554806    68A      1.589405    69A      1.677763
      70A      1.680414    71A      1.686242    72A      1.719777
      73A      1.844402    74A      1.862298    75A      1.879484
      76A      1.883495    77A      1.892434    78A      1.917226
      79A      1.935817    80A      1.942312    81A      1.944159
      82A      1.951077    83A      1.953068    84A      1.958953
      85A      1.968368    86A      1.975765    87A      1.981023
      88A      2.022853    89A      2.083636    90A      2.099170
      91A      2.123339    92A      2.132251    93A      2.290033
      94A      2.303604    95A      2.313734    96A      2.326993
      97A      2.441695    98A      2.457368    99A      2.465134
     100A      2.474077   101A      2.552448   102A      2.567238
     103A      2.574667   104A      2.589175   105A      2.760614
     106A      2.764784   107A      2.792991   108A      2.796190
     109A      2.840916   110A      2.853842   111A      2.859051
     112A      2.868578   113A      2.937788   114A      2.956249
     115A      2.969201   116A      2.985684

    Final Occupation by Irrep:
              A
    DOCC [    18 ]

  @RHF Final Energy:  -158.46569436184515

   => Energetics <=

    Nuclear Repulsion Energy =            123.2157115304370478
    One-Electron Energy =                -455.5202881385368414
    Two-Electron Energy =                 173.8388822462546557
    Total Energy =                       -158.4656943618451521

Computation Completed

Properties will be evaluated at   0.000000,   0.000000,   0.000000 [a0]

Properties computed using the SCF density matrix

  Nuclear Dipole Moment: [e a0]
     X:    -0.0275      Y:    -0.0401      Z:    -0.0273

  Electronic Dipole Moment: [e a0]
     X:     0.0268      Y:     0.0353      Z:     0.0277

  Dipole Moment: [e a0]
     X:    -0.0007      Y:    -0.0048      Z:     0.0004     Total:     0.0049

  Dipole Moment: [D]
     X:    -0.0018      Y:    -0.0122      Z:     0.0009     Total:     0.0124

*** tstop() called on ds3 at Mon Apr 27 23:22:59 2020
Module time:
	user time   =       8.07 seconds =       0.13 minutes
	system time =       3.36 seconds =       0.06 minutes
	total time  =         13 seconds =       0.22 minutes
Total time:
	user time   =       8.07 seconds =       0.13 minutes
	system time =       3.36 seconds =       0.06 minutes
	total time  =         13 seconds =       0.22 minutes
                                     G D M A

                                 by Anthony Stone

                           version 2.2.06, 22 June 2011

               Distributed Multipoles from Gaussian wavefunctions

Starting at 23:22:59 on 27 Apr 2020

Using SCF density matrix from file ./SSI/SSI-003VAL-118ALA-1-dimer.test.2567.fchk

                         Distributed Multipole Analysis

Standard DMA

Positions and radii in angstrom
Multipole moments in atomic units, ea_0^k for rank k

C          x = -1.293884  y = -0.820601  z = -0.571138 angstrom
           Maximum rank =  0   Radius =  0.650 angstrom
                   Q00  =  -0.257395

C          x = -2.774884  y = -0.464601  z = -0.710138 angstrom
           Maximum rank =  0   Radius =  0.650 angstrom
                   Q00  =  -0.221368

H          x = -1.180884  y = -1.902601  z = -0.569138 angstrom
           Maximum rank =  0   Radius =  0.325 angstrom
                   Q00  =   0.077467

H          x = -0.735884  y = -0.423601  z = -1.415138 angstrom
           Maximum rank =  0   Radius =  0.325 angstrom
                   Q00  =   0.077582

H          x = -0.862884  y = -0.420601  z =  0.338862 angstrom
           Maximum rank =  0   Radius =  0.325 angstrom
                   Q00  =   0.085716

H          x = -2.871884  y =  0.621399  z = -0.701138 angstrom
           Maximum rank =  0   Radius =  0.325 angstrom
                   Q00  =   0.077665

H          x = -3.340524  y = -0.898501  z =  0.127582 angstrom
           Maximum rank =  0   Radius =  0.325 angstrom
                   Q00  =   0.079702

H          x = -3.180654  y = -0.822341  z = -1.667938 angstrom
           Maximum rank =  0   Radius =  0.325 angstrom
                   Q00  =   0.080810

C          x =  1.635116  y =  0.913399  z =  1.229862 angstrom
           Maximum rank =  0   Radius =  0.650 angstrom
                   Q00  =  -0.240184

C          x =  2.436116  y =  0.375399  z =  0.053862 angstrom
           Maximum rank =  0   Radius =  0.650 angstrom
                   Q00  =  -0.230206

H          x =  2.105116  y =  1.818399  z =  1.618862 angstrom
           Maximum rank =  0   Radius =  0.325 angstrom
                   Q00  =   0.076854

H          x =  0.623116  y =  1.159399  z =  0.909862 angstrom
           Maximum rank =  0   Radius =  0.325 angstrom
                   Q00  =   0.079290

H          x =  1.592116  y =  0.162399  z =  2.018862 angstrom
           Maximum rank =  0   Radius =  0.325 angstrom
                   Q00  =   0.078113

H          x =  1.980116  y = -0.565601  z = -0.259138 angstrom
           Maximum rank =  0   Radius =  0.325 angstrom
                   Q00  =   0.077385

H          x =  3.467926  y =  0.169189  z =  0.374552 angstrom
           Maximum rank =  0   Radius =  0.325 angstrom
                   Q00  =   0.079374

H          x =  2.374956  y =  1.059659  z = -0.805238 angstrom
           Maximum rank =  0   Radius =  0.325 angstrom
                   Q00  =   0.079195

Total multipoles referred to origin at
           x =   0.000000,  y =    0.000000,  z =    0.000000 angstrom
                   Q00  =  -0.000000

Finished at 23:22:59 on 27 Apr 2020

  DMA results are available in the Python driver through the
	  variable('DMA DISTRIBUTED MULTIPOLES')
  and
	  variable('DMA TOTAL MULTIPOLES')
  commands.

    Psi4 stopped on: Monday, 27 April 2020 11:22PM
    Psi4 wall time for execution: 0:00:12.86

*** Psi4 exiting successfully. Buy a developer a beer!
