                               Psi4 1.3.2 release

  ==> Input File <==

--------------------------------------------------------------------------
import numpy as np
set {scf_type pk
basis cc-pvdz
d_convergence 10
gdma_switch   0
gdma_limit    0
gdma_origin   [ 0.0,  0.0,  0.0 ]
}
molecule test {
    units Angstrom
    0 1
    --
    0 1
    C                1.743859470648921    -0.580417390191879     1.605973295651266
    C                3.036859470648922    -0.200417390191878     0.833973295651265
    H                1.084859470648921     0.285582609808122     1.678973295651266
    H                1.219859470648921    -1.387417390191878     1.090973295651265
    H                1.999859470648921    -0.907417390191879     2.608973295651265
    H                3.683859470648922    -1.075417390191878     0.756973295651265
    H                3.595469470648922     0.608502609808122     1.327533295651266
    H                2.750689470648922     0.128492609808122    -0.175936704348735
    C               -1.176140529351079     0.120582609808122    -0.537026704348735
    C               -2.397140529351078     0.754582609808121     0.131973295651265
    C               -1.288140529351079    -0.081417390191878    -2.074026704348734
    H               -0.324140529351079     0.763582609808121    -0.317026704348735
    H               -1.023140529351078    -0.846417390191878    -0.056026704348735
    H               -3.274140529351078     0.158582609808122    -0.109026704348735
    H               -1.525140529351079     0.873582609808121    -2.552026704348735
    H               -0.305140529351078    -0.410417390191878    -2.420026704348735
    H               -2.558400529351078     1.783292609808121    -0.222646704348735
    H               -2.324020529351079     0.698832609808121     1.228123295651266
    H               -2.039560529351079    -0.827117390191879    -2.372876704348735

}
e, wfn = energy('scf', return_wfn=True)
gdma(wfn)
dmavals = variable('DMA DISTRIBUTED MULTIPOLES')
charges = np.array(dmavals)
print(charges)
np.save('SSI-174VAL-273GLU-1-dimer.npy', np.array(charges))--------------------------------------------------------------------------

*** tstart() called on ds3
*** at Sun Apr 26 22:20:57 2020

   => Loading Basis Set <=

    Name: CC-PVDZ
    Role: ORBITAL
    Keyword: BASIS
    atoms 1-2, 9-11  entry C          line   138 file /theoryfs2/ds/metcalf/miniconda2/envs/tf2gpu/share/psi4/basis/cc-pvdz.gbs
    atoms 3-8, 12-19 entry H          line    22 file /theoryfs2/ds/metcalf/miniconda2/envs/tf2gpu/share/psi4/basis/cc-pvdz.gbs

         ---------------------------------------------------------
                                   SCF
               by Justin Turney, Rob Parrish, Andy Simmonett
                          and Daniel G. A. Smith
                              RHF Reference
                        1 Threads,    500 MiB Core
         ---------------------------------------------------------

  ==> Geometry <==

    Molecular point group: c1
    Full point group: C1

    Geometry (in Angstrom), charge = 0, multiplicity = 1:

       Center              X                  Y                   Z               Mass
    ------------   -----------------  -----------------  -----------------  -----------------
         C            1.743859470649    -0.580417390192     1.605973295651    12.000000000000
         C            3.036859470649    -0.200417390192     0.833973295651    12.000000000000
         H            1.084859470649     0.285582609808     1.678973295651     1.007825032230
         H            1.219859470649    -1.387417390192     1.090973295651     1.007825032230
         H            1.999859470649    -0.907417390192     2.608973295651     1.007825032230
         H            3.683859470649    -1.075417390192     0.756973295651     1.007825032230
         H            3.595469470649     0.608502609808     1.327533295651     1.007825032230
         H            2.750689470649     0.128492609808    -0.175936704349     1.007825032230
         C           -1.176140529351     0.120582609808    -0.537026704349    12.000000000000
         C           -2.397140529351     0.754582609808     0.131973295651    12.000000000000
         C           -1.288140529351    -0.081417390192    -2.074026704349    12.000000000000
         H           -0.324140529351     0.763582609808    -0.317026704349     1.007825032230
         H           -1.023140529351    -0.846417390192    -0.056026704349     1.007825032230
         H           -3.274140529351     0.158582609808    -0.109026704349     1.007825032230
         H           -1.525140529351     0.873582609808    -2.552026704349     1.007825032230
         H           -0.305140529351    -0.410417390192    -2.420026704349     1.007825032230
         H           -2.558400529351     1.783292609808    -0.222646704349     1.007825032230
         H           -2.324020529351     0.698832609808     1.228123295651     1.007825032230
         H           -2.039560529351    -0.827117390192    -2.372876704349     1.007825032230

  Running in c1 symmetry.

  Rotational constants: A =      0.20165  B =      0.04170  C =      0.03653 [cm^-1]
  Rotational constants: A =   6045.17264  B =   1250.03667  C =   1095.11157 [MHz]
  Nuclear repulsion =  177.035480336713675

  Charge       = 0
  Multiplicity = 1
  Electrons    = 44
  Nalpha       = 22
  Nbeta        = 22

  ==> Algorithm <==

  SCF Algorithm Type is PK.
  DIIS enabled.
  MOM disabled.
  Fractional occupation disabled.
  Guess Type is SAD.
  Energy threshold   = 1.00e-06
  Density threshold  = 1.00e-10
  Integral threshold = 0.00e+00

  ==> Primary Basis <==

  Basis Set: CC-PVDZ
    Blend: CC-PVDZ
    Number of shells: 72
    Number of basis function: 140
    Number of Cartesian functions: 145
    Spherical Harmonics?: true
    Max angular momentum: 2

  ==> Pre-Iterations <==

   -------------------------------------------------------
    Irrep   Nso     Nmo     Nalpha   Nbeta   Ndocc  Nsocc
   -------------------------------------------------------
     A        140     140       0       0       0       0
   -------------------------------------------------------
    Total     140     140      22      22      22       0
   -------------------------------------------------------

  ==> Integral Setup <==

  Using integral reordering PK algorithm.
  Sizing the integral batches needed.
  Building batch lookup table.
   Calculation information:
      Number of atoms:                  19
      Number of AO shells:              72
      Number of primitives:            180
      Number of atomic orbitals:       145
      Number of basis functions:       140

      Integral cutoff                 1.00e-12
      Number of threads:                 1

	Batch   1 pq = [       0,    9405] index = [             0,44231715] size =     44231715
	Batch   2 pq = [    9405,    9870] index = [      44231715,48713385] size =      4481670
  Task number: 5
  Buffer size: 11059200
  Buffer per thread: 2
  We computed 2880117 shell quartets total.
  Whereas there are 3454506 unique shell quartets.

  ==> DiskJK: Disk-Based J/K Matrices <==

    J tasked:                  Yes
    K tasked:                  Yes
    wK tasked:                  No
    Memory [MiB]:              375
    Schwarz Cutoff:          1E-12

    OpenMP threads:              1

  Minimum eigenvalue in the overlap matrix is 5.6182348956E-03.
  Using Symmetric Orthogonalization.

  SCF Guess: Superposition of Atomic Densities via on-the-fly atomic UHF.

  ==> Iterations <==

                        Total Energy        Delta E     RMS |[F,P]|

   @RHF iter SAD:  -196.26260892726151   -1.96263e+02   0.00000e+00
   @RHF iter   1:  -197.31547711457119   -1.05287e+00   3.74128e-03 DIIS
   @RHF iter   2:  -197.47216435892409   -1.56687e-01   1.59671e-03 DIIS
   @RHF iter   3:  -197.49923896780336   -2.70746e-02   3.21883e-04 DIIS
   @RHF iter   4:  -197.50142224043304   -2.18327e-03   4.84931e-05 DIIS
   @RHF iter   5:  -197.50146055045550   -3.83100e-05   1.49339e-05 DIIS
   @RHF iter   6:  -197.50146391158222   -3.36113e-06   2.33864e-06 DIIS
   @RHF iter   7:  -197.50146401323508   -1.01653e-07   4.37068e-07 DIIS
   @RHF iter   8:  -197.50146401733403   -4.09895e-09   1.15277e-07 DIIS
   @RHF iter   9:  -197.50146401760230   -2.68273e-10   3.66124e-08 DIIS
   @RHF iter  10:  -197.50146401763445   -3.21450e-11   8.40762e-09 DIIS
   @RHF iter  11:  -197.50146401763641   -1.96110e-12   1.60249e-09 DIIS
   @RHF iter  12:  -197.50146401763635    5.68434e-14   3.20778e-10 DIIS
   @RHF iter  13:  -197.50146401763578    5.68434e-13   7.42973e-11 DIIS
  Energy and wave function converged.

  ==> Post-Iterations <==

    Orbital Energies [Eh]
    ---------------------

    Doubly Occupied:

       1A    -11.221695     2A    -11.221301     3A    -11.219993
       4A    -11.217999     5A    -11.216131     6A     -1.047667
       7A     -1.011937     8A     -0.924851     9A     -0.839145
      10A     -0.795952    11A     -0.624496    12A     -0.597633
      13A     -0.594084    14A     -0.586866    15A     -0.549395
      16A     -0.534403    17A     -0.497416    18A     -0.489054
      19A     -0.486509    20A     -0.470169    21A     -0.468607
      22A     -0.462978

    Virtual:

      23A      0.166466    24A      0.195021    25A      0.211097
      26A      0.219722    27A      0.234280    28A      0.250682
      29A      0.258401    30A      0.267924    31A      0.272144
      32A      0.277563    33A      0.296283    34A      0.306637
      35A      0.316249    36A      0.355711    37A      0.370944
      38A      0.388747    39A      0.428409    40A      0.569957
      41A      0.576579    42A      0.592230    43A      0.603442
      44A      0.607237    45A      0.624025    46A      0.630940
      47A      0.644032    48A      0.689959    49A      0.771885
      50A      0.790359    51A      0.815008    52A      0.830990
      53A      0.862079    54A      0.876598    55A      0.887384
      56A      0.890508    57A      0.893789    58A      0.894327
      59A      0.902837    60A      0.905655    61A      0.910285
      62A      0.914568    63A      0.927833    64A      0.932705
      65A      0.963355    66A      0.975184    67A      0.985271
      68A      0.986698    69A      1.118381    70A      1.121860
      71A      1.129249    72A      1.156421    73A      1.203482
      74A      1.247379    75A      1.375015    76A      1.446914
      77A      1.460843    78A      1.477233    79A      1.481229
      80A      1.530374    81A      1.554032    82A      1.649529
      83A      1.681933    84A      1.684638    85A      1.687722
      86A      1.704687    87A      1.705691    88A      1.848992
      89A      1.862312    90A      1.867856    91A      1.873211
      92A      1.891912    93A      1.898563    94A      1.906751
      95A      1.916949    96A      1.935744    97A      1.939264
      98A      1.941844    99A      1.951769   100A      1.955872
     101A      1.959880   102A      1.973579   103A      1.977579
     104A      1.993392   105A      2.009014   106A      2.022811
     107A      2.035619   108A      2.092580   109A      2.114012
     110A      2.132470   111A      2.151402   112A      2.277460
     113A      2.287817   114A      2.293358   115A      2.312651
     116A      2.328654   117A      2.353825   118A      2.451324
     119A      2.463278   120A      2.491887   121A      2.523423
     122A      2.552868   123A      2.570482   124A      2.581357
     125A      2.605172   126A      2.627279   127A      2.747051
     128A      2.755534   129A      2.762667   130A      2.777685
     131A      2.794227   132A      2.813728   133A      2.846063
     134A      2.856301   135A      2.902699   136A      2.942750
     137A      2.956210   138A      2.969124   139A      2.981129
     140A      3.058746

    Final Occupation by Irrep:
              A
    DOCC [    22 ]

  @RHF Final Energy:  -197.50146401763578

   => Energetics <=

    Nuclear Repulsion Energy =            177.0354803367136753
    One-Electron Energy =                -614.9173261894230791
    Two-Electron Energy =                 240.3803818350735924
    Total Energy =                       -197.5014640176357830

Computation Completed

Properties will be evaluated at   0.000000,   0.000000,   0.000000 [a0]

Properties computed using the SCF density matrix

  Nuclear Dipole Moment: [e a0]
     X:     0.9008      Y:    -0.1441      Z:     0.4368

  Electronic Dipole Moment: [e a0]
     X:    -0.8831      Y:     0.1157      Z:    -0.4183

  Dipole Moment: [e a0]
     X:     0.0177      Y:    -0.0284      Z:     0.0185     Total:     0.0383

  Dipole Moment: [D]
     X:     0.0450      Y:    -0.0722      Z:     0.0471     Total:     0.0973

*** tstop() called on ds3 at Sun Apr 26 22:21:17 2020
Module time:
	user time   =      14.44 seconds =       0.24 minutes
	system time =       6.07 seconds =       0.10 minutes
	total time  =         20 seconds =       0.33 minutes
Total time:
	user time   =      14.44 seconds =       0.24 minutes
	system time =       6.07 seconds =       0.10 minutes
	total time  =         20 seconds =       0.33 minutes
                                     G D M A

                                 by Anthony Stone

                           version 2.2.06, 22 June 2011

               Distributed Multipoles from Gaussian wavefunctions

Starting at 22:21:18 on 26 Apr 2020

Using SCF density matrix from file ./SSI/SSI-174VAL-273GLU-1-dimer.test.3333.fchk

                         Distributed Multipole Analysis

Standard DMA

Positions and radii in angstrom
Multipole moments in atomic units, ea_0^k for rank k

C          x =  1.743859  y = -0.580417  z =  1.605973 angstrom
           Maximum rank =  0   Radius =  0.650 angstrom
                   Q00  =  -0.241323

C          x =  3.036859  y = -0.200417  z =  0.833973 angstrom
           Maximum rank =  0   Radius =  0.650 angstrom
                   Q00  =  -0.245344

H          x =  1.084859  y =  0.285583  z =  1.678973 angstrom
           Maximum rank =  0   Radius =  0.325 angstrom
                   Q00  =   0.081495

H          x =  1.219859  y = -1.387417  z =  1.090973 angstrom
           Maximum rank =  0   Radius =  0.325 angstrom
                   Q00  =   0.083240

H          x =  1.999859  y = -0.907417  z =  2.608973 angstrom
           Maximum rank =  0   Radius =  0.325 angstrom
                   Q00  =   0.080014

H          x =  3.683859  y = -1.075417  z =  0.756973 angstrom
           Maximum rank =  0   Radius =  0.325 angstrom
                   Q00  =   0.081688

H          x =  3.595469  y =  0.608503  z =  1.327533 angstrom
           Maximum rank =  0   Radius =  0.325 angstrom
                   Q00  =   0.082552

H          x =  2.750689  y =  0.128493  z = -0.175937 angstrom
           Maximum rank =  0   Radius =  0.325 angstrom
                   Q00  =   0.077661

C          x = -1.176141  y =  0.120583  z = -0.537027 angstrom
           Maximum rank =  0   Radius =  0.650 angstrom
                   Q00  =  -0.062445

C          x = -2.397141  y =  0.754583  z =  0.131973 angstrom
           Maximum rank =  0   Radius =  0.650 angstrom
                   Q00  =  -0.251870

C          x = -1.288141  y = -0.081417  z = -2.074027 angstrom
           Maximum rank =  0   Radius =  0.650 angstrom
                   Q00  =  -0.262526

H          x = -0.324141  y =  0.763583  z = -0.317027 angstrom
           Maximum rank =  0   Radius =  0.325 angstrom
                   Q00  =   0.046781

H          x = -1.023141  y = -0.846417  z = -0.056027 angstrom
           Maximum rank =  0   Radius =  0.325 angstrom
                   Q00  =   0.048149

H          x = -3.274141  y =  0.158583  z = -0.109027 angstrom
           Maximum rank =  0   Radius =  0.325 angstrom
                   Q00  =   0.073233

H          x = -1.525141  y =  0.873583  z = -2.552027 angstrom
           Maximum rank =  0   Radius =  0.325 angstrom
                   Q00  =   0.078910

H          x = -0.305141  y = -0.410417  z = -2.420027 angstrom
           Maximum rank =  0   Radius =  0.325 angstrom
                   Q00  =   0.084054

H          x = -2.558401  y =  1.783293  z = -0.222647 angstrom
           Maximum rank =  0   Radius =  0.325 angstrom
                   Q00  =   0.077515

H          x = -2.324021  y =  0.698833  z =  1.228123 angstrom
           Maximum rank =  0   Radius =  0.325 angstrom
                   Q00  =   0.083459

H          x = -2.039561  y = -0.827117  z = -2.372877 angstrom
           Maximum rank =  0   Radius =  0.325 angstrom
                   Q00  =   0.084758

Total multipoles referred to origin at
           x =   0.000000,  y =    0.000000,  z =    0.000000 angstrom
                   Q00  =  -0.000000

Finished at 22:21:18 on 26 Apr 2020

  DMA results are available in the Python driver through the
	  variable('DMA DISTRIBUTED MULTIPOLES')
  and
	  variable('DMA TOTAL MULTIPOLES')
  commands.

    Psi4 stopped on: Sunday, 26 April 2020 10:21PM
    Psi4 wall time for execution: 0:00:20.70

*** Psi4 exiting successfully. Buy a developer a beer!
