                               Psi4 1.3.2 release

  ==> Input File <==

--------------------------------------------------------------------------
import numpy as np
set {scf_type pk
basis cc-pvdz
d_convergence 10
gdma_switch   0
gdma_limit    0
gdma_origin   [ 0.0,  0.0,  0.0 ]
}
molecule test {
    units Angstrom
    0 1
    --
    0 1
    C                0.667887905730633    -2.392988702778379    -1.372880073344281
    C               -0.777112094269367    -1.663988702778380     0.495119926655720
    N               -1.262112094269367    -0.691988702778380     1.199119926655720
    N                0.095887905730633    -1.394988702778380    -0.465880073344280
    N               -1.228112094269367    -2.874988702778380     0.721119926655720
    H               -0.935112094269367     0.262011297221620     1.012119926655720
    H               -1.918112094269367    -0.866988702778380     1.939119926655720
    H                0.385887905730633    -0.420988702778380    -0.582880073344280
    H               -0.839112094269367    -3.657988702778380     0.224119926655720
    H               -1.826112094269367    -3.036988702778380     1.525119926655719
    H                0.662887905730633    -3.389988702778380    -0.928880073344280
    H                1.717887905730633    -2.131988702778380    -1.522880073344280
    H                0.196647905730633    -2.432258702778380    -2.366050073344280
    C                1.151887905730633     3.613011297221620    -0.294880073344280
    C                0.595887905730633     2.197011297221620    -0.143880073344280
    O               -0.294112094269367     1.962011297221620     0.707119926655720
    O                1.071887905730633     1.306011297221620    -0.883880073344280
    H                0.994887905730633     3.968011297221620    -1.315880073344281
    H                2.231887905730633     3.570011297221620    -0.130880073344280
    H                0.742287905730633     4.341353297221620     0.420479926655720

}
e, wfn = energy('scf', return_wfn=True)
gdma(wfn)
dmavals = variable('DMA DISTRIBUTED MULTIPOLES')
charges = np.array(dmavals)
print(charges)
np.save('SSI-066ARG-167GLU-1-dimer.npy', np.array(charges))--------------------------------------------------------------------------

*** tstart() called on ds3
*** at Tue Apr 28 15:32:51 2020

   => Loading Basis Set <=

    Name: CC-PVDZ
    Role: ORBITAL
    Keyword: BASIS
    atoms 1-2, 14-15  entry C          line   138 file /theoryfs2/ds/metcalf/miniconda2/envs/tf2gpu/share/psi4/basis/cc-pvdz.gbs
    atoms 3-5         entry N          line   168 file /theoryfs2/ds/metcalf/miniconda2/envs/tf2gpu/share/psi4/basis/cc-pvdz.gbs
    atoms 6-13, 18-20 entry H          line    22 file /theoryfs2/ds/metcalf/miniconda2/envs/tf2gpu/share/psi4/basis/cc-pvdz.gbs
    atoms 16-17       entry O          line   198 file /theoryfs2/ds/metcalf/miniconda2/envs/tf2gpu/share/psi4/basis/cc-pvdz.gbs

         ---------------------------------------------------------
                                   SCF
               by Justin Turney, Rob Parrish, Andy Simmonett
                          and Daniel G. A. Smith
                              RHF Reference
                        1 Threads,    500 MiB Core
         ---------------------------------------------------------

  ==> Geometry <==

    Molecular point group: c1
    Full point group: C1

    Geometry (in Angstrom), charge = 0, multiplicity = 1:

       Center              X                  Y                   Z               Mass
    ------------   -----------------  -----------------  -----------------  -----------------
         C            0.667887905731    -2.392988702778    -1.372880073344    12.000000000000
         C           -0.777112094269    -1.663988702778     0.495119926656    12.000000000000
         N           -1.262112094269    -0.691988702778     1.199119926656    14.003074004430
         N            0.095887905731    -1.394988702778    -0.465880073344    14.003074004430
         N           -1.228112094269    -2.874988702778     0.721119926656    14.003074004430
         H           -0.935112094269     0.262011297222     1.012119926656     1.007825032230
         H           -1.918112094269    -0.866988702778     1.939119926656     1.007825032230
         H            0.385887905731    -0.420988702778    -0.582880073344     1.007825032230
         H           -0.839112094269    -3.657988702778     0.224119926656     1.007825032230
         H           -1.826112094269    -3.036988702778     1.525119926656     1.007825032230
         H            0.662887905731    -3.389988702778    -0.928880073344     1.007825032230
         H            1.717887905731    -2.131988702778    -1.522880073344     1.007825032230
         H            0.196647905731    -2.432258702778    -2.366050073344     1.007825032230
         C            1.151887905731     3.613011297222    -0.294880073344    12.000000000000
         C            0.595887905731     2.197011297222    -0.143880073344    12.000000000000
         O           -0.294112094269     1.962011297222     0.707119926656    15.994914619570
         O            1.071887905731     1.306011297222    -0.883880073344    15.994914619570
         H            0.994887905731     3.968011297222    -1.315880073344     1.007825032230
         H            2.231887905731     3.570011297222    -0.130880073344     1.007825032230
         H            0.742287905731     4.341353297222     0.420479926656     1.007825032230

  Running in c1 symmetry.

  Rotational constants: A =      0.10041  B =      0.02425  C =      0.01969 [cm^-1]
  Rotational constants: A =   3010.29080  B =    726.86066  C =    590.14282 [MHz]
  Nuclear repulsion =  463.753009584886911

  Charge       = 0
  Multiplicity = 1
  Electrons    = 72
  Nalpha       = 36
  Nbeta        = 36

  ==> Algorithm <==

  SCF Algorithm Type is PK.
  DIIS enabled.
  MOM disabled.
  Fractional occupation disabled.
  Guess Type is SAD.
  Energy threshold   = 1.00e-06
  Density threshold  = 1.00e-10
  Integral threshold = 0.00e+00

  ==> Primary Basis <==

  Basis Set: CC-PVDZ
    Blend: CC-PVDZ
    Number of shells: 87
    Number of basis function: 181
    Number of Cartesian functions: 190
    Spherical Harmonics?: true
    Max angular momentum: 2

  ==> Pre-Iterations <==

   -------------------------------------------------------
    Irrep   Nso     Nmo     Nalpha   Nbeta   Ndocc  Nsocc
   -------------------------------------------------------
     A        181     181       0       0       0       0
   -------------------------------------------------------
    Total     181     181      36      36      36       0
   -------------------------------------------------------

  ==> Integral Setup <==

  Using integral reordering PK algorithm.
  Sizing the integral batches needed.
  Building batch lookup table.
   Calculation information:
      Number of atoms:                  20
      Number of AO shells:              87
      Number of primitives:            253
      Number of atomic orbitals:       190
      Number of basis functions:       181

      Integral cutoff                 1.00e-12
      Number of threads:                 1

	Batch   1 pq = [       0,    9405] index = [             0,44231715] size =     44231715
	Batch   2 pq = [    9405,   13301] index = [      44231715,88464951] size =     44233236
	Batch   3 pq = [   13301,   16471] index = [      88464951,135655156] size =     47190205
  Task number: 13
  Buffer size: 11059200
  Buffer per thread: 2
  We computed 6054908 shell quartets total.
  Whereas there are 7328706 unique shell quartets.

  ==> DiskJK: Disk-Based J/K Matrices <==

    J tasked:                  Yes
    K tasked:                  Yes
    wK tasked:                  No
    Memory [MiB]:              375
    Schwarz Cutoff:          1E-12

    OpenMP threads:              1

  Minimum eigenvalue in the overlap matrix is 3.6807924523E-03.
  Using Symmetric Orthogonalization.

  SCF Guess: Superposition of Atomic Densities via on-the-fly atomic UHF.

  ==> Iterations <==

                        Total Energy        Delta E     RMS |[F,P]|

   @RHF iter SAD:  -469.78822825642686   -4.69788e+02   0.00000e+00
   @RHF iter   1:  -470.73113143082662   -9.42903e-01   4.17114e-03 DIIS
   @RHF iter   2:  -470.95028006121038   -2.19149e-01   2.14402e-03 DIIS
   @RHF iter   3:  -471.00508977993752   -5.48097e-02   3.88632e-04 DIIS
   @RHF iter   4:  -471.00818538043200   -3.09560e-03   1.29135e-04 DIIS
   @RHF iter   5:  -471.00853154911727   -3.46169e-04   2.26406e-05 DIIS
   @RHF iter   6:  -471.00854713845291   -1.55893e-05   6.70468e-06 DIIS
   @RHF iter   7:  -471.00854827368119   -1.13523e-06   1.88891e-06 DIIS
   @RHF iter   8:  -471.00854839722587   -1.23545e-07   6.64504e-07 DIIS
   @RHF iter   9:  -471.00854840803873   -1.08129e-08   2.62655e-07 DIIS
   @RHF iter  10:  -471.00854840939883   -1.36009e-09   6.36644e-08 DIIS
   @RHF iter  11:  -471.00854840954497   -1.46144e-10   1.69124e-08 DIIS
   @RHF iter  12:  -471.00854840955469   -9.72022e-12   6.94533e-09 DIIS
   @RHF iter  13:  -471.00854840955930   -4.60432e-12   2.03115e-09 DIIS
   @RHF iter  14:  -471.00854840955611    3.18323e-12   6.22911e-10 DIIS
   @RHF iter  15:  -471.00854840955583    2.84217e-13   2.27674e-10 DIIS
   @RHF iter  16:  -471.00854840955503    7.95808e-13   7.26826e-11 DIIS
  Energy and wave function converged.

  ==> Post-Iterations <==

    Orbital Energies [Eh]
    ---------------------

    Doubly Occupied:

       1A    -20.430420     2A    -20.427701     3A    -15.645218
       4A    -15.606853     5A    -15.603916     6A    -11.420536
       7A    -11.301573     8A    -11.277103     9A    -11.175125
      10A     -1.390340    11A     -1.317559    12A     -1.243110
      13A     -1.229208    14A     -1.202426    15A     -0.989058
      16A     -0.923722    17A     -0.880273    18A     -0.819617
      19A     -0.784251    20A     -0.705812    21A     -0.693470
      22A     -0.669087    23A     -0.647431    24A     -0.634169
      25A     -0.599722    26A     -0.579034    27A     -0.560508
      28A     -0.550277    29A     -0.541396    30A     -0.484149
      31A     -0.465694    32A     -0.454813    33A     -0.415395
      34A     -0.347922    35A     -0.340131    36A     -0.332883

    Virtual:

      37A      0.124759    38A      0.156863    39A      0.188975
      40A      0.208520    41A      0.214715    42A      0.245367
      43A      0.250029    44A      0.268028    45A      0.275350
      46A      0.305038    47A      0.312356    48A      0.347294
      49A      0.361526    50A      0.410216    51A      0.431636
      52A      0.448034    53A      0.489160    54A      0.503067
      55A      0.575061    56A      0.578200    57A      0.602661
      58A      0.608878    59A      0.669107    60A      0.681173
      61A      0.682526    62A      0.698071    63A      0.707412
      64A      0.716428    65A      0.731495    66A      0.769628
      67A      0.798784    68A      0.811553    69A      0.817601
      70A      0.834738    71A      0.841897    72A      0.852417
      73A      0.895683    74A      0.908874    75A      0.910384
      76A      0.918848    77A      0.931019    78A      0.944176
      79A      0.961443    80A      0.968195    81A      0.989192
      82A      0.991771    83A      1.050054    84A      1.078658
      85A      1.088251    86A      1.104075    87A      1.128107
      88A      1.156554    89A      1.191765    90A      1.213415
      91A      1.259644    92A      1.266249    93A      1.293393
      94A      1.315718    95A      1.329031    96A      1.349015
      97A      1.372857    98A      1.383761    99A      1.400953
     100A      1.429943   101A      1.459079   102A      1.500023
     103A      1.504704   104A      1.529660   105A      1.573651
     106A      1.584300   107A      1.611866   108A      1.644060
     109A      1.662174   110A      1.687149   111A      1.706892
     112A      1.716825   113A      1.731344   114A      1.752100
     115A      1.802154   116A      1.812892   117A      1.860653
     118A      1.881461   119A      1.887935   120A      1.902194
     121A      1.916177   122A      1.921184   123A      1.941330
     124A      1.959070   125A      1.962399   126A      1.981441
     127A      1.986191   128A      2.005371   129A      2.016282
     130A      2.074588   131A      2.091042   132A      2.147149
     133A      2.150850   134A      2.163840   135A      2.177463
     136A      2.246218   137A      2.284669   138A      2.289619
     139A      2.310164   140A      2.326086   141A      2.356789
     142A      2.397086   143A      2.424319   144A      2.458385
     145A      2.480332   146A      2.496297   147A      2.513784
     148A      2.517279   149A      2.565557   150A      2.592532
     151A      2.612996   152A      2.630089   153A      2.666057
     154A      2.721394   155A      2.733332   156A      2.744250
     157A      2.794926   158A      2.814736   159A      2.839700
     160A      2.876460   161A      2.895760   162A      2.913136
     163A      2.958137   164A      2.997757   165A      3.012407
     166A      3.059790   167A      3.074785   168A      3.123061
     169A      3.150301   170A      3.187954   171A      3.237676
     172A      3.293700   173A      3.386578   174A      3.468151
     175A      3.629766   176A      3.652336   177A      3.763159
     178A      3.845516   179A      3.911133   180A      3.932291
     181A      4.066568

    Final Occupation by Irrep:
              A
    DOCC [    36 ]

  @RHF Final Energy:  -471.00854840955503

   => Energetics <=

    Nuclear Repulsion Energy =            463.7530095848869109
    One-Electron Energy =               -1564.1433137432138665
    Two-Electron Energy =                 629.3817557487718659
    Total Energy =                       -471.0085484095550328

Computation Completed

Properties will be evaluated at   0.000000,   0.000000,   0.000000 [a0]

Properties computed using the SCF density matrix

  Nuclear Dipole Moment: [e a0]
     X:     1.3362      Y:    -3.5283      Z:    -1.6236

  Electronic Dipole Moment: [e a0]
     X:    -2.6240      Y:    -0.7392      Z:     2.3614

  Dipole Moment: [e a0]
     X:    -1.2878      Y:    -4.2675      Z:     0.7378     Total:     4.5182

  Dipole Moment: [D]
     X:    -3.2733      Y:   -10.8469      Z:     1.8753     Total:    11.4842

*** tstop() called on ds3 at Tue Apr 28 15:34:45 2020
Module time:
	user time   =      46.48 seconds =       0.77 minutes
	system time =      17.99 seconds =       0.30 minutes
	total time  =        114 seconds =       1.90 minutes
Total time:
	user time   =      46.48 seconds =       0.77 minutes
	system time =      17.99 seconds =       0.30 minutes
	total time  =        114 seconds =       1.90 minutes
                                     G D M A

                                 by Anthony Stone

                           version 2.2.06, 22 June 2011

               Distributed Multipoles from Gaussian wavefunctions

Starting at 15:34:45 on 28 Apr 2020

Using SCF density matrix from file ./SSI/SSI-066ARG-167GLU-1-dimer.test.983.fchk

                         Distributed Multipole Analysis

Standard DMA

Positions and radii in angstrom
Multipole moments in atomic units, ea_0^k for rank k

C          x =  0.667888  y = -2.392989  z = -1.372880 angstrom
           Maximum rank =  0   Radius =  0.650 angstrom
                   Q00  =  -0.097038

C          x = -0.777112  y = -1.663989  z =  0.495120 angstrom
           Maximum rank =  0   Radius =  0.650 angstrom
                   Q00  =   1.068801

N          x = -1.262112  y = -0.691989  z =  1.199120 angstrom
           Maximum rank =  0   Radius =  0.650 angstrom
                   Q00  =  -0.604953

N          x =  0.095888  y = -1.394989  z = -0.465880 angstrom
           Maximum rank =  0   Radius =  0.650 angstrom
                   Q00  =  -0.512784

N          x = -1.228112  y = -2.874989  z =  0.721120 angstrom
           Maximum rank =  0   Radius =  0.650 angstrom
                   Q00  =  -0.582169

H          x = -0.935112  y =  0.262011  z =  1.012120 angstrom
           Maximum rank =  0   Radius =  0.325 angstrom
                   Q00  =   0.350770

H          x = -1.918112  y = -0.866989  z =  1.939120 angstrom
           Maximum rank =  0   Radius =  0.325 angstrom
                   Q00  =   0.221002

H          x =  0.385888  y = -0.420989  z = -0.582880 angstrom
           Maximum rank =  0   Radius =  0.325 angstrom
                   Q00  =   0.322109

H          x = -0.839112  y = -3.657989  z =  0.224120 angstrom
           Maximum rank =  0   Radius =  0.325 angstrom
                   Q00  =   0.237359

H          x = -1.826112  y = -3.036989  z =  1.525120 angstrom
           Maximum rank =  0   Radius =  0.325 angstrom
                   Q00  =   0.237707

H          x =  0.662888  y = -3.389989  z = -0.928880 angstrom
           Maximum rank =  0   Radius =  0.325 angstrom
                   Q00  =   0.070798

H          x =  1.717888  y = -2.131989  z = -1.522880 angstrom
           Maximum rank =  0   Radius =  0.325 angstrom
                   Q00  =   0.140202

H          x =  0.196648  y = -2.432259  z = -2.366050 angstrom
           Maximum rank =  0   Radius =  0.325 angstrom
                   Q00  =   0.110647

C          x =  1.151888  y =  3.613011  z = -0.294880 angstrom
           Maximum rank =  0   Radius =  0.650 angstrom
                   Q00  =  -0.254331

C          x =  0.595888  y =  2.197011  z = -0.143880 angstrom
           Maximum rank =  0   Radius =  0.650 angstrom
                   Q00  =   0.872108

O          x = -0.294112  y =  1.962011  z =  0.707120 angstrom
           Maximum rank =  0   Radius =  0.650 angstrom
                   Q00  =  -0.929029

O          x =  1.071888  y =  1.306011  z = -0.883880 angstrom
           Maximum rank =  0   Radius =  0.650 angstrom
                   Q00  =  -0.927520

H          x =  0.994888  y =  3.968011  z = -1.315880 angstrom
           Maximum rank =  0   Radius =  0.325 angstrom
                   Q00  =   0.100136

H          x =  2.231888  y =  3.570011  z = -0.130880 angstrom
           Maximum rank =  0   Radius =  0.325 angstrom
                   Q00  =   0.095826

H          x =  0.742288  y =  4.341353  z =  0.420480 angstrom
           Maximum rank =  0   Radius =  0.325 angstrom
                   Q00  =   0.080358

Total multipoles referred to origin at
           x =   0.000000,  y =    0.000000,  z =    0.000000 angstrom
                   Q00  =  -0.000000

Finished at 15:34:45 on 28 Apr 2020

  DMA results are available in the Python driver through the
	  variable('DMA DISTRIBUTED MULTIPOLES')
  and
	  variable('DMA TOTAL MULTIPOLES')
  commands.

    Psi4 stopped on: Tuesday, 28 April 2020 03:34PM
    Psi4 wall time for execution: 0:01:54.50

*** Psi4 exiting successfully. Buy a developer a beer!
