                               Psi4 1.3.2 release

  ==> Input File <==

--------------------------------------------------------------------------
import numpy as np
set {scf_type pk
basis cc-pvdz
d_convergence 10
gdma_switch   0
gdma_limit    0
gdma_origin   [ 0.0,  0.0,  0.0 ]
}
molecule test {
    units Angstrom
    1 1
    --
    1 1
    C               -0.525764839759100    -0.272835125290739    -2.661229532066690
    C                0.541235160240900     0.734164874709261    -0.653229532066690
    N                0.546235160240900    -0.119835125290739    -1.667229532066690
    N               -0.482764839759100     1.540164874709261    -0.438229532066690
    N                1.588235160240900     0.787164874709261     0.146770467933310
    H                1.369235160240900    -0.696835125290739    -1.772229532066690
    H               -1.228764839759100     1.634164874709261    -1.132229532066690
    H               -0.471764839759100     2.183164874709261     0.334770467933310
    H                2.385235160240901     0.183164874709261    -0.027229532066690
    H                1.621235160240900     1.435164874709261     0.915770467933310
    H               -0.167764839759100     0.124164874709261    -3.612229532066690
    H               -1.414764839759100     0.288164874709261    -2.390229532066690
    H               -0.821810839759100    -1.319825125290739    -2.822969532066690
    C               -0.210764839759100    -1.025835125290739     2.251770467933310
    C               -1.427764839759100    -1.662835125290739     2.918770467933310
    H               -0.016764839759100    -1.493835125290739     1.286770467933310
    H               -0.373764839759100     0.042164874709261     2.122770467933310
    H                0.666235160240900    -1.150835125290739     2.888770467933310
    H               -1.687764839759100    -1.035835125290739     3.773770467933310
    H               -1.188966839759100    -2.663375125290739     3.308500467933310
    H               -2.293693839759099    -1.680755125290739     2.240650467933310

}
e, wfn = energy('scf', return_wfn=True)
gdma(wfn)
dmavals = variable('DMA DISTRIBUTED MULTIPOLES')
charges = np.array(dmavals)
print(charges)
np.save('SSI-069ARG-075ILE-1-dimer.npy', np.array(charges))--------------------------------------------------------------------------

*** tstart() called on ds3
*** at Tue Apr 28 00:44:32 2020

   => Loading Basis Set <=

    Name: CC-PVDZ
    Role: ORBITAL
    Keyword: BASIS
    atoms 1-2, 14-15  entry C          line   138 file /theoryfs2/ds/metcalf/miniconda2/envs/tf2gpu/share/psi4/basis/cc-pvdz.gbs
    atoms 3-5         entry N          line   168 file /theoryfs2/ds/metcalf/miniconda2/envs/tf2gpu/share/psi4/basis/cc-pvdz.gbs
    atoms 6-13, 16-21 entry H          line    22 file /theoryfs2/ds/metcalf/miniconda2/envs/tf2gpu/share/psi4/basis/cc-pvdz.gbs

         ---------------------------------------------------------
                                   SCF
               by Justin Turney, Rob Parrish, Andy Simmonett
                          and Daniel G. A. Smith
                              RHF Reference
                        1 Threads,    500 MiB Core
         ---------------------------------------------------------

  ==> Geometry <==

    Molecular point group: c1
    Full point group: C1

    Geometry (in Angstrom), charge = 1, multiplicity = 1:

       Center              X                  Y                   Z               Mass
    ------------   -----------------  -----------------  -----------------  -----------------
         C           -0.525764839759    -0.272835125291    -2.661229532067    12.000000000000
         C            0.541235160241     0.734164874709    -0.653229532067    12.000000000000
         N            0.546235160241    -0.119835125291    -1.667229532067    14.003074004430
         N           -0.482764839759     1.540164874709    -0.438229532067    14.003074004430
         N            1.588235160241     0.787164874709     0.146770467933    14.003074004430
         H            1.369235160241    -0.696835125291    -1.772229532067     1.007825032230
         H           -1.228764839759     1.634164874709    -1.132229532067     1.007825032230
         H           -0.471764839759     2.183164874709     0.334770467933     1.007825032230
         H            2.385235160241     0.183164874709    -0.027229532067     1.007825032230
         H            1.621235160241     1.435164874709     0.915770467933     1.007825032230
         H           -0.167764839759     0.124164874709    -3.612229532067     1.007825032230
         H           -1.414764839759     0.288164874709    -2.390229532067     1.007825032230
         H           -0.821810839759    -1.319825125291    -2.822969532067     1.007825032230
         C           -0.210764839759    -1.025835125291     2.251770467933    12.000000000000
         C           -1.427764839759    -1.662835125291     2.918770467933    12.000000000000
         H           -0.016764839759    -1.493835125291     1.286770467933     1.007825032230
         H           -0.373764839759     0.042164874709     2.122770467933     1.007825032230
         H            0.666235160241    -1.150835125291     2.888770467933     1.007825032230
         H           -1.687764839759    -1.035835125291     3.773770467933     1.007825032230
         H           -1.188966839759    -2.663375125291     3.308500467933     1.007825032230
         H           -2.293693839759    -1.680755125291     2.240650467933     1.007825032230

  Running in c1 symmetry.

  Rotational constants: A =      0.10099  B =      0.03492  C =      0.03132 [cm^-1]
  Rotational constants: A =   3027.68011  B =   1046.88958  C =    939.06957 [MHz]
  Nuclear repulsion =  324.570693671726929

  Charge       = 1
  Multiplicity = 1
  Electrons    = 58
  Nalpha       = 29
  Nbeta        = 29

  ==> Algorithm <==

  SCF Algorithm Type is PK.
  DIIS enabled.
  MOM disabled.
  Fractional occupation disabled.
  Guess Type is SAD.
  Energy threshold   = 1.00e-06
  Density threshold  = 1.00e-10
  Integral threshold = 0.00e+00

  ==> Primary Basis <==

  Basis Set: CC-PVDZ
    Blend: CC-PVDZ
    Number of shells: 84
    Number of basis function: 168
    Number of Cartesian functions: 175
    Spherical Harmonics?: true
    Max angular momentum: 2

  ==> Pre-Iterations <==

   -------------------------------------------------------
    Irrep   Nso     Nmo     Nalpha   Nbeta   Ndocc  Nsocc
   -------------------------------------------------------
     A        168     168       0       0       0       0
   -------------------------------------------------------
    Total     168     168      29      29      29       0
   -------------------------------------------------------

  ==> Integral Setup <==

  Using integral reordering PK algorithm.
  Sizing the integral batches needed.
  Building batch lookup table.
   Calculation information:
      Number of atoms:                  21
      Number of AO shells:              84
      Number of primitives:            224
      Number of atomic orbitals:       175
      Number of basis functions:       168

      Integral cutoff                 1.00e-12
      Number of threads:                 1

	Batch   1 pq = [       0,    9405] index = [             0,44231715] size =     44231715
	Batch   2 pq = [    9405,   13301] index = [      44231715,88464951] size =     44233236
	Batch   3 pq = [   13301,   14196] index = [      88464951,100770306] size =     12305355
  Task number: 10
  Buffer size: 11059200
  Buffer per thread: 2
  We computed 5721231 shell quartets total.
  Whereas there are 6374235 unique shell quartets.

  ==> DiskJK: Disk-Based J/K Matrices <==

    J tasked:                  Yes
    K tasked:                  Yes
    wK tasked:                  No
    Memory [MiB]:              375
    Schwarz Cutoff:          1E-12

    OpenMP threads:              1

  Minimum eigenvalue in the overlap matrix is 3.5269994083E-03.
  Using Symmetric Orthogonalization.

  SCF Guess: Superposition of Atomic Densities via on-the-fly atomic UHF.

  ==> Iterations <==

                        Total Energy        Delta E     RMS |[F,P]|

   @RHF iter SAD:  -322.11925518229890   -3.22119e+02   0.00000e+00
   @RHF iter   1:  -322.61144096318253   -4.92186e-01   3.42494e-03 DIIS
   @RHF iter   2:  -322.78441381051596   -1.72973e-01   1.34882e-03 DIIS
   @RHF iter   3:  -322.80990825654658   -2.54944e-02   3.20218e-04 DIIS
   @RHF iter   4:  -322.81232559133912   -2.41733e-03   5.03739e-05 DIIS
   @RHF iter   5:  -322.81238769614686   -6.21048e-05   2.06388e-05 DIIS
   @RHF iter   6:  -322.81239626481300   -8.56867e-06   4.12856e-06 DIIS
   @RHF iter   7:  -322.81239685643573   -5.91623e-07   1.34805e-06 DIIS
   @RHF iter   8:  -322.81239689854493   -4.21092e-08   4.07601e-07 DIIS
   @RHF iter   9:  -322.81239690252079   -3.97586e-09   9.07982e-08 DIIS
   @RHF iter  10:  -322.81239690274163   -2.20837e-10   2.71814e-08 DIIS
   @RHF iter  11:  -322.81239690276124   -1.96110e-11   6.76913e-09 DIIS
   @RHF iter  12:  -322.81239690276220   -9.66338e-13   2.14825e-09 DIIS
   @RHF iter  13:  -322.81239690276311   -9.09495e-13   9.98721e-10 DIIS
   @RHF iter  14:  -322.81239690276220    9.09495e-13   2.73010e-10 DIIS
   @RHF iter  15:  -322.81239690276237   -1.70530e-13   6.56535e-11 DIIS
  Energy and wave function converged.

  ==> Post-Iterations <==

    Orbital Energies [Eh]
    ---------------------

    Doubly Occupied:

       1A    -15.788923     2A    -15.788763     3A    -15.785791
       4A    -11.590654     5A    -11.443486     6A    -11.334241
       7A    -11.319068     8A     -1.544787     9A     -1.401913
      10A     -1.389637    11A     -1.143167    12A     -1.128054
      13A     -1.039152    14A     -0.976454    15A     -0.946550
      16A     -0.941440    17A     -0.860371    18A     -0.853456
      19A     -0.822609    20A     -0.796794    21A     -0.743188
      22A     -0.728239    23A     -0.708812    24A     -0.706315
      25A     -0.619972    26A     -0.608062    27A     -0.595186
      28A     -0.590505    29A     -0.582203

    Virtual:

      30A     -0.012225    31A      0.020203    32A      0.026299
      33A      0.031967    34A      0.061240    35A      0.082113
      36A      0.088096    37A      0.112239    38A      0.119528
      39A      0.141147    40A      0.147484    41A      0.154160
      42A      0.158163    43A      0.185439    44A      0.196097
      45A      0.201936    46A      0.269685    47A      0.292908
      48A      0.330200    49A      0.345251    50A      0.420661
      51A      0.438749    52A      0.473325    53A      0.473801
      54A      0.488166    55A      0.524424    56A      0.529362
      57A      0.535732    58A      0.552054    59A      0.562518
      60A      0.575563    61A      0.593269    62A      0.661657
      63A      0.686151    64A      0.693833    65A      0.695542
      66A      0.715774    67A      0.743094    68A      0.749550
      69A      0.753199    70A      0.766140    71A      0.773404
      72A      0.786120    73A      0.794283    74A      0.799269
      75A      0.807994    76A      0.847732    77A      0.851676
      78A      0.865733    79A      0.878255    80A      0.917979
      81A      0.935341    82A      0.956264    83A      1.008549
      84A      1.012395    85A      1.043901    86A      1.083147
      87A      1.101331    88A      1.123093    89A      1.156860
      90A      1.174697    91A      1.206154    92A      1.216214
      93A      1.230772    94A      1.292101    95A      1.349471
      96A      1.368337    97A      1.373514    98A      1.447902
      99A      1.497233   100A      1.502319   101A      1.525214
     102A      1.540037   103A      1.576181   104A      1.584860
     105A      1.594638   106A      1.613604   107A      1.664990
     108A      1.698703   109A      1.710746   110A      1.726534
     111A      1.742956   112A      1.751958   113A      1.758806
     114A      1.768698   115A      1.777786   116A      1.800213
     117A      1.816612   118A      1.823894   119A      1.828681
     120A      1.842712   121A      1.853623   122A      1.862177
     123A      1.888506   124A      1.911549   125A      1.933468
     126A      1.982347   127A      1.993482   128A      2.027304
     129A      2.036938   130A      2.045068   131A      2.096013
     132A      2.137132   133A      2.170336   134A      2.193566
     135A      2.225826   136A      2.237075   137A      2.275357
     138A      2.294957   139A      2.315159   140A      2.322479
     141A      2.340887   142A      2.357214   143A      2.377472
     144A      2.414725   145A      2.457315   146A      2.462253
     147A      2.479926   148A      2.537901   149A      2.580151
     150A      2.589977   151A      2.631712   152A      2.662279
     153A      2.673876   154A      2.732681   155A      2.733718
     156A      2.744909   157A      2.755580   158A      2.783790
     159A      2.817441   160A      2.833095   161A      2.855124
     162A      2.866290   163A      2.912568   164A      3.053751
     165A      3.095290   166A      3.099780   167A      3.573491
     168A      3.645418

    Final Occupation by Irrep:
              A
    DOCC [    29 ]

  @RHF Final Energy:  -322.81239690276237

   => Energetics <=

    Nuclear Repulsion Energy =            324.5706936717269286
    One-Electron Energy =               -1069.2105997253088390
    Two-Electron Energy =                 421.8275091508194805
    Total Energy =                       -322.8123969027623730

Computation Completed

Properties will be evaluated at   0.000000,   0.000000,   0.000000 [a0]

Properties computed using the SCF density matrix

  Nuclear Dipole Moment: [e a0]
     X:    -3.4021      Y:    -3.8980      Z:     4.8005

  Electronic Dipole Moment: [e a0]
     X:     4.2393      Y:     5.1007      Z:    -6.2267

  Dipole Moment: [e a0]
     X:     0.8372      Y:     1.2027      Z:    -1.4262     Total:     2.0449

  Dipole Moment: [D]
     X:     2.1281      Y:     3.0571      Z:    -3.6250     Total:     5.1976

*** tstop() called on ds3 at Tue Apr 28 00:45:22 2020
Module time:
	user time   =      35.70 seconds =       0.59 minutes
	system time =      17.11 seconds =       0.29 minutes
	total time  =         50 seconds =       0.83 minutes
Total time:
	user time   =      35.70 seconds =       0.59 minutes
	system time =      17.11 seconds =       0.29 minutes
	total time  =         50 seconds =       0.83 minutes
                                     G D M A

                                 by Anthony Stone

                           version 2.2.06, 22 June 2011

               Distributed Multipoles from Gaussian wavefunctions

Starting at 0:45:22 on 28 Apr 2020

Using SCF density matrix from file ./SSI/SSI-069ARG-075ILE-1-dimer.test.16299.fchk

                         Distributed Multipole Analysis

Standard DMA

Positions and radii in angstrom
Multipole moments in atomic units, ea_0^k for rank k

C          x = -0.525765  y = -0.272835  z = -2.661230 angstrom
           Maximum rank =  0   Radius =  0.650 angstrom
                   Q00  =  -0.122143

C          x =  0.541235  y =  0.734165  z = -0.653230 angstrom
           Maximum rank =  0   Radius =  0.650 angstrom
                   Q00  =   1.073934

N          x =  0.546235  y = -0.119835  z = -1.667230 angstrom
           Maximum rank =  0   Radius =  0.650 angstrom
                   Q00  =  -0.496003

N          x = -0.482765  y =  1.540165  z = -0.438230 angstrom
           Maximum rank =  0   Radius =  0.650 angstrom
                   Q00  =  -0.585673

N          x =  1.588235  y =  0.787165  z =  0.146770 angstrom
           Maximum rank =  0   Radius =  0.650 angstrom
                   Q00  =  -0.577008

H          x =  1.369235  y = -0.696835  z = -1.772230 angstrom
           Maximum rank =  0   Radius =  0.325 angstrom
                   Q00  =   0.234499

H          x = -1.228765  y =  1.634165  z = -1.132230 angstrom
           Maximum rank =  0   Radius =  0.325 angstrom
                   Q00  =   0.272333

H          x = -0.471765  y =  2.183165  z =  0.334770 angstrom
           Maximum rank =  0   Radius =  0.325 angstrom
                   Q00  =   0.265433

H          x =  2.385235  y =  0.183165  z = -0.027230 angstrom
           Maximum rank =  0   Radius =  0.325 angstrom
                   Q00  =   0.266434

H          x =  1.621235  y =  1.435165  z =  0.915770 angstrom
           Maximum rank =  0   Radius =  0.325 angstrom
                   Q00  =   0.268458

H          x = -0.167765  y =  0.124165  z = -3.612230 angstrom
           Maximum rank =  0   Radius =  0.325 angstrom
                   Q00  =   0.134339

H          x = -1.414765  y =  0.288165  z = -2.390230 angstrom
           Maximum rank =  0   Radius =  0.325 angstrom
                   Q00  =   0.114507

H          x = -0.821811  y = -1.319825  z = -2.822970 angstrom
           Maximum rank =  0   Radius =  0.325 angstrom
                   Q00  =   0.154233

C          x = -0.210765  y = -1.025835  z =  2.251770 angstrom
           Maximum rank =  0   Radius =  0.650 angstrom
                   Q00  =  -0.249659

C          x = -1.427765  y = -1.662835  z =  2.918770 angstrom
           Maximum rank =  0   Radius =  0.650 angstrom
                   Q00  =  -0.220664

H          x = -0.016765  y = -1.493835  z =  1.286770 angstrom
           Maximum rank =  0   Radius =  0.325 angstrom
                   Q00  =   0.058036

H          x = -0.373765  y =  0.042165  z =  2.122770 angstrom
           Maximum rank =  0   Radius =  0.325 angstrom
                   Q00  =   0.040170

H          x =  0.666235  y = -1.150835  z =  2.888770 angstrom
           Maximum rank =  0   Radius =  0.325 angstrom
                   Q00  =   0.096212

H          x = -1.687765  y = -1.035835  z =  3.773770 angstrom
           Maximum rank =  0   Radius =  0.325 angstrom
                   Q00  =   0.089459

H          x = -1.188967  y = -2.663375  z =  3.308500 angstrom
           Maximum rank =  0   Radius =  0.325 angstrom
                   Q00  =   0.101869

H          x = -2.293694  y = -1.680755  z =  2.240650 angstrom
           Maximum rank =  0   Radius =  0.325 angstrom
                   Q00  =   0.081233

Total multipoles referred to origin at
           x =   0.000000,  y =    0.000000,  z =    0.000000 angstrom
                   Q00  =   1.000000

Finished at 0:45:22 on 28 Apr 2020

  DMA results are available in the Python driver through the
	  variable('DMA DISTRIBUTED MULTIPOLES')
  and
	  variable('DMA TOTAL MULTIPOLES')
  commands.

    Psi4 stopped on: Tuesday, 28 April 2020 12:45AM
    Psi4 wall time for execution: 0:00:50.33

*** Psi4 exiting successfully. Buy a developer a beer!
