                               Psi4 1.3.2 release

  ==> Input File <==

--------------------------------------------------------------------------
import numpy as np
set {scf_type pk
basis cc-pvdz
d_convergence 10
gdma_switch   0
gdma_limit    0
gdma_origin   [ 0.0,  0.0,  0.0 ]
}
molecule test {
    units Angstrom
    -1 1
    --
    -1 1
    C                0.289031328750379     2.880043072015847     0.164786108142308
    C               -0.862968671249621     3.199043072015848     1.124786108142308
    C               -0.155968671249621     2.712043072015847    -1.285213891857692
    O               -1.294968671249621     3.096043072015847    -1.638213891857692
    O                0.658031328750379     2.202043072015847    -2.090213891857692
    H                1.047031328750379     3.665043072015847     0.225786108142308
    H                0.762031328750379     1.956043072015847     0.501786108142308
    H               -0.483968671249621     3.149043072015847     2.146786108142308
    H               -1.614968671249621     2.418043072015847     1.011786108142308
    H               -1.320648671249621     4.186968072015847     0.968156108142308
    C                1.185031328750380    -1.126956927984152     3.132786108142308
    C               -0.226968671249621    -0.696956927984153     1.095786108142308
    C                0.703031328750379    -1.489956927984152     1.765786108142308
    C               -0.705968671249621    -1.082956927984152    -0.156213891857692
    C               -0.259968671249621    -2.276956927984153    -0.728213891857692
    C                1.075031328750379    -2.708956927984152     1.212786108142308
    C                0.618031328750379    -3.092956927984153    -0.037213891857692
    O               -0.714968671249621    -2.696956927984152    -1.941213891857692
    H               -0.582968671249621     0.216043072015847     1.553786108142308
    H               -1.421968671249620    -0.462956927984152    -0.678213891857692
    H                0.986031328750379    -0.072956927984153     3.329786108142308
    H                2.265031328750379    -1.274956927984153     3.174786108142309
    H                1.756031328750379    -3.351956927984153     1.748786108142308
    H               -1.328968671249621    -2.063956927984152    -2.332213891857692
    H                0.936031328750380    -4.029956927984153    -0.472213891857692
    H                0.711781328750379    -1.744714927984153     3.910226108142308

}
e, wfn = energy('scf', return_wfn=True)
gdma(wfn)
dmavals = variable('DMA DISTRIBUTED MULTIPOLES')
charges = np.array(dmavals)
print(charges)
np.save('SSI-012GLU-070TYR-1-dimer.npy', np.array(charges))--------------------------------------------------------------------------

*** tstart() called on ds3
*** at Tue Apr 28 20:59:40 2020

   => Loading Basis Set <=

    Name: CC-PVDZ
    Role: ORBITAL
    Keyword: BASIS
    atoms 1-3, 11-17  entry C          line   138 file /theoryfs2/ds/metcalf/miniconda2/envs/tf2gpu/share/psi4/basis/cc-pvdz.gbs
    atoms 4-5, 18     entry O          line   198 file /theoryfs2/ds/metcalf/miniconda2/envs/tf2gpu/share/psi4/basis/cc-pvdz.gbs
    atoms 6-10, 19-26 entry H          line    22 file /theoryfs2/ds/metcalf/miniconda2/envs/tf2gpu/share/psi4/basis/cc-pvdz.gbs

         ---------------------------------------------------------
                                   SCF
               by Justin Turney, Rob Parrish, Andy Simmonett
                          and Daniel G. A. Smith
                              RHF Reference
                        1 Threads,    500 MiB Core
         ---------------------------------------------------------

  ==> Geometry <==

    Molecular point group: c1
    Full point group: C1

    Geometry (in Angstrom), charge = -1, multiplicity = 1:

       Center              X                  Y                   Z               Mass
    ------------   -----------------  -----------------  -----------------  -----------------
         C            0.289031328750     2.880043072016     0.164786108142    12.000000000000
         C           -0.862968671250     3.199043072016     1.124786108142    12.000000000000
         C           -0.155968671250     2.712043072016    -1.285213891858    12.000000000000
         O           -1.294968671250     3.096043072016    -1.638213891858    15.994914619570
         O            0.658031328750     2.202043072016    -2.090213891858    15.994914619570
         H            1.047031328750     3.665043072016     0.225786108142     1.007825032230
         H            0.762031328750     1.956043072016     0.501786108142     1.007825032230
         H           -0.483968671250     3.149043072016     2.146786108142     1.007825032230
         H           -1.614968671250     2.418043072016     1.011786108142     1.007825032230
         H           -1.320648671250     4.186968072016     0.968156108142     1.007825032230
         C            1.185031328750    -1.126956927984     3.132786108142    12.000000000000
         C           -0.226968671250    -0.696956927984     1.095786108142    12.000000000000
         C            0.703031328750    -1.489956927984     1.765786108142    12.000000000000
         C           -0.705968671250    -1.082956927984    -0.156213891858    12.000000000000
         C           -0.259968671250    -2.276956927984    -0.728213891858    12.000000000000
         C            1.075031328750    -2.708956927984     1.212786108142    12.000000000000
         C            0.618031328750    -3.092956927984    -0.037213891858    12.000000000000
         O           -0.714968671250    -2.696956927984    -1.941213891858    15.994914619570
         H           -0.582968671250     0.216043072016     1.553786108142     1.007825032230
         H           -1.421968671250    -0.462956927984    -0.678213891858     1.007825032230
         H            0.986031328750    -0.072956927984     3.329786108142     1.007825032230
         H            2.265031328750    -1.274956927984     3.174786108142     1.007825032230
         H            1.756031328750    -3.351956927984     1.748786108142     1.007825032230
         H           -1.328968671250    -2.063956927984    -2.332213891858     1.007825032230
         H            0.936031328750    -4.029956927984    -0.472213891858     1.007825032230
         H            0.711781328750    -1.744714927984     3.910226108142     1.007825032230

  Running in c1 symmetry.

  Rotational constants: A =      0.03242  B =      0.01391  C =      0.01072 [cm^-1]
  Rotational constants: A =    971.97213  B =    416.92641  C =    321.43019 [MHz]
  Nuclear repulsion =  740.514929509152580

  Charge       = -1
  Multiplicity = 1
  Electrons    = 98
  Nalpha       = 49
  Nbeta        = 49

  ==> Algorithm <==

  SCF Algorithm Type is PK.
  DIIS enabled.
  MOM disabled.
  Fractional occupation disabled.
  Guess Type is SAD.
  Energy threshold   = 1.00e-06
  Density threshold  = 1.00e-10
  Integral threshold = 0.00e+00

  ==> Primary Basis <==

  Basis Set: CC-PVDZ
    Blend: CC-PVDZ
    Number of shells: 117
    Number of basis function: 247
    Number of Cartesian functions: 260
    Spherical Harmonics?: true
    Max angular momentum: 2

  ==> Pre-Iterations <==

   -------------------------------------------------------
    Irrep   Nso     Nmo     Nalpha   Nbeta   Ndocc  Nsocc
   -------------------------------------------------------
     A        247     247       0       0       0       0
   -------------------------------------------------------
    Total     247     247      49      49      49       0
   -------------------------------------------------------

  ==> Integral Setup <==

  Using integral reordering PK algorithm.
  Sizing the integral batches needed.
  Building batch lookup table.
   Calculation information:
      Number of atoms:                  26
      Number of AO shells:             117
      Number of primitives:            351
      Number of atomic orbitals:       260
      Number of basis functions:       247

      Integral cutoff                 1.00e-12
      Number of threads:                 1

	Batch   1 pq = [       0,    9405] index = [             0,44231715] size =     44231715
	Batch   2 pq = [    9405,   13301] index = [      44231715,88464951] size =     44233236
	Batch   3 pq = [   13301,   16290] index = [      88464951,132690195] size =     44225244
	Batch   4 pq = [   16290,   18810] index = [     132690195,176917455] size =     44227260
	Batch   5 pq = [   18810,   21030] index = [     176917455,221140965] size =     44223510
	Batch   6 pq = [   21030,   23037] index = [     221140965,265363203] size =     44222238
	Batch   7 pq = [   23037,   24883] index = [     265363203,309594286] size =     44231083
	Batch   8 pq = [   24883,   26601] index = [     309594286,353819901] size =     44225615
	Batch   9 pq = [   26601,   28214] index = [     353819901,398029005] size =     44209104
	Batch  10 pq = [   28214,   29740] index = [     398029005,442248670] size =     44219665
	Batch  11 pq = [   29740,   30628] index = [     442248670,469052506] size =     26803836
  Task number: 43
  Buffer size: 11059200
  Buffer per thread: 2
  We computed 21467913 shell quartets total.
  Whereas there are 23829156 unique shell quartets.

  ==> DiskJK: Disk-Based J/K Matrices <==

    J tasked:                  Yes
    K tasked:                  Yes
    wK tasked:                  No
    Memory [MiB]:              375
    Schwarz Cutoff:          1E-12

    OpenMP threads:              1

  Minimum eigenvalue in the overlap matrix is 3.1748908335E-04.
  Using Symmetric Orthogonalization.

  SCF Guess: Superposition of Atomic Densities via on-the-fly atomic UHF.

  ==> Iterations <==

                        Total Energy        Delta E     RMS |[F,P]|

   @RHF iter SAD:  -609.22650950527691   -6.09227e+02   0.00000e+00
   @RHF iter   1:  -610.51487271444671   -1.28836e+00   3.43952e-03 DIIS
   @RHF iter   2:  -610.82304489482215   -3.08172e-01   1.80332e-03 DIIS
   @RHF iter   3:  -610.89902422141324   -7.59793e-02   3.22867e-04 DIIS
   @RHF iter   4:  -610.90327607866027   -4.25186e-03   1.24559e-04 DIIS
   @RHF iter   5:  -610.90387336273511   -5.97284e-04   1.92535e-05 DIIS
   @RHF iter   6:  -610.90389564094289   -2.22782e-05   6.53670e-06 DIIS
   @RHF iter   7:  -610.90389785549098   -2.21455e-06   2.49429e-06 DIIS
   @RHF iter   8:  -610.90389820830205   -3.52811e-07   8.27174e-07 DIIS
   @RHF iter   9:  -610.90389825853731   -5.02353e-08   3.07042e-07 DIIS
   @RHF iter  10:  -610.90389826799606   -9.45874e-09   1.26645e-07 DIIS
   @RHF iter  11:  -610.90389827021659   -2.22053e-09   6.48671e-08 DIIS
   @RHF iter  12:  -610.90389827078627   -5.69685e-10   3.06764e-08 DIIS
   @RHF iter  13:  -610.90389827093702   -1.50749e-10   1.01044e-08 DIIS
   @RHF iter  14:  -610.90389827094577   -8.75389e-12   3.70395e-09 DIIS
   @RHF iter  15:  -610.90389827094475    1.02318e-12   9.39000e-10 DIIS
   @RHF iter  16:  -610.90389827094361    1.13687e-12   4.59121e-10 DIIS
   @RHF iter  17:  -610.90389827093770    5.91172e-12   1.50795e-10 DIIS
   @RHF iter  18:  -610.90389827094236   -4.66116e-12   6.17664e-11 DIIS
  Energy and wave function converged.

  ==> Post-Iterations <==

    Orbital Energies [Eh]
    ---------------------

    Doubly Occupied:

       1A    -20.487072     2A    -20.263333     3A    -20.254943
       4A    -11.201073     5A    -11.143157     6A    -11.142434
       7A    -11.139068     8A    -11.136698     9A    -11.135467
      10A    -11.131630    11A    -11.115311    12A    -11.077876
      13A    -11.058187    14A     -1.303286    15A     -1.148912
      16A     -1.057244    17A     -1.033817    18A     -0.947373
      19A     -0.921400    20A     -0.874622    21A     -0.835800
      22A     -0.748308    23A     -0.707269    24A     -0.706668
      25A     -0.635433    26A     -0.572707    27A     -0.546835
      28A     -0.512082    29A     -0.509399    30A     -0.495390
      31A     -0.491939    32A     -0.482668    33A     -0.477412
      34A     -0.460436    35A     -0.437017    36A     -0.432788
      37A     -0.404993    38A     -0.391007    39A     -0.389315
      40A     -0.372910    41A     -0.363995    42A     -0.359422
      43A     -0.330614    44A     -0.301209    45A     -0.240845
      46A     -0.205677    47A     -0.184277    48A     -0.169988
      49A     -0.159799

    Virtual:

      50A      0.226595    51A      0.250604    52A      0.268178
      53A      0.287464    54A      0.294329    55A      0.306451
      56A      0.339839    57A      0.342827    58A      0.356954
      59A      0.362063    60A      0.381946    61A      0.405236
      62A      0.409519    63A      0.419439    64A      0.434236
      65A      0.471225    66A      0.477479    67A      0.491034
      68A      0.527787    69A      0.544857    70A      0.547668
      71A      0.581803    72A      0.593525    73A      0.601711
      74A      0.613385    75A      0.693692    76A      0.701176
      77A      0.705321    78A      0.736614    79A      0.745508
      80A      0.757387    81A      0.770263    82A      0.774582
      83A      0.786709    84A      0.806192    85A      0.809688
      86A      0.829494    87A      0.835621    88A      0.854692
      89A      0.868210    90A      0.875654    91A      0.881167
      92A      0.895169    93A      0.906674    94A      0.920125
      95A      0.928393    96A      0.943238    97A      0.959403
      98A      0.963475    99A      0.974888   100A      0.982600
     101A      0.992230   102A      1.001071   103A      1.006766
     104A      1.012940   105A      1.020353   106A      1.031273
     107A      1.033207   108A      1.045071   109A      1.057473
     110A      1.069567   111A      1.083733   112A      1.086840
     113A      1.105156   114A      1.111651   115A      1.126152
     116A      1.142950   117A      1.158120   118A      1.182471
     119A      1.214859   120A      1.229187   121A      1.241293
     122A      1.277896   123A      1.292656   124A      1.300374
     125A      1.306661   126A      1.315873   127A      1.340504
     128A      1.346892   129A      1.350845   130A      1.381123
     131A      1.391215   132A      1.406315   133A      1.410856
     134A      1.439204   135A      1.448581   136A      1.461817
     137A      1.469689   138A      1.486409   139A      1.492453
     140A      1.532620   141A      1.576576   142A      1.586637
     143A      1.604372   144A      1.625722   145A      1.635307
     146A      1.646170   147A      1.658057   148A      1.670712
     149A      1.706833   150A      1.716304   151A      1.729073
     152A      1.764899   153A      1.791736   154A      1.818369
     155A      1.829361   156A      1.834341   157A      1.841574
     158A      1.872338   159A      1.882531   160A      1.904263
     161A      1.907504   162A      1.936729   163A      1.961124
     164A      1.984422   165A      1.992695   166A      2.002231
     167A      2.010984   168A      2.013664   169A      2.022069
     170A      2.035870   171A      2.041154   172A      2.056527
     173A      2.066627   174A      2.072490   175A      2.090783
     176A      2.116334   177A      2.125032   178A      2.131566
     179A      2.150288   180A      2.153614   181A      2.159807
     182A      2.169073   183A      2.180310   184A      2.186768
     185A      2.209796   186A      2.220596   187A      2.237904
     188A      2.246673   189A      2.258114   190A      2.275355
     191A      2.291929   192A      2.316370   193A      2.335235
     194A      2.355305   195A      2.368214   196A      2.387530
     197A      2.421502   198A      2.444710   199A      2.467100
     200A      2.481702   201A      2.499207   202A      2.508674
     203A      2.541229   204A      2.551891   205A      2.585528
     206A      2.591484   207A      2.606750   208A      2.623005
     209A      2.638356   210A      2.658409   211A      2.709379
     212A      2.713128   213A      2.740177   214A      2.764589
     215A      2.807369   216A      2.847728   217A      2.868739
     218A      2.888571   219A      2.918689   220A      2.924866
     221A      2.927525   222A      2.993601   223A      2.999875
     224A      3.010612   225A      3.058742   226A      3.089160
     227A      3.099518   228A      3.111569   229A      3.193140
     230A      3.213562   231A      3.245166   232A      3.289905
     233A      3.302891   234A      3.345759   235A      3.361828
     236A      3.388466   237A      3.443439   238A      3.642446
     239A      3.670715   240A      3.771591   241A      3.783844
     242A      3.823532   243A      4.054467   244A      4.059823
     245A      4.075888   246A      4.206121   247A      4.295658

    Final Occupation by Irrep:
              A
    DOCC [    49 ]

  @RHF Final Energy:  -610.90389827094236

   => Energetics <=

    Nuclear Repulsion Energy =            740.5149295091525801
    One-Electron Energy =               -2317.8394532331813025
    Two-Electron Energy =                 966.4206254530863589
    Total Energy =                       -610.9038982709423635

Computation Completed

Properties will be evaluated at   0.000000,   0.000000,   0.000000 [a0]

Properties computed using the SCF density matrix

  Nuclear Dipole Moment: [e a0]
     X:     1.5970      Y:     2.4403      Z:    14.1183

  Electronic Dipole Moment: [e a0]
     X:    -1.3022      Y:    -6.4892      Z:   -10.7443

  Dipole Moment: [e a0]
     X:     0.2948      Y:    -4.0489      Z:     3.3740     Total:     5.2787

  Dipole Moment: [D]
     X:     0.7493      Y:   -10.2913      Z:     8.5758     Total:    13.4170

*** tstop() called on ds3 at Tue Apr 28 21:05:49 2020
Module time:
	user time   =     167.25 seconds =       2.79 minutes
	system time =      67.80 seconds =       1.13 minutes
	total time  =        369 seconds =       6.15 minutes
Total time:
	user time   =     167.25 seconds =       2.79 minutes
	system time =      67.80 seconds =       1.13 minutes
	total time  =        369 seconds =       6.15 minutes
                                     G D M A

                                 by Anthony Stone

                           version 2.2.06, 22 June 2011

               Distributed Multipoles from Gaussian wavefunctions

Starting at 21:5:49 on 28 Apr 2020

Using SCF density matrix from file ./SSI/SSI-012GLU-070TYR-1-dimer.test.7168.fchk

                         Distributed Multipole Analysis

Standard DMA

Positions and radii in angstrom
Multipole moments in atomic units, ea_0^k for rank k

C          x =  0.289031  y =  2.880043  z =  0.164786 angstrom
           Maximum rank =  0   Radius =  0.650 angstrom
                   Q00  =  -0.162319

C          x = -0.862969  y =  3.199043  z =  1.124786 angstrom
           Maximum rank =  0   Radius =  0.650 angstrom
                   Q00  =  -0.223320

C          x = -0.155969  y =  2.712043  z = -1.285214 angstrom
           Maximum rank =  0   Radius =  0.650 angstrom
                   Q00  =   1.028466

O          x = -1.294969  y =  3.096043  z = -1.638214 angstrom
           Maximum rank =  0   Radius =  0.650 angstrom
                   Q00  =  -0.967259

O          x =  0.658031  y =  2.202043  z = -2.090214 angstrom
           Maximum rank =  0   Radius =  0.650 angstrom
                   Q00  =  -0.941945

H          x =  1.047031  y =  3.665043  z =  0.225786 angstrom
           Maximum rank =  0   Radius =  0.325 angstrom
                   Q00  =   0.056514

H          x =  0.762031  y =  1.956043  z =  0.501786 angstrom
           Maximum rank =  0   Radius =  0.325 angstrom
                   Q00  =   0.040393

H          x = -0.483969  y =  3.149043  z =  2.146786 angstrom
           Maximum rank =  0   Radius =  0.325 angstrom
                   Q00  =   0.011108

H          x = -1.614969  y =  2.418043  z =  1.011786 angstrom
           Maximum rank =  0   Radius =  0.325 angstrom
                   Q00  =   0.072332

H          x = -1.320649  y =  4.186968  z =  0.968156 angstrom
           Maximum rank =  0   Radius =  0.325 angstrom
                   Q00  =   0.085296

C          x =  1.185031  y = -1.126957  z =  3.132786 angstrom
           Maximum rank =  0   Radius =  0.650 angstrom
                   Q00  =  -0.199961

C          x = -0.226969  y = -0.696957  z =  1.095786 angstrom
           Maximum rank =  0   Radius =  0.650 angstrom
                   Q00  =  -0.048101

C          x =  0.703031  y = -1.489957  z =  1.765786 angstrom
           Maximum rank =  0   Radius =  0.650 angstrom
                   Q00  =  -0.129070

C          x = -0.705969  y = -1.082957  z = -0.156214 angstrom
           Maximum rank =  0   Radius =  0.650 angstrom
                   Q00  =  -0.174565

C          x = -0.259969  y = -2.276957  z = -0.728214 angstrom
           Maximum rank =  0   Radius =  0.650 angstrom
                   Q00  =   0.356079

C          x =  1.075031  y = -2.708957  z =  1.212786 angstrom
           Maximum rank =  0   Radius =  0.650 angstrom
                   Q00  =   0.025888

C          x =  0.618031  y = -3.092957  z = -0.037214 angstrom
           Maximum rank =  0   Radius =  0.650 angstrom
                   Q00  =  -0.112252

O          x = -0.714969  y = -2.696957  z = -1.941214 angstrom
           Maximum rank =  0   Radius =  0.650 angstrom
                   Q00  =  -0.677799

H          x = -0.582969  y =  0.216043  z =  1.553786 angstrom
           Maximum rank =  0   Radius =  0.325 angstrom
                   Q00  =   0.076688

H          x = -1.421969  y = -0.462957  z = -0.678214 angstrom
           Maximum rank =  0   Radius =  0.325 angstrom
                   Q00  =   0.101587

H          x =  0.986031  y = -0.072957  z =  3.329786 angstrom
           Maximum rank =  0   Radius =  0.325 angstrom
                   Q00  =   0.102870

H          x =  2.265031  y = -1.274957  z =  3.174786 angstrom
           Maximum rank =  0   Radius =  0.325 angstrom
                   Q00  =   0.086089

H          x =  1.756031  y = -3.351957  z =  1.748786 angstrom
           Maximum rank =  0   Radius =  0.325 angstrom
                   Q00  =   0.038397

H          x = -1.328969  y = -2.063957  z = -2.332214 angstrom
           Maximum rank =  0   Radius =  0.325 angstrom
                   Q00  =   0.414788

H          x =  0.936031  y = -4.029957  z = -0.472214 angstrom
           Maximum rank =  0   Radius =  0.325 angstrom
                   Q00  =   0.060424

H          x =  0.711781  y = -1.744715  z =  3.910226 angstrom
           Maximum rank =  0   Radius =  0.325 angstrom
                   Q00  =   0.079671

Total multipoles referred to origin at
           x =   0.000000,  y =    0.000000,  z =    0.000000 angstrom
                   Q00  =  -1.000000

Finished at 21:5:49 on 28 Apr 2020

  DMA results are available in the Python driver through the
	  variable('DMA DISTRIBUTED MULTIPOLES')
  and
	  variable('DMA TOTAL MULTIPOLES')
  commands.

    Psi4 stopped on: Tuesday, 28 April 2020 09:05PM
    Psi4 wall time for execution: 0:06:08.47

*** Psi4 exiting successfully. Buy a developer a beer!
