                               Psi4 1.3.2 release

  ==> Input File <==

--------------------------------------------------------------------------
import numpy as np
set {scf_type pk
basis cc-pvdz
d_convergence 10
gdma_switch   0
gdma_limit    0
gdma_origin   [ 0.0,  0.0,  0.0 ]
}
molecule test {
    units Angstrom
    1 1
    --
    1 1
    C               -0.414677645632734     0.060175725019294    -3.359768902803137
    C                0.871322354367266    -0.276824274980706    -2.662768902803137
    O                0.972322354367266    -0.198824274980706    -1.439768902803137
    N                1.876322354367266    -0.645824274980706    -3.437768902803137
    H               -1.245677645632734    -0.319824274980706    -2.767768902803137
    H               -0.440677645632734    -0.422824274980706    -4.337768902803138
    H                2.761322354367266    -0.860824274980706    -3.003768902803137
    H                1.755322354367266    -0.722824274980706    -4.434768902803138
    H               -0.521260645632734     1.149365725019294    -3.470731902803137
    C               -0.723677645632734     1.930175725019294     3.186231097196863
    C               -0.668677645632734    -0.203824274980706     1.939231097196863
    N               -0.792677645632734    -0.791824274980706     0.770231097196863
    N               -0.880677645632734     1.103175725019294     1.991231097196863
    N               -0.318677645632734    -0.906824274980706     3.012231097196863
    H               -0.728677645632734    -0.250824274980706    -0.075768902803137
    H               -0.737677645632734    -1.795824274980706     0.699231097196863
    H               -1.147677645632734     1.562175725019294     1.134231097196863
    H               -0.214677645632734    -0.440824274980706     3.898231097196863
    H               -0.153677645632734    -1.897824274980706     2.939231097196863
    H                0.329322354367266     1.931175725019294     3.477231097196863
    H               -1.310677645632734     1.524175725019294     4.014231097196863
    H               -1.027677645632734     2.971429725019294     3.003541097196863

}
e, wfn = energy('scf', return_wfn=True)
gdma(wfn)
dmavals = variable('DMA DISTRIBUTED MULTIPOLES')
charges = np.array(dmavals)
print(charges)
np.save('SSI-039GLN-047ARG-1-dimer.npy', np.array(charges))--------------------------------------------------------------------------

*** tstart() called on ds3
*** at Mon Apr 27 13:12:20 2020

   => Loading Basis Set <=

    Name: CC-PVDZ
    Role: ORBITAL
    Keyword: BASIS
    atoms 1-2, 10-11 entry C          line   138 file /theoryfs2/ds/metcalf/miniconda2/envs/tf2gpu/share/psi4/basis/cc-pvdz.gbs
    atoms 3          entry O          line   198 file /theoryfs2/ds/metcalf/miniconda2/envs/tf2gpu/share/psi4/basis/cc-pvdz.gbs
    atoms 4, 12-14   entry N          line   168 file /theoryfs2/ds/metcalf/miniconda2/envs/tf2gpu/share/psi4/basis/cc-pvdz.gbs
    atoms 5-9, 15-22 entry H          line    22 file /theoryfs2/ds/metcalf/miniconda2/envs/tf2gpu/share/psi4/basis/cc-pvdz.gbs

         ---------------------------------------------------------
                                   SCF
               by Justin Turney, Rob Parrish, Andy Simmonett
                          and Daniel G. A. Smith
                              RHF Reference
                        1 Threads,    500 MiB Core
         ---------------------------------------------------------

  ==> Geometry <==

    Molecular point group: c1
    Full point group: C1

    Geometry (in Angstrom), charge = 1, multiplicity = 1:

       Center              X                  Y                   Z               Mass
    ------------   -----------------  -----------------  -----------------  -----------------
         C           -0.414677645633     0.060175725019    -3.359768902803    12.000000000000
         C            0.871322354367    -0.276824274981    -2.662768902803    12.000000000000
         O            0.972322354367    -0.198824274981    -1.439768902803    15.994914619570
         N            1.876322354367    -0.645824274981    -3.437768902803    14.003074004430
         H           -1.245677645633    -0.319824274981    -2.767768902803     1.007825032230
         H           -0.440677645633    -0.422824274981    -4.337768902803     1.007825032230
         H            2.761322354367    -0.860824274981    -3.003768902803     1.007825032230
         H            1.755322354367    -0.722824274981    -4.434768902803     1.007825032230
         H           -0.521260645633     1.149365725019    -3.470731902803     1.007825032230
         C           -0.723677645633     1.930175725019     3.186231097197    12.000000000000
         C           -0.668677645633    -0.203824274981     1.939231097197    12.000000000000
         N           -0.792677645633    -0.791824274981     0.770231097197    14.003074004430
         N           -0.880677645633     1.103175725019     1.991231097197    14.003074004430
         N           -0.318677645633    -0.906824274981     3.012231097197    14.003074004430
         H           -0.728677645633    -0.250824274981    -0.075768902803     1.007825032230
         H           -0.737677645633    -1.795824274981     0.699231097197     1.007825032230
         H           -1.147677645633     1.562175725019     1.134231097197     1.007825032230
         H           -0.214677645633    -0.440824274981     3.898231097197     1.007825032230
         H           -0.153677645633    -1.897824274981     2.939231097197     1.007825032230
         H            0.329322354367     1.931175725019     3.477231097197     1.007825032230
         H           -1.310677645633     1.524175725019     4.014231097197     1.007825032230
         H           -1.027677645633     2.971429725019     3.003541097197     1.007825032230

  Running in c1 symmetry.

  Rotational constants: A =      0.10378  B =      0.01610  C =      0.01540 [cm^-1]
  Rotational constants: A =   3111.20074  B =    482.74786  C =    461.58305 [MHz]
  Nuclear repulsion =  452.270571830074630

  Charge       = 1
  Multiplicity = 1
  Electrons    = 72
  Nalpha       = 36
  Nbeta        = 36

  ==> Algorithm <==

  SCF Algorithm Type is PK.
  DIIS enabled.
  MOM disabled.
  Fractional occupation disabled.
  Guess Type is SAD.
  Energy threshold   = 1.00e-06
  Density threshold  = 1.00e-10
  Integral threshold = 0.00e+00

  ==> Primary Basis <==

  Basis Set: CC-PVDZ
    Blend: CC-PVDZ
    Number of shells: 93
    Number of basis function: 191
    Number of Cartesian functions: 200
    Spherical Harmonics?: true
    Max angular momentum: 2

  ==> Pre-Iterations <==

   -------------------------------------------------------
    Irrep   Nso     Nmo     Nalpha   Nbeta   Ndocc  Nsocc
   -------------------------------------------------------
     A        191     191       0       0       0       0
   -------------------------------------------------------
    Total     191     191      36      36      36       0
   -------------------------------------------------------

  ==> Integral Setup <==

  Using integral reordering PK algorithm.
  Sizing the integral batches needed.
  Building batch lookup table.
   Calculation information:
      Number of atoms:                  22
      Number of AO shells:              93
      Number of primitives:            263
      Number of atomic orbitals:       200
      Number of basis functions:       191

      Integral cutoff                 1.00e-12
      Number of threads:                 1

	Batch   1 pq = [       0,    9405] index = [             0,44231715] size =     44231715
	Batch   2 pq = [    9405,   13301] index = [      44231715,88464951] size =     44233236
	Batch   3 pq = [   13301,   16290] index = [      88464951,132690195] size =     44225244
	Batch   4 pq = [   16290,   18336] index = [     132690195,168113616] size =     35423421
  Task number: 16
  Buffer size: 11059200
  Buffer per thread: 2
  We computed 6777958 shell quartets total.
  Whereas there are 9555006 unique shell quartets.

  ==> DiskJK: Disk-Based J/K Matrices <==

    J tasked:                  Yes
    K tasked:                  Yes
    wK tasked:                  No
    Memory [MiB]:              375
    Schwarz Cutoff:          1E-12

    OpenMP threads:              1

  Minimum eigenvalue in the overlap matrix is 3.8003282034E-03.
  Using Symmetric Orthogonalization.

  SCF Guess: Superposition of Atomic Densities via on-the-fly atomic UHF.

  ==> Iterations <==

                        Total Energy        Delta E     RMS |[F,P]|

   @RHF iter SAD:  -450.74918613845955   -4.50749e+02   0.00000e+00
   @RHF iter   1:  -451.34487922489757   -5.95693e-01   3.64707e-03 DIIS
   @RHF iter   2:  -451.55045383808221   -2.05575e-01   1.80728e-03 DIIS
   @RHF iter   3:  -451.59564778949073   -4.51940e-02   4.36842e-04 DIIS
   @RHF iter   4:  -451.59950633593576   -3.85855e-03   1.64043e-04 DIIS
   @RHF iter   5:  -451.60004907191330   -5.42736e-04   2.74045e-05 DIIS
   @RHF iter   6:  -451.60007945088000   -3.03790e-05   1.14439e-05 DIIS
   @RHF iter   7:  -451.60008348992926   -4.03905e-06   3.45759e-06 DIIS
   @RHF iter   8:  -451.60008413282355   -6.42894e-07   1.10286e-06 DIIS
   @RHF iter   9:  -451.60008419496415   -6.21406e-08   3.83742e-07 DIIS
   @RHF iter  10:  -451.60008420232975   -7.36560e-09   1.51139e-07 DIIS
   @RHF iter  11:  -451.60008420333583   -1.00607e-09   3.20233e-08 DIIS
   @RHF iter  12:  -451.60008420338136   -4.55316e-11   1.04934e-08 DIIS
   @RHF iter  13:  -451.60008420338556   -4.20641e-12   3.36004e-09 DIIS
   @RHF iter  14:  -451.60008420338380    1.76215e-12   9.59261e-10 DIIS
   @RHF iter  15:  -451.60008420338721   -3.41061e-12   3.61768e-10 DIIS
   @RHF iter  16:  -451.60008420338664    5.68434e-13   1.45123e-10 DIIS
   @RHF iter  17:  -451.60008420338369    2.95586e-12   5.05070e-11 DIIS
  Energy and wave function converged.

  ==> Post-Iterations <==

    Orbital Energies [Eh]
    ---------------------

    Doubly Occupied:

       1A    -20.624199     2A    -15.770792     3A    -15.763940
       4A    -15.749464     5A    -15.694421     6A    -11.565397
       7A    -11.462020     8A    -11.425638     9A    -11.348253
      10A     -1.520476    11A     -1.488127    12A     -1.380606
      13A     -1.364684    14A     -1.327436    15A     -1.121814
      16A     -1.111663    17A     -1.016564    18A     -0.952989
      19A     -0.912944    20A     -0.907983    21A     -0.842406
      22A     -0.838836    23A     -0.830719    24A     -0.798942
      25A     -0.772364    26A     -0.771782    27A     -0.724348
      28A     -0.720930    29A     -0.706774    30A     -0.688136
      31A     -0.666085    32A     -0.632752    33A     -0.593114
      34A     -0.560921    35A     -0.531565    36A     -0.519202

    Virtual:

      37A      0.012952    38A      0.042206    39A      0.048337
      40A      0.051318    41A      0.068893    42A      0.087589
      43A      0.098160    44A      0.107687    45A      0.125642
      46A      0.131331    47A      0.133731    48A      0.138519
      49A      0.160743    50A      0.185600    51A      0.193233
      52A      0.225269    53A      0.289360    54A      0.298060
      55A      0.348729    56A      0.361545    57A      0.372573
      58A      0.456676    59A      0.473975    60A      0.484979
      61A      0.523146    62A      0.534184    63A      0.540534
      64A      0.544129    65A      0.550589    66A      0.563001
      67A      0.573400    68A      0.585213    69A      0.603558
      70A      0.618871    71A      0.637141    72A      0.655088
      73A      0.700968    74A      0.716422    75A      0.721794
      76A      0.725631    77A      0.726370    78A      0.753640
      79A      0.760374    80A      0.782153    81A      0.793031
      82A      0.796614    83A      0.808856    84A      0.833447
      85A      0.843822    86A      0.860301    87A      0.873928
      88A      0.893640    89A      0.906007    90A      0.929148
      91A      0.945064    92A      0.957824    93A      0.964510
      94A      1.010499    95A      1.020093    96A      1.048608
      97A      1.074097    98A      1.111143    99A      1.148764
     100A      1.163749   101A      1.206557   102A      1.222706
     103A      1.230946   104A      1.234878   105A      1.267426
     106A      1.292141   107A      1.308678   108A      1.322236
     109A      1.356868   110A      1.375140   111A      1.409775
     112A      1.439961   113A      1.486547   114A      1.516527
     115A      1.528004   116A      1.537058   117A      1.545370
     118A      1.548644   119A      1.576562   120A      1.618303
     121A      1.638951   122A      1.682301   123A      1.716517
     124A      1.734220   125A      1.744105   126A      1.748049
     127A      1.759135   128A      1.765184   129A      1.776969
     130A      1.791426   131A      1.797574   132A      1.805856
     133A      1.809904   134A      1.830840   135A      1.846025
     136A      1.861115   137A      1.873668   138A      1.883594
     139A      1.904234   140A      1.953264   141A      1.966804
     142A      2.020033   143A      2.038478   144A      2.056207
     145A      2.091077   146A      2.112344   147A      2.115874
     148A      2.155556   149A      2.176385   150A      2.204062
     151A      2.254201   152A      2.290134   153A      2.305795
     154A      2.317378   155A      2.332350   156A      2.354578
     157A      2.355453   158A      2.370645   159A      2.418798
     160A      2.441667   161A      2.446331   162A      2.465913
     163A      2.500814   164A      2.524824   165A      2.571212
     166A      2.609023   167A      2.631551   168A      2.640888
     169A      2.655454   170A      2.658176   171A      2.694518
     172A      2.716464   173A      2.740325   174A      2.774019
     175A      2.807925   176A      2.846320   177A      2.863055
     178A      2.877330   179A      2.929500   180A      2.972968
     181A      3.013756   182A      3.084220   183A      3.129445
     184A      3.149903   185A      3.188358   186A      3.390503
     187A      3.417439   188A      3.599467   189A      3.645764
     190A      3.768048   191A      3.796235

    Final Occupation by Irrep:
              A
    DOCC [    36 ]

  @RHF Final Energy:  -451.60008420338369

   => Energetics <=

    Nuclear Repulsion Energy =            452.2705718300746298
    One-Electron Energy =               -1500.3247399412828145
    Two-Electron Energy =                 596.4540839078244971
    Total Energy =                       -451.6000842033836307

Computation Completed

Properties will be evaluated at   0.000000,   0.000000,   0.000000 [a0]

Properties computed using the SCF density matrix

  Nuclear Dipole Moment: [e a0]
     X:    -2.5097      Y:     2.2776      Z:     0.9944

  Electronic Dipole Moment: [e a0]
     X:     1.8221      Y:    -2.5702      Z:     0.4533

  Dipole Moment: [e a0]
     X:    -0.6875      Y:    -0.2926      Z:     1.4477     Total:     1.6292

  Dipole Moment: [D]
     X:    -1.7475      Y:    -0.7437      Z:     3.6798     Total:     4.1410

*** tstop() called on ds3 at Mon Apr 27 13:13:36 2020
Module time:
	user time   =      51.28 seconds =       0.85 minutes
	system time =      29.10 seconds =       0.49 minutes
	total time  =         76 seconds =       1.27 minutes
Total time:
	user time   =      51.28 seconds =       0.85 minutes
	system time =      29.10 seconds =       0.49 minutes
	total time  =         76 seconds =       1.27 minutes
                                     G D M A

                                 by Anthony Stone

                           version 2.2.06, 22 June 2011

               Distributed Multipoles from Gaussian wavefunctions

Starting at 13:13:36 on 27 Apr 2020

Using SCF density matrix from file ./SSI/SSI-039GLN-047ARG-1-dimer.test.5761.fchk

                         Distributed Multipole Analysis

Standard DMA

Positions and radii in angstrom
Multipole moments in atomic units, ea_0^k for rank k

C          x = -0.414678  y =  0.060176  z = -3.359769 angstrom
           Maximum rank =  0   Radius =  0.650 angstrom
                   Q00  =  -0.263973

C          x =  0.871322  y = -0.276824  z = -2.662769 angstrom
           Maximum rank =  0   Radius =  0.650 angstrom
                   Q00  =   0.819466

O          x =  0.972322  y = -0.198824  z = -1.439769 angstrom
           Maximum rank =  0   Radius =  0.650 angstrom
                   Q00  =  -0.821698

N          x =  1.876322  y = -0.645824  z = -3.437769 angstrom
           Maximum rank =  0   Radius =  0.650 angstrom
                   Q00  =  -0.540063

H          x = -1.245678  y = -0.319824  z = -2.767769 angstrom
           Maximum rank =  0   Radius =  0.325 angstrom
                   Q00  =   0.112599

H          x = -0.440678  y = -0.422824  z = -4.337769 angstrom
           Maximum rank =  0   Radius =  0.325 angstrom
                   Q00  =   0.104339

H          x =  2.761322  y = -0.860824  z = -3.003769 angstrom
           Maximum rank =  0   Radius =  0.325 angstrom
                   Q00  =   0.235320

H          x =  1.755322  y = -0.722824  z = -4.434769 angstrom
           Maximum rank =  0   Radius =  0.325 angstrom
                   Q00  =   0.229197

H          x = -0.521261  y =  1.149366  z = -3.470732 angstrom
           Maximum rank =  0   Radius =  0.325 angstrom
                   Q00  =   0.141431

C          x = -0.723678  y =  1.930176  z =  3.186231 angstrom
           Maximum rank =  0   Radius =  0.650 angstrom
                   Q00  =  -0.124710

C          x = -0.668678  y = -0.203824  z =  1.939231 angstrom
           Maximum rank =  0   Radius =  0.650 angstrom
                   Q00  =   1.078513

N          x = -0.792678  y = -0.791824  z =  0.770231 angstrom
           Maximum rank =  0   Radius =  0.650 angstrom
                   Q00  =  -0.578669

N          x = -0.880678  y =  1.103176  z =  1.991231 angstrom
           Maximum rank =  0   Radius =  0.650 angstrom
                   Q00  =  -0.487683

N          x = -0.318678  y = -0.906824  z =  3.012231 angstrom
           Maximum rank =  0   Radius =  0.650 angstrom
                   Q00  =  -0.587537

H          x = -0.728678  y = -0.250824  z = -0.075769 angstrom
           Maximum rank =  0   Radius =  0.325 angstrom
                   Q00  =   0.279216

H          x = -0.737678  y = -1.795824  z =  0.699231 angstrom
           Maximum rank =  0   Radius =  0.325 angstrom
                   Q00  =   0.250127

H          x = -1.147678  y =  1.562176  z =  1.134231 angstrom
           Maximum rank =  0   Radius =  0.325 angstrom
                   Q00  =   0.235692

H          x = -0.214678  y = -0.440824  z =  3.898231 angstrom
           Maximum rank =  0   Radius =  0.325 angstrom
                   Q00  =   0.265556

H          x = -0.153678  y = -1.897824  z =  2.939231 angstrom
           Maximum rank =  0   Radius =  0.325 angstrom
                   Q00  =   0.268033

H          x =  0.329322  y =  1.931176  z =  3.477231 angstrom
           Maximum rank =  0   Radius =  0.325 angstrom
                   Q00  =   0.112281

H          x = -1.310678  y =  1.524176  z =  4.014231 angstrom
           Maximum rank =  0   Radius =  0.325 angstrom
                   Q00  =   0.109561

H          x = -1.027678  y =  2.971430  z =  3.003541 angstrom
           Maximum rank =  0   Radius =  0.325 angstrom
                   Q00  =   0.163002

Total multipoles referred to origin at
           x =   0.000000,  y =    0.000000,  z =    0.000000 angstrom
                   Q00  =   1.000000

Finished at 13:13:36 on 27 Apr 2020

  DMA results are available in the Python driver through the
	  variable('DMA DISTRIBUTED MULTIPOLES')
  and
	  variable('DMA TOTAL MULTIPOLES')
  commands.

    Psi4 stopped on: Monday, 27 April 2020 01:13PM
    Psi4 wall time for execution: 0:01:16.38

*** Psi4 exiting successfully. Buy a developer a beer!
