                               Psi4 1.3.2 release

  ==> Input File <==

--------------------------------------------------------------------------
import numpy as np
set {scf_type pk
basis cc-pvdz
d_convergence 10
gdma_switch   0
gdma_limit    0
gdma_origin   [ 0.0,  0.0,  0.0 ]
}
molecule test {
    units Angstrom
    -1 1
    --
    -1 1
    C                1.451543587068672     1.516861201010143     0.817532502804100
    C                0.278543587068672     1.253861201010143     1.712532502804100
    O               -0.760456412931328     1.883861201010143     1.565532502804100
    N                0.416543587068672     0.299861201010143     2.640532502804100
    H                1.471543587068673     0.761861201010143     0.034532502804100
    H                2.368543587068672     1.405861201010143     1.396532502804100
    H               -0.366456412931328     0.095861201010143     3.240532502804100
    H                1.271543587068672    -0.231138798989857     2.701532502804100
    H                1.443633587068672     2.521081201010142     0.368652502804100
    C               -1.080456412931327    -2.281138798989858    -2.377467497195900
    C               -0.302456412931328    -1.161138798989857    -1.670467497195900
    O               -0.591456412931328    -0.933138798989857    -0.474467497195900
    O                0.584543587068672    -0.510138798989857    -2.273467497195900
    H               -2.141456412931328    -2.125138798989858    -2.181467497195900
    H               -0.812456412931328    -3.245138798989858    -1.939467497195900
    H               -0.977536412931328    -2.345913798989857    -3.470727497195900

}
e, wfn = energy('scf', return_wfn=True)
gdma(wfn)
dmavals = variable('DMA DISTRIBUTED MULTIPOLES')
charges = np.array(dmavals)
print(charges)
np.save('SSI-037ASN-067GLU-1-dimer.npy', np.array(charges))--------------------------------------------------------------------------

*** tstart() called on ds3
*** at Mon Apr 27 17:44:23 2020

   => Loading Basis Set <=

    Name: CC-PVDZ
    Role: ORBITAL
    Keyword: BASIS
    atoms 1-2, 10-11 entry C          line   138 file /theoryfs2/ds/metcalf/miniconda2/envs/tf2gpu/share/psi4/basis/cc-pvdz.gbs
    atoms 3, 12-13   entry O          line   198 file /theoryfs2/ds/metcalf/miniconda2/envs/tf2gpu/share/psi4/basis/cc-pvdz.gbs
    atoms 4          entry N          line   168 file /theoryfs2/ds/metcalf/miniconda2/envs/tf2gpu/share/psi4/basis/cc-pvdz.gbs
    atoms 5-9, 14-16 entry H          line    22 file /theoryfs2/ds/metcalf/miniconda2/envs/tf2gpu/share/psi4/basis/cc-pvdz.gbs

         ---------------------------------------------------------
                                   SCF
               by Justin Turney, Rob Parrish, Andy Simmonett
                          and Daniel G. A. Smith
                              RHF Reference
                        1 Threads,    500 MiB Core
         ---------------------------------------------------------

  ==> Geometry <==

    Molecular point group: c1
    Full point group: C1

    Geometry (in Angstrom), charge = -1, multiplicity = 1:

       Center              X                  Y                   Z               Mass
    ------------   -----------------  -----------------  -----------------  -----------------
         C            1.451543587069     1.516861201010     0.817532502804    12.000000000000
         C            0.278543587069     1.253861201010     1.712532502804    12.000000000000
         O           -0.760456412931     1.883861201010     1.565532502804    15.994914619570
         N            0.416543587069     0.299861201010     2.640532502804    14.003074004430
         H            1.471543587069     0.761861201010     0.034532502804     1.007825032230
         H            2.368543587069     1.405861201010     1.396532502804     1.007825032230
         H           -0.366456412931     0.095861201010     3.240532502804     1.007825032230
         H            1.271543587069    -0.231138798990     2.701532502804     1.007825032230
         H            1.443633587069     2.521081201010     0.368652502804     1.007825032230
         C           -1.080456412931    -2.281138798990    -2.377467497196    12.000000000000
         C           -0.302456412931    -1.161138798990    -1.670467497196    12.000000000000
         O           -0.591456412931    -0.933138798990    -0.474467497196    15.994914619570
         O            0.584543587069    -0.510138798990    -2.273467497196    15.994914619570
         H           -2.141456412931    -2.125138798990    -2.181467497196     1.007825032230
         H           -0.812456412931    -3.245138798990    -1.939467497196     1.007825032230
         H           -0.977536412931    -2.345913798990    -3.470727497196     1.007825032230

  Running in c1 symmetry.

  Rotational constants: A =      0.12215  B =      0.02679  C =      0.02495 [cm^-1]
  Rotational constants: A =   3661.82467  B =    803.17059  C =    748.11662 [MHz]
  Nuclear repulsion =  354.253554785927975

  Charge       = -1
  Multiplicity = 1
  Electrons    = 64
  Nalpha       = 32
  Nbeta        = 32

  ==> Algorithm <==

  SCF Algorithm Type is PK.
  DIIS enabled.
  MOM disabled.
  Fractional occupation disabled.
  Guess Type is SAD.
  Energy threshold   = 1.00e-06
  Density threshold  = 1.00e-10
  Integral threshold = 0.00e+00

  ==> Primary Basis <==

  Basis Set: CC-PVDZ
    Blend: CC-PVDZ
    Number of shells: 72
    Number of basis function: 152
    Number of Cartesian functions: 160
    Spherical Harmonics?: true
    Max angular momentum: 2

  ==> Pre-Iterations <==

   -------------------------------------------------------
    Irrep   Nso     Nmo     Nalpha   Nbeta   Ndocc  Nsocc
   -------------------------------------------------------
     A        152     152       0       0       0       0
   -------------------------------------------------------
    Total     152     152      32      32      32       0
   -------------------------------------------------------

  ==> Integral Setup <==

  Using integral reordering PK algorithm.
  Sizing the integral batches needed.
  Building batch lookup table.
   Calculation information:
      Number of atoms:                  16
      Number of AO shells:              72
      Number of primitives:            216
      Number of atomic orbitals:       160
      Number of basis functions:       152

      Integral cutoff                 1.00e-12
      Number of threads:                 1

	Batch   1 pq = [       0,    9405] index = [             0,44231715] size =     44231715
	Batch   2 pq = [    9405,   11628] index = [      44231715,67611006] size =     23379291
  Task number: 7
  Buffer size: 11059200
  Buffer per thread: 2
  We computed 2704438 shell quartets total.
  Whereas there are 3454506 unique shell quartets.

  ==> DiskJK: Disk-Based J/K Matrices <==

    J tasked:                  Yes
    K tasked:                  Yes
    wK tasked:                  No
    Memory [MiB]:              375
    Schwarz Cutoff:          1E-12

    OpenMP threads:              1

  Minimum eigenvalue in the overlap matrix is 4.3804158483E-03.
  Using Symmetric Orthogonalization.

  SCF Guess: Superposition of Atomic Densities via on-the-fly atomic UHF.

  ==> Iterations <==

                        Total Energy        Delta E     RMS |[F,P]|

   @RHF iter SAD:  -433.41095039220858   -4.33411e+02   0.00000e+00
   @RHF iter   1:  -434.90393069886562   -1.49298e+00   5.53875e-03 DIIS
   @RHF iter   2:  -435.14815233279853   -2.44222e-01   3.30327e-03 DIIS
   @RHF iter   3:  -435.23643640050670   -8.82841e-02   4.94355e-04 DIIS
   @RHF iter   4:  -435.23999747547151   -3.56107e-03   1.93596e-04 DIIS
   @RHF iter   5:  -435.24062174209462   -6.24267e-04   4.23552e-05 DIIS
   @RHF iter   6:  -435.24065836696826   -3.66249e-05   2.25022e-05 DIIS
   @RHF iter   7:  -435.24066703545645   -8.66849e-06   6.19754e-06 DIIS
   @RHF iter   8:  -435.24066837712581   -1.34167e-06   2.51032e-06 DIIS
   @RHF iter   9:  -435.24066856441317   -1.87287e-07   9.19071e-07 DIIS
   @RHF iter  10:  -435.24066858936919   -2.49560e-08   2.50393e-07 DIIS
   @RHF iter  11:  -435.24066859097849   -1.60929e-09   8.15668e-08 DIIS
   @RHF iter  12:  -435.24066859107648   -9.79981e-11   3.24983e-08 DIIS
   @RHF iter  13:  -435.24066859109757   -2.10889e-11   8.22527e-09 DIIS
   @RHF iter  14:  -435.24066859109990   -2.33058e-12   3.02575e-09 DIIS
   @RHF iter  15:  -435.24066859110047   -5.68434e-13   1.21359e-09 DIIS
   @RHF iter  16:  -435.24066859110013    3.41061e-13   5.02642e-10 DIIS
   @RHF iter  17:  -435.24066859109956    5.68434e-13   1.73629e-10 DIIS
   @RHF iter  18:  -435.24066859110104   -1.47793e-12   7.06995e-11 DIIS
  Energy and wave function converged.

  ==> Post-Iterations <==

    Orbital Energies [Eh]
    ---------------------

    Doubly Occupied:

       1A    -20.362519     2A    -20.262771     3A    -20.260402
       4A    -15.452646     5A    -11.206853     6A    -11.120642
       7A    -11.089880     8A    -11.055919     9A     -1.228022
      10A     -1.150253    11A     -1.077285    12A     -1.034710
      13A     -0.855590    14A     -0.797466    15A     -0.658970
      16A     -0.591437    17A     -0.515228    18A     -0.505651
      19A     -0.462451    20A     -0.433486    21A     -0.414022
      22A     -0.412374    23A     -0.408750    24A     -0.401862
      25A     -0.371433    26A     -0.341897    27A     -0.306365
      28A     -0.269411    29A     -0.267321    30A     -0.186670
      31A     -0.171847    32A     -0.161860

    Virtual:

      33A      0.293213    34A      0.339424    35A      0.350182
      36A      0.353543    37A      0.368718    38A      0.390737
      39A      0.395001    40A      0.412486    41A      0.481366
      42A      0.490913    43A      0.525709    44A      0.571512
      45A      0.600702    46A      0.679815    47A      0.705369
      48A      0.714570    49A      0.776356    50A      0.803899
      51A      0.816243    52A      0.840467    53A      0.863542
      54A      0.868384    55A      0.878564    56A      0.917671
      57A      0.940924    58A      0.965633    59A      0.987608
      60A      1.022325    61A      1.032576    62A      1.034406
      63A      1.044102    64A      1.060356    65A      1.064581
      66A      1.077610    67A      1.107211    68A      1.130027
      69A      1.152118    70A      1.182430    71A      1.191986
      72A      1.223420    73A      1.250500    74A      1.283706
      75A      1.336719    76A      1.352331    77A      1.426018
      78A      1.461478    79A      1.482149    80A      1.501430
      81A      1.517368    82A      1.541160    83A      1.553550
      84A      1.557201    85A      1.588911    86A      1.601039
      87A      1.628231    88A      1.649726    89A      1.675528
      90A      1.716953    91A      1.729297    92A      1.806295
      93A      1.820047    94A      1.848740    95A      1.850365
      96A      1.895942    97A      1.953654    98A      2.009385
      99A      2.016222   100A      2.027323   101A      2.050526
     102A      2.063279   103A      2.076837   104A      2.111493
     105A      2.112295   106A      2.123591   107A      2.148199
     108A      2.176548   109A      2.226996   110A      2.230875
     111A      2.242499   112A      2.311985   113A      2.333593
     114A      2.368262   115A      2.411141   116A      2.431781
     117A      2.454514   118A      2.558948   119A      2.580205
     120A      2.604710   121A      2.647908   122A      2.651346
     123A      2.670295   124A      2.700965   125A      2.727583
     126A      2.764902   127A      2.786399   128A      2.856422
     129A      2.903308   130A      2.906737   131A      2.962405
     132A      2.969923   133A      2.993389   134A      3.012460
     135A      3.113974   136A      3.231481   137A      3.241677
     138A      3.278743   139A      3.281528   140A      3.293057
     141A      3.362604   142A      3.426793   143A      3.637263
     144A      3.647198   145A      3.685031   146A      3.772239
     147A      3.814852   148A      4.005633   149A      4.040992
     150A      4.055188   151A      4.083695   152A      4.211712

    Final Occupation by Irrep:
              A
    DOCC [    32 ]

  @RHF Final Energy:  -435.24066859110104

   => Energetics <=

    Nuclear Repulsion Energy =            354.2535547859279745
    One-Electron Energy =               -1311.3164631365816604
    Two-Electron Energy =                 521.8222397595527582
    Total Energy =                       -435.2406685911009845

Computation Completed

Properties will be evaluated at   0.000000,   0.000000,   0.000000 [a0]

Properties computed using the SCF density matrix

  Nuclear Dipole Moment: [e a0]
     X:     2.1113      Y:    -2.9637      Z:     0.1274

  Electronic Dipole Moment: [e a0]
     X:    -1.1710      Y:     2.7644      Z:     2.2849

  Dipole Moment: [e a0]
     X:     0.9403      Y:    -0.1993      Z:     2.4123     Total:     2.5967

  Dipole Moment: [D]
     X:     2.3899      Y:    -0.5066      Z:     6.1314     Total:     6.6001

*** tstop() called on ds3 at Mon Apr 27 17:44:59 2020
Module time:
	user time   =      24.30 seconds =       0.40 minutes
	system time =      12.43 seconds =       0.21 minutes
	total time  =         36 seconds =       0.60 minutes
Total time:
	user time   =      24.30 seconds =       0.40 minutes
	system time =      12.43 seconds =       0.21 minutes
	total time  =         36 seconds =       0.60 minutes
                                     G D M A

                                 by Anthony Stone

                           version 2.2.06, 22 June 2011

               Distributed Multipoles from Gaussian wavefunctions

Starting at 17:44:59 on 27 Apr 2020

Using SCF density matrix from file ./SSI/SSI-037ASN-067GLU-1-dimer.test.11261.fchk

                         Distributed Multipole Analysis

Standard DMA

Positions and radii in angstrom
Multipole moments in atomic units, ea_0^k for rank k

C          x =  1.451544  y =  1.516861  z =  0.817533 angstrom
           Maximum rank =  0   Radius =  0.650 angstrom
                   Q00  =  -0.220950

C          x =  0.278544  y =  1.253861  z =  1.712533 angstrom
           Maximum rank =  0   Radius =  0.650 angstrom
                   Q00  =   0.839309

O          x = -0.760456  y =  1.883861  z =  1.565533 angstrom
           Maximum rank =  0   Radius =  0.650 angstrom
                   Q00  =  -0.792464

N          x =  0.416544  y =  0.299861  z =  2.640533 angstrom
           Maximum rank =  0   Radius =  0.650 angstrom
                   Q00  =  -0.512524

H          x =  1.471544  y =  0.761861  z =  0.034533 angstrom
           Maximum rank =  0   Radius =  0.325 angstrom
                   Q00  =   0.153488

H          x =  2.368544  y =  1.405861  z =  1.396533 angstrom
           Maximum rank =  0   Radius =  0.325 angstrom
                   Q00  =   0.028139

H          x = -0.366456  y =  0.095861  z =  3.240533 angstrom
           Maximum rank =  0   Radius =  0.325 angstrom
                   Q00  =   0.197324

H          x =  1.271544  y = -0.231139  z =  2.701533 angstrom
           Maximum rank =  0   Radius =  0.325 angstrom
                   Q00  =   0.190662

H          x =  1.443634  y =  2.521081  z =  0.368653 angstrom
           Maximum rank =  0   Radius =  0.325 angstrom
                   Q00  =   0.102009

C          x = -1.080456  y = -2.281139  z = -2.377467 angstrom
           Maximum rank =  0   Radius =  0.650 angstrom
                   Q00  =  -0.261752

C          x = -0.302456  y = -1.161139  z = -1.670467 angstrom
           Maximum rank =  0   Radius =  0.650 angstrom
                   Q00  =   0.911672

O          x = -0.591456  y = -0.933139  z = -0.474467 angstrom
           Maximum rank =  0   Radius =  0.650 angstrom
                   Q00  =  -0.913292

O          x =  0.584544  y = -0.510139  z = -2.273467 angstrom
           Maximum rank =  0   Radius =  0.650 angstrom
                   Q00  =  -0.906957

H          x = -2.141456  y = -2.125139  z = -2.181467 angstrom
           Maximum rank =  0   Radius =  0.325 angstrom
                   Q00  =   0.067644

H          x = -0.812456  y = -3.245139  z = -1.939467 angstrom
           Maximum rank =  0   Radius =  0.325 angstrom
                   Q00  =   0.071275

H          x = -0.977536  y = -2.345914  z = -3.470728 angstrom
           Maximum rank =  0   Radius =  0.325 angstrom
                   Q00  =   0.046417

Total multipoles referred to origin at
           x =   0.000000,  y =    0.000000,  z =    0.000000 angstrom
                   Q00  =  -1.000000

Finished at 17:44:59 on 27 Apr 2020

  DMA results are available in the Python driver through the
	  variable('DMA DISTRIBUTED MULTIPOLES')
  and
	  variable('DMA TOTAL MULTIPOLES')
  commands.

    Psi4 stopped on: Monday, 27 April 2020 05:44PM
    Psi4 wall time for execution: 0:00:35.57

*** Psi4 exiting successfully. Buy a developer a beer!
