                               Psi4 1.3.2 release

  ==> Input File <==

--------------------------------------------------------------------------
import numpy as np
set {scf_type pk
basis cc-pvdz
d_convergence 10
gdma_switch   0
gdma_limit    0
gdma_origin   [ 0.0,  0.0,  0.0 ]
}
molecule test {
    units Angstrom
    0 1
    --
    0 1
    C               -2.530375816236756     0.604476522224913    -2.851310307746000
    C               -0.280375816236756    -1.885523477775087    -1.471310307746000
    C               -1.368375816236756    -0.181523477775087    -2.333310307746000
    C               -0.054375816236756     0.156476522224913    -2.261310307746000
    N               -1.487375816236756    -1.466523477775087    -1.841310307746000
    N                0.603624183763244    -0.924523477775087    -1.717310307746000
    H               -0.048375816236756    -2.855523477775087    -1.047310307746000
    H                1.608624183763244    -0.994523477775087    -1.541310307746000
    H                0.388624183763244     1.085476522224913    -2.591310307746000
    H               -3.033375816236756     0.010476522224913    -3.615310307746000
    H               -2.141375816236756     1.506476522224913    -3.327310307746000
    H               -3.257394816236756     0.892116522224913    -2.077550307746000
    C               -0.576375816236756     1.988476522224913     1.126689692254000
    C                0.353624183763244    -0.340523477775087     1.759689692254000
    C                0.351624183763244     1.016476522224913     1.784689692254000
    C                2.106624183763245     0.323476522224913     2.915689692254000
    N                1.450624183763245    -0.750523477775087     2.487689692254000
    N                1.467624183763244     1.414476522224913     2.498689692254000
    H               -0.372375816236756    -0.966523477775087     1.255689692254000
    H                1.734624183763244    -1.709523477775087     2.656689692254000
    H               -1.245375816236756     1.441476522224913     0.464689692254000
    H                0.029624183763244     2.644476522224913     0.500689692254000
    H                3.019624183763244     0.310476522224913     3.502689692254000
    H               -1.160935816236756     2.606916522224913     1.823699692254000

}
e, wfn = energy('scf', return_wfn=True)
gdma(wfn)
dmavals = variable('DMA DISTRIBUTED MULTIPOLES')
charges = np.array(dmavals)
print(charges)
np.save('SSI-044HIE-067HIE-1-dimer.npy', np.array(charges))--------------------------------------------------------------------------

*** tstart() called on ds3
*** at Mon Apr 27 16:45:36 2020

   => Loading Basis Set <=

    Name: CC-PVDZ
    Role: ORBITAL
    Keyword: BASIS
    atoms 1-4, 13-16  entry C          line   138 file /theoryfs2/ds/metcalf/miniconda2/envs/tf2gpu/share/psi4/basis/cc-pvdz.gbs
    atoms 5-6, 17-18  entry N          line   168 file /theoryfs2/ds/metcalf/miniconda2/envs/tf2gpu/share/psi4/basis/cc-pvdz.gbs
    atoms 7-12, 19-24 entry H          line    22 file /theoryfs2/ds/metcalf/miniconda2/envs/tf2gpu/share/psi4/basis/cc-pvdz.gbs

         ---------------------------------------------------------
                                   SCF
               by Justin Turney, Rob Parrish, Andy Simmonett
                          and Daniel G. A. Smith
                              RHF Reference
                        1 Threads,    500 MiB Core
         ---------------------------------------------------------

  ==> Geometry <==

    Molecular point group: c1
    Full point group: C1

    Geometry (in Angstrom), charge = 0, multiplicity = 1:

       Center              X                  Y                   Z               Mass
    ------------   -----------------  -----------------  -----------------  -----------------
         C           -2.530375816237     0.604476522225    -2.851310307746    12.000000000000
         C           -0.280375816237    -1.885523477775    -1.471310307746    12.000000000000
         C           -1.368375816237    -0.181523477775    -2.333310307746    12.000000000000
         C           -0.054375816237     0.156476522225    -2.261310307746    12.000000000000
         N           -1.487375816237    -1.466523477775    -1.841310307746    14.003074004430
         N            0.603624183763    -0.924523477775    -1.717310307746    14.003074004430
         H           -0.048375816237    -2.855523477775    -1.047310307746     1.007825032230
         H            1.608624183763    -0.994523477775    -1.541310307746     1.007825032230
         H            0.388624183763     1.085476522225    -2.591310307746     1.007825032230
         H           -3.033375816237     0.010476522225    -3.615310307746     1.007825032230
         H           -2.141375816237     1.506476522225    -3.327310307746     1.007825032230
         H           -3.257394816237     0.892116522225    -2.077550307746     1.007825032230
         C           -0.576375816237     1.988476522225     1.126689692254    12.000000000000
         C            0.353624183763    -0.340523477775     1.759689692254    12.000000000000
         C            0.351624183763     1.016476522225     1.784689692254    12.000000000000
         C            2.106624183763     0.323476522225     2.915689692254    12.000000000000
         N            1.450624183763    -0.750523477775     2.487689692254    14.003074004430
         N            1.467624183763     1.414476522225     2.498689692254    14.003074004430
         H           -0.372375816237    -0.966523477775     1.255689692254     1.007825032230
         H            1.734624183763    -1.709523477775     2.656689692254     1.007825032230
         H           -1.245375816237     1.441476522225     0.464689692254     1.007825032230
         H            0.029624183763     2.644476522225     0.500689692254     1.007825032230
         H            3.019624183763     0.310476522225     3.502689692254     1.007825032230
         H           -1.160935816237     2.606916522225     1.823699692254     1.007825032230

  Running in c1 symmetry.

  Rotational constants: A =      0.05757  B =      0.01584  C =      0.01378 [cm^-1]
  Rotational constants: A =   1725.85686  B =    474.97184  C =    413.11354 [MHz]
  Nuclear repulsion =  658.780748046756798

  Charge       = 0
  Multiplicity = 1
  Electrons    = 88
  Nalpha       = 44
  Nbeta        = 44

  ==> Algorithm <==

  SCF Algorithm Type is PK.
  DIIS enabled.
  MOM disabled.
  Fractional occupation disabled.
  Guess Type is SAD.
  Energy threshold   = 1.00e-06
  Density threshold  = 1.00e-10
  Integral threshold = 0.00e+00

  ==> Primary Basis <==

  Basis Set: CC-PVDZ
    Blend: CC-PVDZ
    Number of shells: 108
    Number of basis function: 228
    Number of Cartesian functions: 240
    Spherical Harmonics?: true
    Max angular momentum: 2

  ==> Pre-Iterations <==

   -------------------------------------------------------
    Irrep   Nso     Nmo     Nalpha   Nbeta   Ndocc  Nsocc
   -------------------------------------------------------
     A        228     228       0       0       0       0
   -------------------------------------------------------
    Total     228     228      44      44      44       0
   -------------------------------------------------------

  ==> Integral Setup <==

  Using integral reordering PK algorithm.
  Sizing the integral batches needed.
  Building batch lookup table.
   Calculation information:
      Number of atoms:                  24
      Number of AO shells:             108
      Number of primitives:            324
      Number of atomic orbitals:       240
      Number of basis functions:       228

      Integral cutoff                 1.00e-12
      Number of threads:                 1

	Batch   1 pq = [       0,    9405] index = [             0,44231715] size =     44231715
	Batch   2 pq = [    9405,   13301] index = [      44231715,88464951] size =     44233236
	Batch   3 pq = [   13301,   16290] index = [      88464951,132690195] size =     44225244
	Batch   4 pq = [   16290,   18810] index = [     132690195,176917455] size =     44227260
	Batch   5 pq = [   18810,   21030] index = [     176917455,221140965] size =     44223510
	Batch   6 pq = [   21030,   23037] index = [     221140965,265363203] size =     44222238
	Batch   7 pq = [   23037,   24883] index = [     265363203,309594286] size =     44231083
	Batch   8 pq = [   24883,   26106] index = [     309594286,340774671] size =     31180385
  Task number: 31
  Buffer size: 11059200
  Buffer per thread: 2
  We computed 16417438 shell quartets total.
  Whereas there are 17325441 unique shell quartets.

  ==> DiskJK: Disk-Based J/K Matrices <==

    J tasked:                  Yes
    K tasked:                  Yes
    wK tasked:                  No
    Memory [MiB]:              375
    Schwarz Cutoff:          1E-12

    OpenMP threads:              1

  Minimum eigenvalue in the overlap matrix is 1.1693927891E-03.
  Using Symmetric Orthogonalization.

  SCF Guess: Superposition of Atomic Densities via on-the-fly atomic UHF.

  ==> Iterations <==

                        Total Energy        Delta E     RMS |[F,P]|

   @RHF iter SAD:  -527.04379445368727   -5.27044e+02   0.00000e+00
   @RHF iter   1:  -527.46915370127192   -4.25359e-01   2.88088e-03 DIIS
   @RHF iter   2:  -527.67942268389072   -2.10269e-01   1.59108e-03 DIIS
   @RHF iter   3:  -527.73933980934066   -5.99171e-02   3.99475e-04 DIIS
   @RHF iter   4:  -527.74439266864272   -5.05286e-03   1.43968e-04 DIIS
   @RHF iter   5:  -527.74503607403324   -6.43405e-04   2.64618e-05 DIIS
   @RHF iter   6:  -527.74507182681032   -3.57528e-05   1.21263e-05 DIIS
   @RHF iter   7:  -527.74507961458187   -7.78777e-06   4.42912e-06 DIIS
   @RHF iter   8:  -527.74508137339592   -1.75881e-06   1.62446e-06 DIIS
   @RHF iter   9:  -527.74508167353633   -3.00140e-07   6.41066e-07 DIIS
   @RHF iter  10:  -527.74508170063336   -2.70970e-08   2.09298e-07 DIIS
   @RHF iter  11:  -527.74508170490174   -4.26837e-09   7.12684e-08 DIIS
   @RHF iter  12:  -527.74508170532567   -4.23938e-10   3.55001e-08 DIIS
   @RHF iter  13:  -527.74508170539605   -7.03722e-11   1.18619e-08 DIIS
   @RHF iter  14:  -527.74508170541253   -1.64846e-11   4.91104e-09 DIIS
   @RHF iter  15:  -527.74508170540912    3.41061e-12   1.90221e-09 DIIS
   @RHF iter  16:  -527.74508170541583   -6.70752e-12   5.78009e-10 DIIS
   @RHF iter  17:  -527.74508170541276    3.06954e-12   2.52106e-10 DIIS
   @RHF iter  18:  -527.74508170540946    3.29692e-12   5.16548e-11 DIIS
  Energy and wave function converged.

  ==> Post-Iterations <==

    Orbital Energies [Eh]
    ---------------------

    Doubly Occupied:

       1A    -15.623082     2A    -15.621622     3A    -15.531921
       4A    -15.528142     5A    -11.296065     6A    -11.293507
       7A    -11.252810     8A    -11.248167     9A    -11.243347
      10A    -11.239250    11A    -11.225438    12A    -11.218169
      13A     -1.342790    14A     -1.340069    15A     -1.154579
      16A     -1.151964    17A     -1.033897    18A     -1.028906
      19A     -0.942480    20A     -0.937727    21A     -0.818645
      22A     -0.817457    23A     -0.763750    24A     -0.759713
      25A     -0.742229    26A     -0.739616    27A     -0.612576
      28A     -0.611549    29A     -0.606295    30A     -0.600388
      31A     -0.597740    32A     -0.591591    33A     -0.553921
      34A     -0.548880    35A     -0.543080    36A     -0.537382
      37A     -0.522583    38A     -0.516434    39A     -0.414248
      40A     -0.410444    41A     -0.380167    42A     -0.376769
      43A     -0.313206    44A     -0.307331

    Virtual:

      45A      0.158470    46A      0.178353    47A      0.181977
      48A      0.188578    49A      0.194060    50A      0.213483
      51A      0.218629    52A      0.225701    53A      0.227501
      54A      0.232030    55A      0.235665    56A      0.261250
      57A      0.280383    58A      0.291032    59A      0.312800
      60A      0.329829    61A      0.370566    62A      0.384840
      63A      0.389417    64A      0.394926    65A      0.414161
      66A      0.422617    67A      0.471742    68A      0.479271
      69A      0.492028    70A      0.505853    71A      0.577912
      72A      0.607078    73A      0.615044    74A      0.619622
      75A      0.631823    76A      0.649631    77A      0.661720
      78A      0.674920    79A      0.691320    80A      0.703729
      81A      0.713868    82A      0.725875    83A      0.739446
      84A      0.750518    85A      0.769380    86A      0.780254
      87A      0.799151    88A      0.809328    89A      0.818985
      90A      0.828378    91A      0.834776    92A      0.843146
      93A      0.859756    94A      0.877433    95A      0.885941
      96A      0.890549    97A      0.898067    98A      0.918868
      99A      0.928867   100A      0.936214   101A      0.944867
     102A      0.953569   103A      0.961514   104A      0.967081
     105A      0.987957   106A      1.005583   107A      1.025682
     108A      1.042433   109A      1.056288   110A      1.079238
     111A      1.085208   112A      1.097527   113A      1.105722
     114A      1.114525   115A      1.128830   116A      1.139652
     117A      1.151256   118A      1.170148   119A      1.180105
     120A      1.187928   121A      1.246375   122A      1.259150
     123A      1.269252   124A      1.278646   125A      1.313327
     126A      1.316081   127A      1.319792   128A      1.329543
     129A      1.332870   130A      1.369660   131A      1.423263
     132A      1.428524   133A      1.443196   134A      1.448310
     135A      1.479317   136A      1.488033   137A      1.516943
     138A      1.525812   139A      1.566657   140A      1.575693
     141A      1.585474   142A      1.598196   143A      1.639050
     144A      1.652024   145A      1.686750   146A      1.693881
     147A      1.699584   148A      1.735746   149A      1.767425
     150A      1.775195   151A      1.800607   152A      1.811229
     153A      1.822396   154A      1.836651   155A      1.859141
     156A      1.862706   157A      1.902366   158A      1.913757
     159A      1.928176   160A      1.933938   161A      1.945245
     162A      1.958657   163A      1.963589   164A      1.976291
     165A      1.981215   166A      1.990226   167A      2.003648
     168A      2.005876   169A      2.020210   170A      2.045080
     171A      2.086462   172A      2.089154   173A      2.116818
     174A      2.123681   175A      2.136281   176A      2.145904
     177A      2.175436   178A      2.182248   179A      2.208045
     180A      2.219201   181A      2.227606   182A      2.237592
     183A      2.309880   184A      2.328621   185A      2.354321
     186A      2.358389   187A      2.393870   188A      2.405558
     189A      2.438671   190A      2.442904   191A      2.447894
     192A      2.455905   193A      2.485652   194A      2.495794
     195A      2.545871   196A      2.548817   197A      2.604401
     198A      2.608176   199A      2.684483   200A      2.697579
     201A      2.734021   202A      2.738744   203A      2.749987
     204A      2.759589   205A      2.779881   206A      2.785932
     207A      2.790320   208A      2.793330   209A      2.818613
     210A      2.848716   211A      2.862636   212A      2.870005
     213A      2.897927   214A      2.902789   215A      2.910143
     216A      2.914302   217A      2.958153   218A      2.972579
     219A      3.057735   220A      3.065010   221A      3.159963
     222A      3.161700   223A      3.236485   224A      3.239541
     225A      3.467933   226A      3.473245   227A      3.789707
     228A      3.793856

    Final Occupation by Irrep:
              A
    DOCC [    44 ]

  @RHF Final Energy:  -527.74508170540946

   => Energetics <=

    Nuclear Repulsion Energy =            658.7807480467567984
    One-Electron Energy =               -2023.1718099149243244
    Two-Electron Energy =                 836.6459801627580646
    Total Energy =                       -527.7450817054094614

Computation Completed

Properties will be evaluated at   0.000000,   0.000000,   0.000000 [a0]

Properties computed using the SCF density matrix

  Nuclear Dipole Moment: [e a0]
     X:    -4.2040      Y:     3.7285      Z:    -3.7502

  Electronic Dipole Moment: [e a0]
     X:     5.5423      Y:    -4.7780      Z:     3.7161

  Dipole Moment: [e a0]
     X:     1.3384      Y:    -1.0496      Z:    -0.0341     Total:     1.7012

  Dipole Moment: [D]
     X:     3.4017      Y:    -2.6678      Z:    -0.0867     Total:     4.3239

*** tstop() called on ds3 at Mon Apr 27 16:49:03 2020
Module time:
	user time   =     149.38 seconds =       2.49 minutes
	system time =      66.65 seconds =       1.11 minutes
	total time  =        207 seconds =       3.45 minutes
Total time:
	user time   =     149.38 seconds =       2.49 minutes
	system time =      66.65 seconds =       1.11 minutes
	total time  =        207 seconds =       3.45 minutes
                                     G D M A

                                 by Anthony Stone

                           version 2.2.06, 22 June 2011

               Distributed Multipoles from Gaussian wavefunctions

Starting at 16:49:3 on 27 Apr 2020

Using SCF density matrix from file ./SSI/SSI-044HIE-067HIE-1-dimer.test.27956.fchk

                         Distributed Multipole Analysis

Standard DMA

Positions and radii in angstrom
Multipole moments in atomic units, ea_0^k for rank k

C          x = -2.530376  y =  0.604477  z = -2.851310 angstrom
           Maximum rank =  0   Radius =  0.650 angstrom
                   Q00  =  -0.189710

C          x = -0.280376  y = -1.885523  z = -1.471310 angstrom
           Maximum rank =  0   Radius =  0.650 angstrom
                   Q00  =   0.451833

C          x = -1.368376  y = -0.181523  z = -2.333310 angstrom
           Maximum rank =  0   Radius =  0.650 angstrom
                   Q00  =   0.214294

C          x = -0.054376  y =  0.156477  z = -2.261310 angstrom
           Maximum rank =  0   Radius =  0.650 angstrom
                   Q00  =   0.004077

N          x = -1.487376  y = -1.466523  z = -1.841310 angstrom
           Maximum rank =  0   Radius =  0.650 angstrom
                   Q00  =  -0.767760

N          x =  0.603624  y = -0.924523  z = -1.717310 angstrom
           Maximum rank =  0   Radius =  0.650 angstrom
                   Q00  =  -0.473988

H          x = -0.048376  y = -2.855523  z = -1.047310 angstrom
           Maximum rank =  0   Radius =  0.325 angstrom
                   Q00  =   0.119170

H          x =  1.608624  y = -0.994523  z = -1.541310 angstrom
           Maximum rank =  0   Radius =  0.325 angstrom
                   Q00  =   0.225952

H          x =  0.388624  y =  1.085477  z = -2.591310 angstrom
           Maximum rank =  0   Radius =  0.325 angstrom
                   Q00  =   0.105432

H          x = -3.033376  y =  0.010477  z = -3.615310 angstrom
           Maximum rank =  0   Radius =  0.325 angstrom
                   Q00  =   0.112488

H          x = -2.141376  y =  1.506477  z = -3.327310 angstrom
           Maximum rank =  0   Radius =  0.325 angstrom
                   Q00  =   0.090962

H          x = -3.257395  y =  0.892117  z = -2.077550 angstrom
           Maximum rank =  0   Radius =  0.325 angstrom
                   Q00  =   0.106947

C          x = -0.576376  y =  1.988477  z =  1.126690 angstrom
           Maximum rank =  0   Radius =  0.650 angstrom
                   Q00  =  -0.195284

C          x =  0.353624  y = -0.340523  z =  1.759690 angstrom
           Maximum rank =  0   Radius =  0.650 angstrom
                   Q00  =  -0.007171

C          x =  0.351624  y =  1.016477  z =  1.784690 angstrom
           Maximum rank =  0   Radius =  0.650 angstrom
                   Q00  =   0.227060

C          x =  2.106624  y =  0.323477  z =  2.915690 angstrom
           Maximum rank =  0   Radius =  0.650 angstrom
                   Q00  =   0.455920

N          x =  1.450624  y = -0.750523  z =  2.487690 angstrom
           Maximum rank =  0   Radius =  0.650 angstrom
                   Q00  =  -0.476498

N          x =  1.467624  y =  1.414477  z =  2.498690 angstrom
           Maximum rank =  0   Radius =  0.650 angstrom
                   Q00  =  -0.772053

H          x = -0.372376  y = -0.966523  z =  1.255690 angstrom
           Maximum rank =  0   Radius =  0.325 angstrom
                   Q00  =   0.112717

H          x =  1.734624  y = -1.709523  z =  2.656690 angstrom
           Maximum rank =  0   Radius =  0.325 angstrom
                   Q00  =   0.215675

H          x = -1.245376  y =  1.441477  z =  0.464690 angstrom
           Maximum rank =  0   Radius =  0.325 angstrom
                   Q00  =   0.106390

H          x =  0.029624  y =  2.644477  z =  0.500690 angstrom
           Maximum rank =  0   Radius =  0.325 angstrom
                   Q00  =   0.105234

H          x =  3.019624  y =  0.310477  z =  3.502690 angstrom
           Maximum rank =  0   Radius =  0.325 angstrom
                   Q00  =   0.122203

H          x = -1.160936  y =  2.606917  z =  1.823700 angstrom
           Maximum rank =  0   Radius =  0.325 angstrom
                   Q00  =   0.106109

Total multipoles referred to origin at
           x =   0.000000,  y =    0.000000,  z =    0.000000 angstrom
                   Q00  =  -0.000000

Finished at 16:49:3 on 27 Apr 2020

  DMA results are available in the Python driver through the
	  variable('DMA DISTRIBUTED MULTIPOLES')
  and
	  variable('DMA TOTAL MULTIPOLES')
  commands.

    Psi4 stopped on: Monday, 27 April 2020 04:49PM
    Psi4 wall time for execution: 0:03:27.42

*** Psi4 exiting successfully. Buy a developer a beer!
