                               Psi4 1.3.2 release

  ==> Input File <==

--------------------------------------------------------------------------
import numpy as np
set {scf_type pk
basis cc-pvdz
d_convergence 10
gdma_switch   0
gdma_limit    0
gdma_origin   [ 0.0,  0.0,  0.0 ]
}
molecule test {
    units Angstrom
    0 1
    --
    0 1
    C                2.641428715716636    -0.947240844996436    -0.641838580795521
    C                4.081428715716635    -1.226240844996436    -0.237838580795522
    H                2.012428715716636    -1.805240844996436    -0.402838580795522
    H                2.261428715716635    -0.081240844996436    -0.095838580795522
    H                2.581428715716636    -0.742240844996436    -1.711838580795521
    H                4.082428715716635    -1.452240844996436     0.826161419204478
    H                4.463468715716635    -2.081530844996436    -0.814488580795521
    H                4.706378715716636    -0.338420844996436    -0.414528580795522
    C               -0.995571284283364     1.603759155003564    -1.956838580795521
    C               -0.983571284283364    -1.268240844996436     0.535161419204478
    C               -0.905571284283364    -0.557240844996436    -0.662838580795521
    C               -1.192571284283364    -0.591240844996436     1.737161419204478
    C               -1.041571284283364     0.835759155003564    -0.666838580795521
    C               -1.322571284283364     0.796759155003564     1.739161419204478
    C               -1.247571284283364     1.502759155003564     0.540161419204478
    H               -0.880571284283364    -2.344240844996436     0.533161419204478
    H               -0.709571284283364    -1.108240844996436    -1.568838580795521
    H               -1.255571284283364    -1.143240844996436     2.666161419204479
    H               -1.486571284283364     1.325759155003564     2.662161419204479
    H                0.051428715716636     1.694759155003564    -2.249838580795521
    H               -1.395571284283364     2.603759155003564    -1.788838580795522
    H               -1.366571284283364     2.574759155003564     0.540161419204478
    H               -1.560881284283364     1.125479155003564    -2.770278580795522

}
e, wfn = energy('scf', return_wfn=True)
gdma(wfn)
dmavals = variable('DMA DISTRIBUTED MULTIPOLES')
charges = np.array(dmavals)
print(charges)
np.save('SSI-068LEU-146PHE-1-dimer.npy', np.array(charges))--------------------------------------------------------------------------

*** tstart() called on ds3
*** at Mon Apr 27 14:16:50 2020

   => Loading Basis Set <=

    Name: CC-PVDZ
    Role: ORBITAL
    Keyword: BASIS
    atoms 1-2, 9-15  entry C          line   138 file /theoryfs2/ds/metcalf/miniconda2/envs/tf2gpu/share/psi4/basis/cc-pvdz.gbs
    atoms 3-8, 16-23 entry H          line    22 file /theoryfs2/ds/metcalf/miniconda2/envs/tf2gpu/share/psi4/basis/cc-pvdz.gbs

         ---------------------------------------------------------
                                   SCF
               by Justin Turney, Rob Parrish, Andy Simmonett
                          and Daniel G. A. Smith
                              RHF Reference
                        1 Threads,    500 MiB Core
         ---------------------------------------------------------

  ==> Geometry <==

    Molecular point group: c1
    Full point group: C1

    Geometry (in Angstrom), charge = 0, multiplicity = 1:

       Center              X                  Y                   Z               Mass
    ------------   -----------------  -----------------  -----------------  -----------------
         C            2.641428715717    -0.947240844996    -0.641838580796    12.000000000000
         C            4.081428715717    -1.226240844996    -0.237838580796    12.000000000000
         H            2.012428715717    -1.805240844996    -0.402838580796     1.007825032230
         H            2.261428715717    -0.081240844996    -0.095838580796     1.007825032230
         H            2.581428715717    -0.742240844996    -1.711838580796     1.007825032230
         H            4.082428715717    -1.452240844996     0.826161419204     1.007825032230
         H            4.463468715717    -2.081530844996    -0.814488580796     1.007825032230
         H            4.706378715717    -0.338420844996    -0.414528580796     1.007825032230
         C           -0.995571284283     1.603759155004    -1.956838580796    12.000000000000
         C           -0.983571284283    -1.268240844996     0.535161419204    12.000000000000
         C           -0.905571284283    -0.557240844996    -0.662838580796    12.000000000000
         C           -1.192571284283    -0.591240844996     1.737161419204    12.000000000000
         C           -1.041571284283     0.835759155004    -0.666838580796    12.000000000000
         C           -1.322571284283     0.796759155004     1.739161419204    12.000000000000
         C           -1.247571284283     1.502759155004     0.540161419204    12.000000000000
         H           -0.880571284283    -2.344240844996     0.533161419204     1.007825032230
         H           -0.709571284283    -1.108240844996    -1.568838580796     1.007825032230
         H           -1.255571284283    -1.143240844996     2.666161419204     1.007825032230
         H           -1.486571284283     1.325759155004     2.662161419204     1.007825032230
         H            0.051428715717     1.694759155004    -2.249838580796     1.007825032230
         H           -1.395571284283     2.603759155004    -1.788838580796     1.007825032230
         H           -1.366571284283     2.574759155004     0.540161419204     1.007825032230
         H           -1.560881284283     1.125479155004    -2.770278580796     1.007825032230

  Running in c1 symmetry.

  Rotational constants: A =      0.06115  B =      0.02721  C =      0.02257 [cm^-1]
  Rotational constants: A =   1833.24090  B =    815.72830  C =    676.76025 [MHz]
  Nuclear repulsion =  409.032152522872195

  Charge       = 0
  Multiplicity = 1
  Electrons    = 68
  Nalpha       = 34
  Nbeta        = 34

  ==> Algorithm <==

  SCF Algorithm Type is PK.
  DIIS enabled.
  MOM disabled.
  Fractional occupation disabled.
  Guess Type is SAD.
  Energy threshold   = 1.00e-06
  Density threshold  = 1.00e-10
  Integral threshold = 0.00e+00

  ==> Primary Basis <==

  Basis Set: CC-PVDZ
    Blend: CC-PVDZ
    Number of shells: 96
    Number of basis function: 196
    Number of Cartesian functions: 205
    Spherical Harmonics?: true
    Max angular momentum: 2

  ==> Pre-Iterations <==

   -------------------------------------------------------
    Irrep   Nso     Nmo     Nalpha   Nbeta   Ndocc  Nsocc
   -------------------------------------------------------
     A        196     196       0       0       0       0
   -------------------------------------------------------
    Total     196     196      34      34      34       0
   -------------------------------------------------------

  ==> Integral Setup <==

  Using integral reordering PK algorithm.
  Sizing the integral batches needed.
  Building batch lookup table.
   Calculation information:
      Number of atoms:                  23
      Number of AO shells:              96
      Number of primitives:            268
      Number of atomic orbitals:       205
      Number of basis functions:       196

      Integral cutoff                 1.00e-12
      Number of threads:                 1

	Batch   1 pq = [       0,    9405] index = [             0,44231715] size =     44231715
	Batch   2 pq = [    9405,   13301] index = [      44231715,88464951] size =     44233236
	Batch   3 pq = [   13301,   16290] index = [      88464951,132690195] size =     44225244
	Batch   4 pq = [   16290,   18810] index = [     132690195,176917455] size =     44227260
	Batch   5 pq = [   18810,   19306] index = [     176917455,186370471] size =      9453016
  Task number: 17
  Buffer size: 11059200
  Buffer per thread: 2
  We computed 9667385 shell quartets total.
  Whereas there are 10841496 unique shell quartets.

  ==> DiskJK: Disk-Based J/K Matrices <==

    J tasked:                  Yes
    K tasked:                  Yes
    wK tasked:                  No
    Memory [MiB]:              375
    Schwarz Cutoff:          1E-12

    OpenMP threads:              1

  Minimum eigenvalue in the overlap matrix is 3.1623507172E-04.
  Using Symmetric Orthogonalization.

  SCF Guess: Superposition of Atomic Densities via on-the-fly atomic UHF.

  ==> Iterations <==

                        Total Energy        Delta E     RMS |[F,P]|

   @RHF iter SAD:  -347.85230205138737   -3.47852e+02   0.00000e+00
   @RHF iter   1:  -348.76665773452891   -9.14356e-01   2.89866e-03 DIIS
   @RHF iter   2:  -348.95972676774483   -1.93069e-01   1.19993e-03 DIIS
   @RHF iter   3:  -348.98986205967446   -3.01353e-02   2.57771e-04 DIIS
   @RHF iter   4:  -348.99232811729405   -2.46606e-03   5.29566e-05 DIIS
   @RHF iter   5:  -348.99240149211482   -7.33748e-05   1.79613e-05 DIIS
   @RHF iter   6:  -348.99240935154359   -7.85943e-06   4.80629e-06 DIIS
   @RHF iter   7:  -348.99241001118344   -6.59640e-07   1.26139e-06 DIIS
   @RHF iter   8:  -348.99241005990109   -4.87177e-08   2.84667e-07 DIIS
   @RHF iter   9:  -348.99241006418947   -4.28838e-09   1.09384e-07 DIIS
   @RHF iter  10:  -348.99241006491246   -7.22991e-10   4.56348e-08 DIIS
   @RHF iter  11:  -348.99241006513063   -2.18165e-10   1.72560e-08 DIIS
   @RHF iter  12:  -348.99241006517008   -3.94493e-11   8.70731e-09 DIIS
   @RHF iter  13:  -348.99241006517883   -8.75389e-12   3.62169e-09 DIIS
   @RHF iter  14:  -348.99241006517917   -3.41061e-13   1.03732e-09 DIIS
   @RHF iter  15:  -348.99241006517906    1.13687e-13   3.22893e-10 DIIS
   @RHF iter  16:  -348.99241006517741    1.64846e-12   7.19195e-11 DIIS
  Energy and wave function converged.

  ==> Post-Iterations <==

    Orbital Energies [Eh]
    ---------------------

    Doubly Occupied:

       1A    -11.240813     2A    -11.235331     3A    -11.235127
       4A    -11.231171     5A    -11.230052     6A    -11.229972
       7A    -11.228846     8A    -11.214005     9A    -11.209361
      10A     -1.150552    11A     -1.043453    12A     -1.015076
      13A     -1.010548    14A     -0.930080    15A     -0.829335
      16A     -0.823582    17A     -0.794770    18A     -0.689464
      19A     -0.632150    20A     -0.628673    21A     -0.595560
      22A     -0.592954    23A     -0.582786    24A     -0.577000
      25A     -0.561283    26A     -0.535500    27A     -0.497337
      28A     -0.485076    29A     -0.484863    30A     -0.481043
      31A     -0.478943    32A     -0.476972    33A     -0.330884
      34A     -0.319871

    Virtual:

      35A      0.135347    36A      0.141692    37A      0.173696
      38A      0.196651    39A      0.199167    40A      0.213544
      41A      0.236044    42A      0.244666    43A      0.251718
      44A      0.259664    45A      0.268782    46A      0.274114
      47A      0.287796    48A      0.292265    49A      0.299669
      50A      0.314648    51A      0.365656    52A      0.377688
      53A      0.402936    54A      0.451979    55A      0.461226
      56A      0.475241    57A      0.498898    58A      0.564661
      59A      0.574102    60A      0.604468    61A      0.606783
      62A      0.608682    63A      0.633895    64A      0.658850
      65A      0.680759    66A      0.685976    67A      0.700125
      68A      0.705175    69A      0.728726    70A      0.741073
      71A      0.746368    72A      0.751194    73A      0.758258
      74A      0.777277    75A      0.787455    76A      0.800969
      77A      0.841755    78A      0.850965    79A      0.859355
      80A      0.865043    81A      0.881568    82A      0.894565
      83A      0.896873    84A      0.897917    85A      0.900671
      86A      0.910166    87A      0.921170    88A      0.925125
      89A      0.929799    90A      0.944635    91A      0.947829
      92A      0.967542    93A      1.001806    94A      1.003165
      95A      1.014316    96A      1.048895    97A      1.119480
      98A      1.130996    99A      1.131654   100A      1.143126
     101A      1.151550   102A      1.155509   103A      1.194736
     104A      1.214366   105A      1.239684   106A      1.244089
     107A      1.260108   108A      1.275819   109A      1.304815
     110A      1.309555   111A      1.316141   112A      1.339521
     113A      1.412106   114A      1.481850   115A      1.489208
     116A      1.504439   117A      1.524935   118A      1.567204
     119A      1.589428   120A      1.601160   121A      1.672852
     122A      1.680459   123A      1.694337   124A      1.699872
     125A      1.733362   126A      1.749218   127A      1.759774
     128A      1.799260   129A      1.816673   130A      1.853642
     131A      1.863424   132A      1.870863   133A      1.886443
     134A      1.896336   135A      1.903960   136A      1.911242
     137A      1.923820   138A      1.932594   139A      1.938722
     140A      1.948009   141A      1.949120   142A      1.958397
     143A      1.960669   144A      1.973305   145A      1.977663
     146A      1.988221   147A      1.999322   148A      2.031296
     149A      2.036160   150A      2.068831   151A      2.076777
     152A      2.104935   153A      2.113103   154A      2.123618
     155A      2.145034   156A      2.155352   157A      2.165339
     158A      2.175719   159A      2.190926   160A      2.258104
     161A      2.267858   162A      2.286756   163A      2.295877
     164A      2.307212   165A      2.321395   166A      2.333910
     167A      2.362022   168A      2.448371   169A      2.462470
     170A      2.469859   171A      2.483480   172A      2.497131
     173A      2.546538   174A      2.566615   175A      2.581958
     176A      2.635199   177A      2.730854   178A      2.745846
     179A      2.769414   180A      2.772538   181A      2.786035
     182A      2.795002   183A      2.812645   184A      2.843586
     185A      2.852235   186A      2.855602   187A      2.860785
     188A      2.957530   189A      2.960064   190A      2.984603
     191A      3.016305   192A      3.031377   193A      3.161901
     194A      3.199883   195A      3.298530   196A      3.963498

    Final Occupation by Irrep:
              A
    DOCC [    34 ]

  @RHF Final Energy:  -348.99241006517741

   => Energetics <=

    Nuclear Repulsion Energy =            409.0321525228721953
    One-Electron Energy =               -1280.8442600200646666
    Two-Electron Energy =                 522.8196974320151185
    Total Energy =                       -348.9924100651774097

Computation Completed

Properties will be evaluated at   0.000000,   0.000000,   0.000000 [a0]

Properties computed using the SCF density matrix

  Nuclear Dipole Moment: [e a0]
     X:    10.7844      Y:    -1.6613      Z:    -4.3025

  Electronic Dipole Moment: [e a0]
     X:   -10.8195      Y:     1.7389      Z:     4.2086

  Dipole Moment: [e a0]
     X:    -0.0352      Y:     0.0776      Z:    -0.0940     Total:     0.1268

  Dipole Moment: [D]
     X:    -0.0894      Y:     0.1973      Z:    -0.2388     Total:     0.3224

*** tstop() called on ds3 at Mon Apr 27 14:19:27 2020
Module time:
	user time   =      66.74 seconds =       1.11 minutes
	system time =      25.75 seconds =       0.43 minutes
	total time  =        157 seconds =       2.62 minutes
Total time:
	user time   =      66.74 seconds =       1.11 minutes
	system time =      25.75 seconds =       0.43 minutes
	total time  =        157 seconds =       2.62 minutes
                                     G D M A

                                 by Anthony Stone

                           version 2.2.06, 22 June 2011

               Distributed Multipoles from Gaussian wavefunctions

Starting at 14:19:27 on 27 Apr 2020

Using SCF density matrix from file ./SSI/SSI-068LEU-146PHE-1-dimer.test.9166.fchk

                         Distributed Multipole Analysis

Standard DMA

Positions and radii in angstrom
Multipole moments in atomic units, ea_0^k for rank k

C          x =  2.641429  y = -0.947241  z = -0.641839 angstrom
           Maximum rank =  0   Radius =  0.650 angstrom
                   Q00  =  -0.231961

C          x =  4.081429  y = -1.226241  z = -0.237839 angstrom
           Maximum rank =  0   Radius =  0.650 angstrom
                   Q00  =  -0.231469

H          x =  2.012429  y = -1.805241  z = -0.402839 angstrom
           Maximum rank =  0   Radius =  0.325 angstrom
                   Q00  =   0.076544

H          x =  2.261429  y = -0.081241  z = -0.095839 angstrom
           Maximum rank =  0   Radius =  0.325 angstrom
                   Q00  =   0.084958

H          x =  2.581429  y = -0.742241  z = -1.711839 angstrom
           Maximum rank =  0   Radius =  0.325 angstrom
                   Q00  =   0.070237

H          x =  4.082429  y = -1.452241  z =  0.826161 angstrom
           Maximum rank =  0   Radius =  0.325 angstrom
                   Q00  =   0.078024

H          x =  4.463469  y = -2.081531  z = -0.814489 angstrom
           Maximum rank =  0   Radius =  0.325 angstrom
                   Q00  =   0.075281

H          x =  4.706379  y = -0.338421  z = -0.414529 angstrom
           Maximum rank =  0   Radius =  0.325 angstrom
                   Q00  =   0.077078

C          x = -0.995571  y =  1.603759  z = -1.956839 angstrom
           Maximum rank =  0   Radius =  0.650 angstrom
                   Q00  =  -0.201923

C          x = -0.983571  y = -1.268241  z =  0.535161 angstrom
           Maximum rank =  0   Radius =  0.650 angstrom
                   Q00  =  -0.060957

C          x = -0.905571  y = -0.557241  z = -0.662839 angstrom
           Maximum rank =  0   Radius =  0.650 angstrom
                   Q00  =  -0.089815

C          x = -1.192571  y = -0.591241  z =  1.737161 angstrom
           Maximum rank =  0   Radius =  0.650 angstrom
                   Q00  =  -0.091534

C          x = -1.041571  y =  0.835759  z = -0.666839 angstrom
           Maximum rank =  0   Radius =  0.650 angstrom
                   Q00  =  -0.095612

C          x = -1.322571  y =  0.796759  z =  1.739161 angstrom
           Maximum rank =  0   Radius =  0.650 angstrom
                   Q00  =  -0.076440

C          x = -1.247571  y =  1.502759  z =  0.540161 angstrom
           Maximum rank =  0   Radius =  0.650 angstrom
                   Q00  =   0.010685

H          x = -0.880571  y = -2.344241  z =  0.533161 angstrom
           Maximum rank =  0   Radius =  0.325 angstrom
                   Q00  =   0.064603

H          x = -0.709571  y = -1.108241  z = -1.568839 angstrom
           Maximum rank =  0   Radius =  0.325 angstrom
                   Q00  =   0.057098

H          x = -1.255571  y = -1.143241  z =  2.666161 angstrom
           Maximum rank =  0   Radius =  0.325 angstrom
                   Q00  =   0.061398

H          x = -1.486571  y =  1.325759  z =  2.662161 angstrom
           Maximum rank =  0   Radius =  0.325 angstrom
                   Q00  =   0.065459

H          x =  0.051429  y =  1.694759  z = -2.249839 angstrom
           Maximum rank =  0   Radius =  0.325 angstrom
                   Q00  =   0.102841

H          x = -1.395571  y =  2.603759  z = -1.788839 angstrom
           Maximum rank =  0   Radius =  0.325 angstrom
                   Q00  =   0.096611

H          x = -1.366571  y =  2.574759  z =  0.540161 angstrom
           Maximum rank =  0   Radius =  0.325 angstrom
                   Q00  =   0.057762

H          x = -1.560881  y =  1.125479  z = -2.770279 angstrom
           Maximum rank =  0   Radius =  0.325 angstrom
                   Q00  =   0.101133

Total multipoles referred to origin at
           x =   0.000000,  y =    0.000000,  z =    0.000000 angstrom
                   Q00  =  -0.000000

Finished at 14:19:27 on 27 Apr 2020

  DMA results are available in the Python driver through the
	  variable('DMA DISTRIBUTED MULTIPOLES')
  and
	  variable('DMA TOTAL MULTIPOLES')
  commands.

    Psi4 stopped on: Monday, 27 April 2020 02:19PM
    Psi4 wall time for execution: 0:02:36.35

*** Psi4 exiting successfully. Buy a developer a beer!
