                               Psi4 1.3.2 release

  ==> Input File <==

--------------------------------------------------------------------------
import numpy as np
set {scf_type pk
basis cc-pvdz
d_convergence 10
gdma_switch   0
gdma_limit    0
gdma_origin   [ 0.0,  0.0,  0.0 ]
}
molecule test {
    units Angstrom
    0 1
    --
    0 1
    C                2.999250537915497    -2.418205276947266     3.354073511649608
    C               -0.403749462084504    -1.931205276947266     0.745073511649608
    C                0.859250537915496    -2.090205276947266     0.215073511649607
    C               -0.570749462084504    -1.905205276947266     2.115073511649607
    C                1.951250537915496    -2.251205276947266     1.067073511649608
    C                0.531250537915496    -2.074205276947266     2.974073511649607
    C                1.799250537915496    -2.251205276947266     2.452073511649608
    H               -1.253749462084504    -1.805205276947266     0.088073511649607
    H                0.997250537915496    -2.092205276947265    -0.856926488350393
    H               -1.559749462084504    -1.766205276947266     2.532073511649607
    H                2.932250537915496    -2.391205276947265     0.637073511649607
    H                0.380250537915496    -2.060205276947265     4.045073511649607
    H                3.457250537915496    -3.380205276947266     3.122073511649607
    H                2.686250537915496    -2.439205276947265     4.399073511649608
    H                3.744410537915496    -1.621455276947265     3.212923511649608
    C               -2.786749462084503     2.793794723052735    -3.459926488350392
    C               -1.042749462084504     1.304794723052734    -0.431926488350393
    C                0.275250537915496     1.624794723052734    -0.690926488350393
    C               -2.062749462084504     1.678794723052734    -1.328926488350392
    C               -1.743749462084504     2.403794723052735    -2.462926488350393
    C                0.584250537915496     2.346794723052735    -1.821926488350393
    C               -0.419749462084504     2.723794723052734    -2.705926488350393
    H               -1.292749462084504     0.746794723052734     0.460073511649607
    H                1.052250537915496     1.310794723052734    -0.007926488350393
    H               -3.087749462084504     1.399794723052734    -1.126926488350392
    H                1.610250537915496     2.612794723052735    -2.036926488350392
    H               -2.664749462084504     3.854794723052735    -3.669926488350393
    H               -3.782749462084504     2.649794723052735    -3.039926488350392
    H               -0.157749462084504     3.281794723052734    -3.593926488350393
    H               -2.697849462084504     2.233634723052734    -4.402436488350393

}
e, wfn = energy('scf', return_wfn=True)
gdma(wfn)
dmavals = variable('DMA DISTRIBUTED MULTIPOLES')
charges = np.array(dmavals)
print(charges)
np.save('SSI-043PHE-065PHE-1-dimer.npy', np.array(charges))--------------------------------------------------------------------------

*** tstart() called on ds3
*** at Tue Apr 28 10:53:07 2020

   => Loading Basis Set <=

    Name: CC-PVDZ
    Role: ORBITAL
    Keyword: BASIS
    atoms 1-7, 16-22  entry C          line   138 file /theoryfs2/ds/metcalf/miniconda2/envs/tf2gpu/share/psi4/basis/cc-pvdz.gbs
    atoms 8-15, 23-30 entry H          line    22 file /theoryfs2/ds/metcalf/miniconda2/envs/tf2gpu/share/psi4/basis/cc-pvdz.gbs

         ---------------------------------------------------------
                                   SCF
               by Justin Turney, Rob Parrish, Andy Simmonett
                          and Daniel G. A. Smith
                              RHF Reference
                        1 Threads,    500 MiB Core
         ---------------------------------------------------------

  ==> Geometry <==

    Molecular point group: c1
    Full point group: C1

    Geometry (in Angstrom), charge = 0, multiplicity = 1:

       Center              X                  Y                   Z               Mass
    ------------   -----------------  -----------------  -----------------  -----------------
         C            2.999250537915    -2.418205276947     3.354073511650    12.000000000000
         C           -0.403749462085    -1.931205276947     0.745073511650    12.000000000000
         C            0.859250537915    -2.090205276947     0.215073511650    12.000000000000
         C           -0.570749462085    -1.905205276947     2.115073511650    12.000000000000
         C            1.951250537915    -2.251205276947     1.067073511650    12.000000000000
         C            0.531250537915    -2.074205276947     2.974073511650    12.000000000000
         C            1.799250537915    -2.251205276947     2.452073511650    12.000000000000
         H           -1.253749462085    -1.805205276947     0.088073511650     1.007825032230
         H            0.997250537915    -2.092205276947    -0.856926488350     1.007825032230
         H           -1.559749462085    -1.766205276947     2.532073511650     1.007825032230
         H            2.932250537915    -2.391205276947     0.637073511650     1.007825032230
         H            0.380250537915    -2.060205276947     4.045073511650     1.007825032230
         H            3.457250537915    -3.380205276947     3.122073511650     1.007825032230
         H            2.686250537915    -2.439205276947     4.399073511650     1.007825032230
         H            3.744410537915    -1.621455276947     3.212923511650     1.007825032230
         C           -2.786749462085     2.793794723053    -3.459926488350    12.000000000000
         C           -1.042749462085     1.304794723053    -0.431926488350    12.000000000000
         C            0.275250537915     1.624794723053    -0.690926488350    12.000000000000
         C           -2.062749462085     1.678794723053    -1.328926488350    12.000000000000
         C           -1.743749462085     2.403794723053    -2.462926488350    12.000000000000
         C            0.584250537915     2.346794723053    -1.821926488350    12.000000000000
         C           -0.419749462085     2.723794723053    -2.705926488350    12.000000000000
         H           -1.292749462085     0.746794723053     0.460073511650     1.007825032230
         H            1.052250537915     1.310794723053    -0.007926488350     1.007825032230
         H           -3.087749462085     1.399794723053    -1.126926488350     1.007825032230
         H            1.610250537915     2.612794723053    -2.036926488350     1.007825032230
         H           -2.664749462085     3.854794723053    -3.669926488350     1.007825032230
         H           -3.782749462085     2.649794723053    -3.039926488350     1.007825032230
         H           -0.157749462085     3.281794723053    -3.593926488350     1.007825032230
         H           -2.697849462085     2.233634723053    -4.402436488350     1.007825032230

  Running in c1 symmetry.

  Rotational constants: A =      0.05741  B =      0.00821  C =      0.00771 [cm^-1]
  Rotational constants: A =   1720.96381  B =    246.17215  C =    230.99721 [MHz]
  Nuclear repulsion =  762.074624371184655

  Charge       = 0
  Multiplicity = 1
  Electrons    = 100
  Nalpha       = 50
  Nbeta        = 50

  ==> Algorithm <==

  SCF Algorithm Type is PK.
  DIIS enabled.
  MOM disabled.
  Fractional occupation disabled.
  Guess Type is SAD.
  Energy threshold   = 1.00e-06
  Density threshold  = 1.00e-10
  Integral threshold = 0.00e+00

  ==> Primary Basis <==

  Basis Set: CC-PVDZ
    Blend: CC-PVDZ
    Number of shells: 132
    Number of basis function: 276
    Number of Cartesian functions: 290
    Spherical Harmonics?: true
    Max angular momentum: 2

  ==> Pre-Iterations <==

   -------------------------------------------------------
    Irrep   Nso     Nmo     Nalpha   Nbeta   Ndocc  Nsocc
   -------------------------------------------------------
     A        276     276       0       0       0       0
   -------------------------------------------------------
    Total     276     276      50      50      50       0
   -------------------------------------------------------

  ==> Integral Setup <==

  Using integral reordering PK algorithm.
  Sizing the integral batches needed.
  Building batch lookup table.
   Calculation information:
      Number of atoms:                  30
      Number of AO shells:             132
      Number of primitives:            388
      Number of atomic orbitals:       290
      Number of basis functions:       276

      Integral cutoff                 1.00e-12
      Number of threads:                 1

	Batch   1 pq = [       0,    9405] index = [             0,44231715] size =     44231715
	Batch   2 pq = [    9405,   13301] index = [      44231715,88464951] size =     44233236
	Batch   3 pq = [   13301,   16290] index = [      88464951,132690195] size =     44225244
	Batch   4 pq = [   16290,   18810] index = [     132690195,176917455] size =     44227260
	Batch   5 pq = [   18810,   21030] index = [     176917455,221140965] size =     44223510
	Batch   6 pq = [   21030,   23037] index = [     221140965,265363203] size =     44222238
	Batch   7 pq = [   23037,   24883] index = [     265363203,309594286] size =     44231083
	Batch   8 pq = [   24883,   26601] index = [     309594286,353819901] size =     44225615
	Batch   9 pq = [   26601,   28214] index = [     353819901,398029005] size =     44209104
	Batch  10 pq = [   28214,   29740] index = [     398029005,442248670] size =     44219665
	Batch  11 pq = [   29740,   31191] index = [     442248670,486454836] size =     44206166
	Batch  12 pq = [   31191,   32578] index = [     486454836,530679331] size =     44224495
	Batch  13 pq = [   32578,   33908] index = [     530679331,574893186] size =     44213855
	Batch  14 pq = [   33908,   35188] index = [     574893186,619115266] size =     44222080
	Batch  15 pq = [   35188,   36423] index = [     619115266,663335676] size =     44220410
	Batch  16 pq = [   36423,   37617] index = [     663335676,707538153] size =     44202477
	Batch  17 pq = [   37617,   38226] index = [     707538153,730632651] size =     23094498
  Task number: 67
  Buffer size: 11059200
  Buffer per thread: 2
  We computed 32910757 shell quartets total.
  Whereas there are 38531031 unique shell quartets.

  ==> DiskJK: Disk-Based J/K Matrices <==

    J tasked:                  Yes
    K tasked:                  Yes
    wK tasked:                  No
    Memory [MiB]:              375
    Schwarz Cutoff:          1E-12

    OpenMP threads:              1

  Minimum eigenvalue in the overlap matrix is 2.8948806768E-04.
  Using Symmetric Orthogonalization.

  SCF Guess: Superposition of Atomic Densities via on-the-fly atomic UHF.

  ==> Iterations <==

                        Total Energy        Delta E     RMS |[F,P]|

   @RHF iter SAD:  -538.49036914556564   -5.38490e+02   0.00000e+00
   @RHF iter   1:  -539.22415965047742   -7.33791e-01   2.31990e-03 DIIS
   @RHF iter   2:  -539.47841158803453   -2.54252e-01   9.48353e-04 DIIS
   @RHF iter   3:  -539.51588254150363   -3.74710e-02   2.14853e-04 DIIS
   @RHF iter   4:  -539.51902966597856   -3.14712e-03   4.60518e-05 DIIS
   @RHF iter   5:  -539.51913861990670   -1.08954e-04   1.33749e-05 DIIS
   @RHF iter   6:  -539.51914762925787   -9.00935e-06   4.12170e-06 DIIS
   @RHF iter   7:  -539.51914867878156   -1.04952e-06   1.29735e-06 DIIS
   @RHF iter   8:  -539.51914884431596   -1.65534e-07   4.49207e-07 DIIS
   @RHF iter   9:  -539.51914888930787   -4.49919e-08   2.19535e-07 DIIS
   @RHF iter  10:  -539.51914889999625   -1.06884e-08   1.01267e-07 DIIS
   @RHF iter  11:  -539.51914890252692   -2.53067e-09   3.11979e-08 DIIS
   @RHF iter  12:  -539.51914890270325   -1.76328e-10   1.31755e-08 DIIS
   @RHF iter  13:  -539.51914890271610   -1.28466e-11   3.64329e-09 DIIS
   @RHF iter  14:  -539.51914890271723   -1.13687e-12   1.00708e-09 DIIS
   @RHF iter  15:  -539.51914890272019   -2.95586e-12   4.55741e-10 DIIS
   @RHF iter  16:  -539.51914890271701    3.18323e-12   2.24135e-10 DIIS
   @RHF iter  17:  -539.51914890271553    1.47793e-12   1.08945e-10 DIIS
   @RHF iter  18:  -539.51914890271803   -2.50111e-12   3.86448e-11 DIIS
  Energy and wave function converged.

  ==> Post-Iterations <==

    Orbital Energies [Eh]
    ---------------------

    Doubly Occupied:

       1A    -11.239834     2A    -11.235128     3A    -11.233640
       4A    -11.233216     5A    -11.231095     6A    -11.230744
       7A    -11.229764     8A    -11.229527     9A    -11.229387
      10A    -11.227744    11A    -11.226977    12A    -11.225885
      13A    -11.223753    14A    -11.222586    15A     -1.154409
      16A     -1.152345    17A     -1.047325    18A     -1.045534
      19A     -1.008634    20A     -1.005517    21A     -0.932878
      22A     -0.929758    23A     -0.826852    24A     -0.823736
      25A     -0.794030    26A     -0.789777    27A     -0.692100
      28A     -0.687117    29A     -0.632218    30A     -0.629541
      31A     -0.628375    32A     -0.624730    33A     -0.579223
      34A     -0.577915    35A     -0.576244    36A     -0.575789
      37A     -0.563809    38A     -0.561657    39A     -0.537349
      40A     -0.533662    41A     -0.490286    42A     -0.485608
      43A     -0.484382    44A     -0.480864    45A     -0.479541
      46A     -0.475302    47A     -0.331993    48A     -0.328074
      49A     -0.324828    50A     -0.317536

    Virtual:

      51A      0.130476    52A      0.136514    53A      0.147815
      54A      0.151294    55A      0.178203    56A      0.191109
      57A      0.200748    58A      0.210581    59A      0.218659
      60A      0.225133    61A      0.245575    62A      0.246562
      63A      0.258780    64A      0.265396    65A      0.269680
      66A      0.272413    67A      0.276292    68A      0.291443
      69A      0.294349    70A      0.311971    71A      0.363555
      72A      0.374545    73A      0.379623    74A      0.382083
      75A      0.448937    76A      0.458360    77A      0.463613
      78A      0.471988    79A      0.474321    80A      0.478749
      81A      0.503342    82A      0.505457    83A      0.562765
      84A      0.567844    85A      0.589113    86A      0.606490
      87A      0.624280    88A      0.630108    89A      0.666189
      90A      0.675838    91A      0.688400    92A      0.693111
      93A      0.699074    94A      0.709090    95A      0.718003
      96A      0.723047    97A      0.729459    98A      0.740152
      99A      0.740852   100A      0.748150   101A      0.750015
     102A      0.754337   103A      0.756751   104A      0.761380
     105A      0.763566   106A      0.771348   107A      0.780818
     108A      0.786800   109A      0.796191   110A      0.810472
     111A      0.825142   112A      0.833174   113A      0.856742
     114A      0.861663   115A      0.871699   116A      0.879574
     117A      0.879989   118A      0.888679   119A      0.893082
     120A      0.896941   121A      0.904087   122A      0.906182
     123A      0.915229   124A      0.920812   125A      0.927229
     126A      0.938824   127A      0.943859   128A      0.946186
     129A      0.954543   130A      0.969662   131A      0.999203
     132A      1.011707   133A      1.014113   134A      1.035466
     135A      1.054306   136A      1.063729   137A      1.108491
     138A      1.126460   139A      1.139030   140A      1.141783
     141A      1.154398   142A      1.159249   143A      1.160803
     144A      1.172727   145A      1.198401   146A      1.204462
     147A      1.215929   148A      1.225733   149A      1.250929
     150A      1.255193   151A      1.257884   152A      1.263468
     153A      1.274177   154A      1.276347   155A      1.297302
     156A      1.301913   157A      1.304965   158A      1.313771
     159A      1.317924   160A      1.330257   161A      1.336111
     162A      1.394568   163A      1.421153   164A      1.425767
     165A      1.506431   166A      1.515073   167A      1.529671
     168A      1.556168   169A      1.560484   170A      1.568127
     171A      1.605748   172A      1.618952   173A      1.674867
     174A      1.676803   175A      1.677761   176A      1.692071
     177A      1.730292   178A      1.737719   179A      1.743482
     180A      1.755366   181A      1.773526   182A      1.782228
     183A      1.800216   184A      1.802004   185A      1.817517
     186A      1.822624   187A      1.853282   188A      1.865169
     189A      1.885996   190A      1.898002   191A      1.899593
     192A      1.902208   193A      1.906154   194A      1.913452
     195A      1.923024   196A      1.923845   197A      1.930229
     198A      1.938898   199A      1.948752   200A      1.952952
     201A      1.960614   202A      1.962961   203A      1.968155
     204A      1.977874   205A      1.986633   206A      2.004630
     207A      2.014455   208A      2.022228   209A      2.035692
     210A      2.048562   211A      2.052416   212A      2.063736
     213A      2.085924   214A      2.089012   215A      2.110360
     216A      2.115294   217A      2.128797   218A      2.141687
     219A      2.153358   220A      2.162040   221A      2.169669
     222A      2.179654   223A      2.188424   224A      2.196846
     225A      2.201639   226A      2.215171   227A      2.248262
     228A      2.249502   229A      2.265343   230A      2.281500
     231A      2.282647   232A      2.296643   233A      2.301750
     234A      2.308598   235A      2.341058   236A      2.350807
     237A      2.363839   238A      2.370878   239A      2.449651
     240A      2.463821   241A      2.473553   242A      2.484535
     243A      2.515404   244A      2.526296   245A      2.534274
     246A      2.545992   247A      2.637747   248A      2.642454
     249A      2.727124   250A      2.740309   251A      2.755091
     252A      2.764189   253A      2.770401   254A      2.774915
     255A      2.800360   256A      2.805520   257A      2.812160
     258A      2.824109   259A      2.840408   260A      2.848790
     261A      2.869548   262A      2.880664   263A      2.985430
     264A      2.991962   265A      3.020659   266A      3.023661
     267A      3.035743   268A      3.055116   269A      3.163957
     270A      3.170027   271A      3.207702   272A      3.221141
     273A      3.302997   274A      3.315044   275A      3.976702
     276A      3.993368

    Final Occupation by Irrep:
              A
    DOCC [    50 ]

  @RHF Final Energy:  -539.51914890271803

   => Energetics <=

    Nuclear Repulsion Energy =            762.0746243711846546
    One-Electron Energy =               -2240.5311013391556116
    Two-Electron Energy =                 938.9373280652529274
    Total Energy =                       -539.5191489027180296

Computation Completed

Properties will be evaluated at   0.000000,   0.000000,   0.000000 [a0]

Properties computed using the SCF density matrix

  Nuclear Dipole Moment: [e a0]
     X:     0.3404      Y:     0.5009      Z:    -0.2236

  Electronic Dipole Moment: [e a0]
     X:    -0.2588      Y:    -0.5494      Z:     0.2229

  Dipole Moment: [e a0]
     X:     0.0815      Y:    -0.0485      Z:    -0.0007     Total:     0.0949

  Dipole Moment: [D]
     X:     0.2072      Y:    -0.1234      Z:    -0.0017     Total:     0.2412

*** tstop() called on ds3 at Tue Apr 28 11:00:30 2020
Module time:
	user time   =     275.03 seconds =       4.58 minutes
	system time =     108.48 seconds =       1.81 minutes
	total time  =        443 seconds =       7.38 minutes
Total time:
	user time   =     275.03 seconds =       4.58 minutes
	system time =     108.48 seconds =       1.81 minutes
	total time  =        443 seconds =       7.38 minutes
                                     G D M A

                                 by Anthony Stone

                           version 2.2.06, 22 June 2011

               Distributed Multipoles from Gaussian wavefunctions

Starting at 11:0:30 on 28 Apr 2020

Using SCF density matrix from file ./SSI/SSI-043PHE-065PHE-1-dimer.test.20202.fchk

                         Distributed Multipole Analysis

Standard DMA

Positions and radii in angstrom
Multipole moments in atomic units, ea_0^k for rank k

C          x =  2.999251  y = -2.418205  z =  3.354074 angstrom
           Maximum rank =  0   Radius =  0.650 angstrom
                   Q00  =  -0.207773

C          x = -0.403749  y = -1.931205  z =  0.745074 angstrom
           Maximum rank =  0   Radius =  0.650 angstrom
                   Q00  =  -0.080995

C          x =  0.859251  y = -2.090205  z =  0.215074 angstrom
           Maximum rank =  0   Radius =  0.650 angstrom
                   Q00  =  -0.076290

C          x = -0.570749  y = -1.905205  z =  2.115074 angstrom
           Maximum rank =  0   Radius =  0.650 angstrom
                   Q00  =  -0.058038

C          x =  1.951251  y = -2.251205  z =  1.067074 angstrom
           Maximum rank =  0   Radius =  0.650 angstrom
                   Q00  =   0.004261

C          x =  0.531251  y = -2.074205  z =  2.974074 angstrom
           Maximum rank =  0   Radius =  0.650 angstrom
                   Q00  =  -0.088024

C          x =  1.799251  y = -2.251205  z =  2.452074 angstrom
           Maximum rank =  0   Radius =  0.650 angstrom
                   Q00  =  -0.101502

H          x = -1.253749  y = -1.805205  z =  0.088074 angstrom
           Maximum rank =  0   Radius =  0.325 angstrom
                   Q00  =   0.061905

H          x =  0.997251  y = -2.092205  z = -0.856926 angstrom
           Maximum rank =  0   Radius =  0.325 angstrom
                   Q00  =   0.068245

H          x = -1.559749  y = -1.766205  z =  2.532074 angstrom
           Maximum rank =  0   Radius =  0.325 angstrom
                   Q00  =   0.062734

H          x =  2.932251  y = -2.391205  z =  0.637074 angstrom
           Maximum rank =  0   Radius =  0.325 angstrom
                   Q00  =   0.053006

H          x =  0.380251  y = -2.060205  z =  4.045074 angstrom
           Maximum rank =  0   Radius =  0.325 angstrom
                   Q00  =   0.059673

H          x =  3.457251  y = -3.380205  z =  3.122074 angstrom
           Maximum rank =  0   Radius =  0.325 angstrom
                   Q00  =   0.102037

H          x =  2.686251  y = -2.439205  z =  4.399074 angstrom
           Maximum rank =  0   Radius =  0.325 angstrom
                   Q00  =   0.099073

H          x =  3.744411  y = -1.621455  z =  3.212924 angstrom
           Maximum rank =  0   Radius =  0.325 angstrom
                   Q00  =   0.103214

C          x = -2.786749  y =  2.793795  z = -3.459926 angstrom
           Maximum rank =  0   Radius =  0.650 angstrom
                   Q00  =  -0.204945

C          x = -1.042749  y =  1.304795  z = -0.431926 angstrom
           Maximum rank =  0   Radius =  0.650 angstrom
                   Q00  =  -0.069281

C          x =  0.275251  y =  1.624795  z = -0.690926 angstrom
           Maximum rank =  0   Radius =  0.650 angstrom
                   Q00  =  -0.073582

C          x = -2.062749  y =  1.678795  z = -1.328926 angstrom
           Maximum rank =  0   Radius =  0.650 angstrom
                   Q00  =  -0.086782

C          x = -1.743749  y =  2.403795  z = -2.462926 angstrom
           Maximum rank =  0   Radius =  0.650 angstrom
                   Q00  =  -0.094736

C          x =  0.584251  y =  2.346795  z = -1.821926 angstrom
           Maximum rank =  0   Radius =  0.650 angstrom
                   Q00  =  -0.076350

C          x = -0.419749  y =  2.723795  z = -2.705926 angstrom
           Maximum rank =  0   Radius =  0.650 angstrom
                   Q00  =   0.007115

H          x = -1.292749  y =  0.746795  z =  0.460074 angstrom
           Maximum rank =  0   Radius =  0.325 angstrom
                   Q00  =   0.068205

H          x =  1.052251  y =  1.310795  z = -0.007926 angstrom
           Maximum rank =  0   Radius =  0.325 angstrom
                   Q00  =   0.064952

H          x = -3.087749  y =  1.399795  z = -1.126926 angstrom
           Maximum rank =  0   Radius =  0.325 angstrom
                   Q00  =   0.056437

H          x =  1.610251  y =  2.612795  z = -2.036926 angstrom
           Maximum rank =  0   Radius =  0.325 angstrom
                   Q00  =   0.060471

H          x = -2.664749  y =  3.854795  z = -3.669926 angstrom
           Maximum rank =  0   Radius =  0.325 angstrom
                   Q00  =   0.098104

H          x = -3.782749  y =  2.649795  z = -3.039926 angstrom
           Maximum rank =  0   Radius =  0.325 angstrom
                   Q00  =   0.096880

H          x = -0.157749  y =  3.281795  z = -3.593926 angstrom
           Maximum rank =  0   Radius =  0.325 angstrom
                   Q00  =   0.050132

H          x = -2.697849  y =  2.233635  z = -4.402436 angstrom
           Maximum rank =  0   Radius =  0.325 angstrom
                   Q00  =   0.101853

Total multipoles referred to origin at
           x =   0.000000,  y =    0.000000,  z =    0.000000 angstrom
                   Q00  =  -0.000000

Finished at 11:0:31 on 28 Apr 2020

  DMA results are available in the Python driver through the
	  variable('DMA DISTRIBUTED MULTIPOLES')
  and
	  variable('DMA TOTAL MULTIPOLES')
  commands.

    Psi4 stopped on: Tuesday, 28 April 2020 11:00AM
    Psi4 wall time for execution: 0:07:23.57

*** Psi4 exiting successfully. Buy a developer a beer!
