                               Psi4 1.3.2 release

  ==> Input File <==

--------------------------------------------------------------------------
import numpy as np
set {scf_type pk
basis cc-pvdz
d_convergence 10
gdma_switch   0
gdma_limit    0
gdma_origin   [ 0.0,  0.0,  0.0 ]
}
molecule test {
    units Angstrom
    0 1
    --
    0 1
    C                2.358215562897103     2.396771882528030     0.973309702678834
    C               -1.268784437102897     1.252771882528030     0.976309702678834
    C               -0.113784437102897     1.969771882528030     0.716309702678834
    C               -1.216784437102897     0.162771882528030     1.831309702678834
    C                1.104215562897103     1.613771882528030     1.284309702678834
    C               -0.011784437102897    -0.212228117471970     2.411309702678834
    C                1.142215562897103     0.511771882528030     2.138309702678834
    O               -2.343784437102897    -0.546228117471970     2.092309702678834
    H               -2.214784437102897     1.577771882528030     0.581309702678834
    H               -0.197784437102897     2.863771882528030     0.194309702678834
    H               -3.034784437102897    -0.395228117471970     1.411309702678834
    H                0.006215562897103    -1.072228117471970     3.045309702678834
    H                2.982215562897103     2.467771882528030     1.865309702678834
    H                2.065215562897103     3.410771882528030     0.696309702678834
    H                2.074215562897103     0.213771882528030     2.597309702678834
    H                2.940526562897103     1.961121882528030     0.148009702678834
    C                0.284215562897103    -0.235228117471970    -2.199690297321166
    C                0.832215562897103     0.079771882528030    -3.596690297321166
    C               -0.053784437102897    -1.700228117471970    -2.011690297321166
    O                0.001215562897103    -2.496228117471970    -2.944690297321166
    N               -0.416784437102897    -2.067228117471970    -0.793690297321166
    H                1.006215562897103     0.044771882528030    -1.437690297321166
    H               -0.625784437102897     0.339771882528030    -2.028690297321166
    H                0.150215562897103    -0.370228117471970    -4.320690297321166
    H               -0.763784437102897    -3.001228117471970    -0.678690297321166
    H               -0.482784437102897    -1.385228117471970    -0.051690297321166
    H                1.839154562897103    -0.343368117471970    -3.727180297321166
    H                0.835827562897103     1.164231882528030    -3.780920297321166

}
e, wfn = energy('scf', return_wfn=True)
gdma(wfn)
dmavals = variable('DMA DISTRIBUTED MULTIPOLES')
charges = np.array(dmavals)
print(charges)
np.save('SSI-009TYR-033ASN-1-dimer.npy', np.array(charges))--------------------------------------------------------------------------

*** tstart() called on ds3
*** at Mon Apr 27 05:57:36 2020

   => Loading Basis Set <=

    Name: CC-PVDZ
    Role: ORBITAL
    Keyword: BASIS
    atoms 1-7, 17-19  entry C          line   138 file /theoryfs2/ds/metcalf/miniconda2/envs/tf2gpu/share/psi4/basis/cc-pvdz.gbs
    atoms 8, 20       entry O          line   198 file /theoryfs2/ds/metcalf/miniconda2/envs/tf2gpu/share/psi4/basis/cc-pvdz.gbs
    atoms 9-16, 22-28 entry H          line    22 file /theoryfs2/ds/metcalf/miniconda2/envs/tf2gpu/share/psi4/basis/cc-pvdz.gbs
    atoms 21          entry N          line   168 file /theoryfs2/ds/metcalf/miniconda2/envs/tf2gpu/share/psi4/basis/cc-pvdz.gbs

         ---------------------------------------------------------
                                   SCF
               by Justin Turney, Rob Parrish, Andy Simmonett
                          and Daniel G. A. Smith
                              RHF Reference
                        1 Threads,    500 MiB Core
         ---------------------------------------------------------

  ==> Geometry <==

    Molecular point group: c1
    Full point group: C1

    Geometry (in Angstrom), charge = 0, multiplicity = 1:

       Center              X                  Y                   Z               Mass
    ------------   -----------------  -----------------  -----------------  -----------------
         C            2.358215562897     2.396771882528     0.973309702679    12.000000000000
         C           -1.268784437103     1.252771882528     0.976309702679    12.000000000000
         C           -0.113784437103     1.969771882528     0.716309702679    12.000000000000
         C           -1.216784437103     0.162771882528     1.831309702679    12.000000000000
         C            1.104215562897     1.613771882528     1.284309702679    12.000000000000
         C           -0.011784437103    -0.212228117472     2.411309702679    12.000000000000
         C            1.142215562897     0.511771882528     2.138309702679    12.000000000000
         O           -2.343784437103    -0.546228117472     2.092309702679    15.994914619570
         H           -2.214784437103     1.577771882528     0.581309702679     1.007825032230
         H           -0.197784437103     2.863771882528     0.194309702679     1.007825032230
         H           -3.034784437103    -0.395228117472     1.411309702679     1.007825032230
         H            0.006215562897    -1.072228117472     3.045309702679     1.007825032230
         H            2.982215562897     2.467771882528     1.865309702679     1.007825032230
         H            2.065215562897     3.410771882528     0.696309702679     1.007825032230
         H            2.074215562897     0.213771882528     2.597309702679     1.007825032230
         H            2.940526562897     1.961121882528     0.148009702679     1.007825032230
         C            0.284215562897    -0.235228117472    -2.199690297321    12.000000000000
         C            0.832215562897     0.079771882528    -3.596690297321    12.000000000000
         C           -0.053784437103    -1.700228117472    -2.011690297321    12.000000000000
         O            0.001215562897    -2.496228117472    -2.944690297321    15.994914619570
         N           -0.416784437103    -2.067228117472    -0.793690297321    14.003074004430
         H            1.006215562897     0.044771882528    -1.437690297321     1.007825032230
         H           -0.625784437103     0.339771882528    -2.028690297321     1.007825032230
         H            0.150215562897    -0.370228117472    -4.320690297321     1.007825032230
         H           -0.763784437103    -3.001228117472    -0.678690297321     1.007825032230
         H           -0.482784437103    -1.385228117472    -0.051690297321     1.007825032230
         H            1.839154562897    -0.343368117472    -3.727180297321     1.007825032230
         H            0.835827562897     1.164231882528    -3.780920297321     1.007825032230

  Running in c1 symmetry.

  Rotational constants: A =      0.03047  B =      0.01627  C =      0.01255 [cm^-1]
  Rotational constants: A =    913.51053  B =    487.64808  C =    376.32823 [MHz]
  Nuclear repulsion =  776.926216890185628

  Charge       = 0
  Multiplicity = 1
  Electrons    = 98
  Nalpha       = 49
  Nbeta        = 49

  ==> Algorithm <==

  SCF Algorithm Type is PK.
  DIIS enabled.
  MOM disabled.
  Fractional occupation disabled.
  Guess Type is SAD.
  Energy threshold   = 1.00e-06
  Density threshold  = 1.00e-10
  Integral threshold = 0.00e+00

  ==> Primary Basis <==

  Basis Set: CC-PVDZ
    Blend: CC-PVDZ
    Number of shells: 123
    Number of basis function: 257
    Number of Cartesian functions: 270
    Spherical Harmonics?: true
    Max angular momentum: 2

  ==> Pre-Iterations <==

   -------------------------------------------------------
    Irrep   Nso     Nmo     Nalpha   Nbeta   Ndocc  Nsocc
   -------------------------------------------------------
     A        257     257       0       0       0       0
   -------------------------------------------------------
    Total     257     257      49      49      49       0
   -------------------------------------------------------

  ==> Integral Setup <==

  Using integral reordering PK algorithm.
  Sizing the integral batches needed.
  Building batch lookup table.
   Calculation information:
      Number of atoms:                  28
      Number of AO shells:             123
      Number of primitives:            361
      Number of atomic orbitals:       270
      Number of basis functions:       257

      Integral cutoff                 1.00e-12
      Number of threads:                 1

	Batch   1 pq = [       0,    9405] index = [             0,44231715] size =     44231715
	Batch   2 pq = [    9405,   13301] index = [      44231715,88464951] size =     44233236
	Batch   3 pq = [   13301,   16290] index = [      88464951,132690195] size =     44225244
	Batch   4 pq = [   16290,   18810] index = [     132690195,176917455] size =     44227260
	Batch   5 pq = [   18810,   21030] index = [     176917455,221140965] size =     44223510
	Batch   6 pq = [   21030,   23037] index = [     221140965,265363203] size =     44222238
	Batch   7 pq = [   23037,   24883] index = [     265363203,309594286] size =     44231083
	Batch   8 pq = [   24883,   26601] index = [     309594286,353819901] size =     44225615
	Batch   9 pq = [   26601,   28214] index = [     353819901,398029005] size =     44209104
	Batch  10 pq = [   28214,   29740] index = [     398029005,442248670] size =     44219665
	Batch  11 pq = [   29740,   31191] index = [     442248670,486454836] size =     44206166
	Batch  12 pq = [   31191,   32578] index = [     486454836,530679331] size =     44224495
	Batch  13 pq = [   32578,   33153] index = [     530679331,549577281] size =     18897950
  Task number: 50
  Buffer size: 11059200
  Buffer per thread: 2
  We computed 30704445 shell quartets total.
  Whereas there are 29081751 unique shell quartets.
     5.58 percent of shell quartets recomputed by reordering.

  ==> DiskJK: Disk-Based J/K Matrices <==

    J tasked:                  Yes
    K tasked:                  Yes
    wK tasked:                  No
    Memory [MiB]:              375
    Schwarz Cutoff:          1E-12

    OpenMP threads:              1

  Minimum eigenvalue in the overlap matrix is 3.1766785684E-04.
  Using Symmetric Orthogonalization.

  SCF Guess: Superposition of Atomic Densities via on-the-fly atomic UHF.

  ==> Iterations <==

                        Total Energy        Delta E     RMS |[F,P]|

   @RHF iter SAD:  -590.38473881664777   -5.90385e+02   0.00000e+00
   @RHF iter   1:  -591.30474051909209   -9.20002e-01   3.01090e-03 DIIS
   @RHF iter   2:  -591.58304096655445   -2.78300e-01   1.55125e-03 DIIS
   @RHF iter   3:  -591.64669721447501   -6.36562e-02   3.67990e-04 DIIS
   @RHF iter   4:  -591.65187481902217   -5.17760e-03   1.49395e-04 DIIS
   @RHF iter   5:  -591.65273331242827   -8.58493e-04   2.18958e-05 DIIS
   @RHF iter   6:  -591.65277349377004   -4.01813e-05   9.60649e-06 DIIS
   @RHF iter   7:  -591.65277946787660   -5.97411e-06   3.75488e-06 DIIS
   @RHF iter   8:  -591.65278076066647   -1.29279e-06   1.50810e-06 DIIS
   @RHF iter   9:  -591.65278095359577   -1.92929e-07   5.34696e-07 DIIS
   @RHF iter  10:  -591.65278097791338   -2.43176e-08   2.00027e-07 DIIS
   @RHF iter  11:  -591.65278098145609   -3.54271e-09   6.58836e-08 DIIS
   @RHF iter  12:  -591.65278098192664   -4.70550e-10   3.15074e-08 DIIS
   @RHF iter  13:  -591.65278098203930   -1.12664e-10   1.33288e-08 DIIS
   @RHF iter  14:  -591.65278098207466   -3.53566e-11   5.87472e-09 DIIS
   @RHF iter  15:  -591.65278098208057   -5.91172e-12   2.20802e-09 DIIS
   @RHF iter  16:  -591.65278098207864    1.93268e-12   7.11446e-10 DIIS
   @RHF iter  17:  -591.65278098207739    1.25056e-12   2.65778e-10 DIIS
   @RHF iter  18:  -591.65278098208091   -3.52429e-12   7.71056e-11 DIIS
  Energy and wave function converged.

  ==> Post-Iterations <==

    Orbital Energies [Eh]
    ---------------------

    Doubly Occupied:

       1A    -20.599369     2A    -20.496340     3A    -15.573829
       4A    -11.333630     5A    -11.313224     6A    -11.253743
       7A    -11.248997     8A    -11.247771     9A    -11.246264
      10A    -11.245020    11A    -11.239978    12A    -11.230557
      13A    -11.216318    14A     -1.414527    15A     -1.360974
      16A     -1.207111    17A     -1.169863    18A     -1.052597
      19A     -1.038700    20A     -1.036818    21A     -0.940335
      22A     -0.880876    23A     -0.863006    24A     -0.819148
      25A     -0.772145    26A     -0.748315    27A     -0.713555
      28A     -0.685074    29A     -0.659174    30A     -0.655670
      31A     -0.629347    32A     -0.627489    33A     -0.608817
      34A     -0.603082    35A     -0.583650    36A     -0.579217
      37A     -0.576173    38A     -0.542326    39A     -0.537074
      40A     -0.513611    41A     -0.512691    42A     -0.500125
      43A     -0.497803    44A     -0.485072    45A     -0.480106
      46A     -0.401702    47A     -0.394980    48A     -0.356037
      49A     -0.319740

    Virtual:

      50A      0.111988    51A      0.136546    52A      0.158002
      53A      0.167281    54A      0.193353    55A      0.198719
      56A      0.206115    57A      0.217779    58A      0.221225
      59A      0.241472    60A      0.250714    61A      0.256216
      62A      0.265749    63A      0.272183    64A      0.281644
      65A      0.290396    66A      0.302093    67A      0.329033
      68A      0.357869    69A      0.368857    70A      0.389009
      71A      0.417547    72A      0.430964    73A      0.444021
      74A      0.468857    75A      0.483377    76A      0.486893
      77A      0.503125    78A      0.535555    79A      0.602779
      80A      0.608006    81A      0.609815    82A      0.622887
      83A      0.637125    84A      0.658251    85A      0.661369
      86A      0.666317    87A      0.690051    88A      0.702528
      89A      0.716541    90A      0.724470    91A      0.728005
      92A      0.735294    93A      0.751814    94A      0.758338
      95A      0.762126    96A      0.785714    97A      0.798337
      98A      0.807987    99A      0.827766   100A      0.836965
     101A      0.837042   102A      0.843629   103A      0.865512
     104A      0.871090   105A      0.873358   106A      0.874360
     107A      0.887128   108A      0.893569   109A      0.900160
     110A      0.903018   111A      0.913664   112A      0.918768
     113A      0.928037   114A      0.930584   115A      0.940131
     116A      0.949712   117A      0.971512   118A      0.974542
     119A      0.990933   120A      1.006534   121A      1.012664
     122A      1.034430   123A      1.053167   124A      1.083593
     125A      1.111721   126A      1.118333   127A      1.127368
     128A      1.128394   129A      1.135924   130A      1.158548
     131A      1.182704   132A      1.217866   133A      1.237509
     134A      1.243777   135A      1.253798   136A      1.269387
     137A      1.279564   138A      1.297240   139A      1.307790
     140A      1.312602   141A      1.329983   142A      1.341932
     143A      1.356927   144A      1.371234   145A      1.381631
     146A      1.413786   147A      1.426014   148A      1.449883
     149A      1.462742   150A      1.483719   151A      1.496360
     152A      1.523458   153A      1.541933   154A      1.552595
     155A      1.600737   156A      1.613823   157A      1.639453
     158A      1.664083   159A      1.678416   160A      1.692628
     161A      1.695013   162A      1.723217   163A      1.739048
     164A      1.749246   165A      1.774010   166A      1.780507
     167A      1.788229   168A      1.794315   169A      1.842006
     170A      1.852850   171A      1.869007   172A      1.876180
     173A      1.885099   174A      1.890647   175A      1.892364
     176A      1.902772   177A      1.908797   178A      1.924361
     179A      1.929725   180A      1.935486   181A      1.947775
     182A      1.959858   183A      1.964976   184A      1.971603
     185A      1.989340   186A      2.000070   187A      2.010579
     188A      2.022457   189A      2.031441   190A      2.038283
     191A      2.050977   192A      2.053989   193A      2.060924
     194A      2.078233   195A      2.090976   196A      2.125267
     197A      2.144035   198A      2.164504   199A      2.172070
     200A      2.196801   201A      2.207227   202A      2.232243
     203A      2.241071   204A      2.251880   205A      2.272319
     206A      2.286968   207A      2.297746   208A      2.331772
     209A      2.343747   210A      2.351333   211A      2.373751
     212A      2.414070   213A      2.427897   214A      2.438276
     215A      2.480327   216A      2.486206   217A      2.495089
     218A      2.520724   219A      2.555407   220A      2.564299
     221A      2.578738   222A      2.597316   223A      2.618843
     224A      2.627858   225A      2.646723   226A      2.684033
     227A      2.757257   228A      2.761118   229A      2.770885
     230A      2.774810   231A      2.785769   232A      2.829506
     233A      2.834698   234A      2.841443   235A      2.895321
     236A      2.900967   237A      2.911265   238A      2.963801
     239A      2.991700   240A      3.014753   241A      3.043315
     242A      3.086958   243A      3.112346   244A      3.124011
     245A      3.166084   246A      3.245072   247A      3.305815
     248A      3.338264   249A      3.377938   250A      3.522464
     251A      3.552985   252A      3.576902   253A      3.667112
     254A      3.881207   255A      3.915385   256A      3.980934
     257A      4.142188

    Final Occupation by Irrep:
              A
    DOCC [    49 ]

  @RHF Final Energy:  -591.65278098208091

   => Energetics <=

    Nuclear Repulsion Energy =            776.9262168901856285
    One-Electron Energy =               -2347.1340547146201061
    Two-Electron Energy =                 978.5550568423536788
    Total Energy =                       -591.6527809820809125

Computation Completed

Properties will be evaluated at   0.000000,   0.000000,   0.000000 [a0]

Properties computed using the SCF density matrix

  Nuclear Dipole Moment: [e a0]
     X:     6.1586      Y:     7.0001      Z:    -5.1451

  Electronic Dipole Moment: [e a0]
     X:    -6.4559      Y:    -5.7034      Z:     6.2486

  Dipole Moment: [e a0]
     X:    -0.2973      Y:     1.2967      Z:     1.1035     Total:     1.7285

  Dipole Moment: [D]
     X:    -0.7556      Y:     3.2960      Z:     2.8048     Total:     4.3933

*** tstop() called on ds3 at Mon Apr 27 06:02:34 2020
Module time:
	user time   =     225.18 seconds =       3.75 minutes
	system time =      82.15 seconds =       1.37 minutes
	total time  =        298 seconds =       4.97 minutes
Total time:
	user time   =     225.18 seconds =       3.75 minutes
	system time =      82.15 seconds =       1.37 minutes
	total time  =        298 seconds =       4.97 minutes
                                     G D M A

                                 by Anthony Stone

                           version 2.2.06, 22 June 2011

               Distributed Multipoles from Gaussian wavefunctions

Starting at 6:2:34 on 27 Apr 2020

Using SCF density matrix from file ./SSI/SSI-009TYR-033ASN-1-dimer.test.32061.fchk

                         Distributed Multipole Analysis

Standard DMA

Positions and radii in angstrom
Multipole moments in atomic units, ea_0^k for rank k

C          x =  2.358216  y =  2.396772  z =  0.973310 angstrom
           Maximum rank =  0   Radius =  0.650 angstrom
                   Q00  =  -0.200033

C          x = -1.268784  y =  1.252772  z =  0.976310 angstrom
           Maximum rank =  0   Radius =  0.650 angstrom
                   Q00  =  -0.180417

C          x = -0.113784  y =  1.969772  z =  0.716310 angstrom
           Maximum rank =  0   Radius =  0.650 angstrom
                   Q00  =   0.066214

C          x = -1.216784  y =  0.162772  z =  1.831310 angstrom
           Maximum rank =  0   Radius =  0.650 angstrom
                   Q00  =   0.264273

C          x =  1.104216  y =  1.613772  z =  1.284310 angstrom
           Maximum rank =  0   Radius =  0.650 angstrom
                   Q00  =  -0.141804

C          x = -0.011784  y = -0.212228  z =  2.411310 angstrom
           Maximum rank =  0   Radius =  0.650 angstrom
                   Q00  =  -0.098478

C          x =  1.142216  y =  0.511772  z =  2.138310 angstrom
           Maximum rank =  0   Radius =  0.650 angstrom
                   Q00  =  -0.052698

O          x = -2.343784  y = -0.546228  z =  2.092310 angstrom
           Maximum rank =  0   Radius =  0.650 angstrom
                   Q00  =  -0.668919

H          x = -2.214784  y =  1.577772  z =  0.581310 angstrom
           Maximum rank =  0   Radius =  0.325 angstrom
                   Q00  =   0.076107

H          x = -0.197784  y =  2.863772  z =  0.194310 angstrom
           Maximum rank =  0   Radius =  0.325 angstrom
                   Q00  =   0.073925

H          x = -3.034784  y = -0.395228  z =  1.411310 angstrom
           Maximum rank =  0   Radius =  0.325 angstrom
                   Q00  =   0.416190

H          x =  0.006216  y = -1.072228  z =  3.045310 angstrom
           Maximum rank =  0   Radius =  0.325 angstrom
                   Q00  =   0.084191

H          x =  2.982216  y =  2.467772  z =  1.865310 angstrom
           Maximum rank =  0   Radius =  0.325 angstrom
                   Q00  =   0.100944

H          x =  2.065216  y =  3.410772  z =  0.696310 angstrom
           Maximum rank =  0   Radius =  0.325 angstrom
                   Q00  =   0.096805

H          x =  2.074216  y =  0.213772  z =  2.597310 angstrom
           Maximum rank =  0   Radius =  0.325 angstrom
                   Q00  =   0.068681

H          x =  2.940527  y =  1.961122  z =  0.148010 angstrom
           Maximum rank =  0   Radius =  0.325 angstrom
                   Q00  =   0.102728

C          x =  0.284216  y = -0.235228  z = -2.199690 angstrom
           Maximum rank =  0   Radius =  0.650 angstrom
                   Q00  =  -0.186104

C          x =  0.832216  y =  0.079772  z = -3.596690 angstrom
           Maximum rank =  0   Radius =  0.650 angstrom
                   Q00  =  -0.206477

C          x = -0.053784  y = -1.700228  z = -2.011690 angstrom
           Maximum rank =  0   Radius =  0.650 angstrom
                   Q00  =   0.888126

O          x =  0.001216  y = -2.496228  z = -2.944690 angstrom
           Maximum rank =  0   Radius =  0.650 angstrom
                   Q00  =  -0.823610

N          x = -0.416784  y = -2.067228  z = -0.793690 angstrom
           Maximum rank =  0   Radius =  0.650 angstrom
                   Q00  =  -0.568955

H          x =  1.006216  y =  0.044772  z = -1.437690 angstrom
           Maximum rank =  0   Radius =  0.325 angstrom
                   Q00  =   0.085535

H          x = -0.625784  y =  0.339772  z = -2.028690 angstrom
           Maximum rank =  0   Radius =  0.325 angstrom
                   Q00  =   0.089076

H          x =  0.150216  y = -0.370228  z = -4.320690 angstrom
           Maximum rank =  0   Radius =  0.325 angstrom
                   Q00  =   0.109420

H          x = -0.763784  y = -3.001228  z = -0.678690 angstrom
           Maximum rank =  0   Radius =  0.325 angstrom
                   Q00  =   0.211082

H          x = -0.482784  y = -1.385228  z = -0.051690 angstrom
           Maximum rank =  0   Radius =  0.325 angstrom
                   Q00  =   0.225443

H          x =  1.839155  y = -0.343368  z = -3.727180 angstrom
           Maximum rank =  0   Radius =  0.325 angstrom
                   Q00  =   0.095804

H          x =  0.835828  y =  1.164232  z = -3.780920 angstrom
           Maximum rank =  0   Radius =  0.325 angstrom
                   Q00  =   0.072955

Total multipoles referred to origin at
           x =   0.000000,  y =    0.000000,  z =    0.000000 angstrom
                   Q00  =  -0.000000

Finished at 6:2:34 on 27 Apr 2020

  DMA results are available in the Python driver through the
	  variable('DMA DISTRIBUTED MULTIPOLES')
  and
	  variable('DMA TOTAL MULTIPOLES')
  commands.

    Psi4 stopped on: Monday, 27 April 2020 06:02AM
    Psi4 wall time for execution: 0:04:58.29

*** Psi4 exiting successfully. Buy a developer a beer!
