                               Psi4 1.3.2 release

  ==> Input File <==

--------------------------------------------------------------------------
import numpy as np
set {scf_type pk
basis cc-pvdz
d_convergence 10
gdma_switch   0
gdma_limit    0
gdma_origin   [ 0.0,  0.0,  0.0 ]
}
molecule test {
    units Angstrom
    0 1
    --
    0 1
    C                2.944510713606408     0.414422474160888     1.414191410213229
    C                4.096510713606408     1.101422474160888     2.124191410213230
    H                3.240510713606408    -0.581577525839112     1.093191410213230
    H                2.098510713606408     0.324422474160888     2.096191410213229
    H                2.631510713606408     0.993422474160888     0.546191410213230
    H                3.738510713606408     2.046422474160888     2.528191410213230
    H                4.906240713606408     1.280643474160888     1.401549410213229
    H                4.451150713606408     0.474045474160888     2.955234410213230
    C               -1.371489286393592    -1.269577525839112     2.219191410213230
    C               -0.021489286393592    -1.015577525839112     0.100191410213230
    C               -1.168489286393592    -0.713577525839112     0.831191410213230
    C                0.161510713606408    -0.497577525839112    -1.179808589786771
    C               -0.820489286393592     0.286422474160888    -1.766808589786770
    C               -2.138489286393592     0.092422474160888     0.246191410213230
    C               -1.979489286393592     0.575422474160888    -1.052808589786770
    O               -0.608489286393592     0.751422474160888    -3.033808589786771
    H                0.750510713606408    -1.628577525839112     0.545191410213230
    H                1.076510713606408    -0.717577525839112    -1.709808589786771
    H               -2.267489286393591    -0.832577525839112     2.663191410213230
    H               -0.518489286393592    -0.953577525839112     2.821191410213229
    H               -3.038489286393592     0.336422474160888     0.796191410213229
    H                0.318510713606408     0.723422474160888    -3.285808589786770
    H               -2.737489286393592     1.194422474160888    -1.507808589786770
    H               -1.451709286393592    -2.366195525839113     2.250707410213230

}
e, wfn = energy('scf', return_wfn=True)
gdma(wfn)
dmavals = variable('DMA DISTRIBUTED MULTIPOLES')
charges = np.array(dmavals)
print(charges)
np.save('SSI-007LEU-096TYR-1-dimer.npy', np.array(charges))--------------------------------------------------------------------------

*** tstart() called on ds3
*** at Mon Apr 27 21:00:19 2020

   => Loading Basis Set <=

    Name: CC-PVDZ
    Role: ORBITAL
    Keyword: BASIS
    atoms 1-2, 9-15  entry C          line   138 file /theoryfs2/ds/metcalf/miniconda2/envs/tf2gpu/share/psi4/basis/cc-pvdz.gbs
    atoms 3-8, 17-24 entry H          line    22 file /theoryfs2/ds/metcalf/miniconda2/envs/tf2gpu/share/psi4/basis/cc-pvdz.gbs
    atoms 16         entry O          line   198 file /theoryfs2/ds/metcalf/miniconda2/envs/tf2gpu/share/psi4/basis/cc-pvdz.gbs

         ---------------------------------------------------------
                                   SCF
               by Justin Turney, Rob Parrish, Andy Simmonett
                          and Daniel G. A. Smith
                              RHF Reference
                        1 Threads,    500 MiB Core
         ---------------------------------------------------------

  ==> Geometry <==

    Molecular point group: c1
    Full point group: C1

    Geometry (in Angstrom), charge = 0, multiplicity = 1:

       Center              X                  Y                   Z               Mass
    ------------   -----------------  -----------------  -----------------  -----------------
         C            2.944510713606     0.414422474161     1.414191410213    12.000000000000
         C            4.096510713606     1.101422474161     2.124191410213    12.000000000000
         H            3.240510713606    -0.581577525839     1.093191410213     1.007825032230
         H            2.098510713606     0.324422474161     2.096191410213     1.007825032230
         H            2.631510713606     0.993422474161     0.546191410213     1.007825032230
         H            3.738510713606     2.046422474161     2.528191410213     1.007825032230
         H            4.906240713606     1.280643474161     1.401549410213     1.007825032230
         H            4.451150713606     0.474045474161     2.955234410213     1.007825032230
         C           -1.371489286394    -1.269577525839     2.219191410213    12.000000000000
         C           -0.021489286394    -1.015577525839     0.100191410213    12.000000000000
         C           -1.168489286394    -0.713577525839     0.831191410213    12.000000000000
         C            0.161510713606    -0.497577525839    -1.179808589787    12.000000000000
         C           -0.820489286394     0.286422474161    -1.766808589787    12.000000000000
         C           -2.138489286394     0.092422474161     0.246191410213    12.000000000000
         C           -1.979489286394     0.575422474161    -1.052808589787    12.000000000000
         O           -0.608489286394     0.751422474161    -3.033808589787    15.994914619570
         H            0.750510713606    -1.628577525839     0.545191410213     1.007825032230
         H            1.076510713606    -0.717577525839    -1.709808589787     1.007825032230
         H           -2.267489286394    -0.832577525839     2.663191410213     1.007825032230
         H           -0.518489286394    -0.953577525839     2.821191410213     1.007825032230
         H           -3.038489286394     0.336422474161     0.796191410213     1.007825032230
         H            0.318510713606     0.723422474161    -3.285808589787     1.007825032230
         H           -2.737489286394     1.194422474161    -1.507808589787     1.007825032230
         H           -1.451709286394    -2.366195525839     2.250707410213     1.007825032230

  Running in c1 symmetry.

  Rotational constants: A =      0.04522  B =      0.02227  C =      0.01635 [cm^-1]
  Rotational constants: A =   1355.71272  B =    667.67611  C =    490.22238 [MHz]
  Nuclear repulsion =  490.639504568559175

  Charge       = 0
  Multiplicity = 1
  Electrons    = 76
  Nalpha       = 38
  Nbeta        = 38

  ==> Algorithm <==

  SCF Algorithm Type is PK.
  DIIS enabled.
  MOM disabled.
  Fractional occupation disabled.
  Guess Type is SAD.
  Energy threshold   = 1.00e-06
  Density threshold  = 1.00e-10
  Integral threshold = 0.00e+00

  ==> Primary Basis <==

  Basis Set: CC-PVDZ
    Blend: CC-PVDZ
    Number of shells: 102
    Number of basis function: 210
    Number of Cartesian functions: 220
    Spherical Harmonics?: true
    Max angular momentum: 2

  ==> Pre-Iterations <==

   -------------------------------------------------------
    Irrep   Nso     Nmo     Nalpha   Nbeta   Ndocc  Nsocc
   -------------------------------------------------------
     A        210     210       0       0       0       0
   -------------------------------------------------------
    Total     210     210      38      38      38       0
   -------------------------------------------------------

  ==> Integral Setup <==

  Using integral reordering PK algorithm.
  Sizing the integral batches needed.
  Building batch lookup table.
   Calculation information:
      Number of atoms:                  24
      Number of AO shells:             102
      Number of primitives:            290
      Number of atomic orbitals:       220
      Number of basis functions:       210

      Integral cutoff                 1.00e-12
      Number of threads:                 1

	Batch   1 pq = [       0,    9405] index = [             0,44231715] size =     44231715
	Batch   2 pq = [    9405,   13301] index = [      44231715,88464951] size =     44233236
	Batch   3 pq = [   13301,   16290] index = [      88464951,132690195] size =     44225244
	Batch   4 pq = [   16290,   18810] index = [     132690195,176917455] size =     44227260
	Batch   5 pq = [   18810,   21030] index = [     176917455,221140965] size =     44223510
	Batch   6 pq = [   21030,   22155] index = [     221140965,245433090] size =     24292125
  Task number: 23
  Buffer size: 11059200
  Buffer per thread: 2
  We computed 11388360 shell quartets total.
  Whereas there are 13799631 unique shell quartets.

  ==> DiskJK: Disk-Based J/K Matrices <==

    J tasked:                  Yes
    K tasked:                  Yes
    wK tasked:                  No
    Memory [MiB]:              375
    Schwarz Cutoff:          1E-12

    OpenMP threads:              1

  Minimum eigenvalue in the overlap matrix is 3.2244020629E-04.
  Using Symmetric Orthogonalization.

  SCF Guess: Superposition of Atomic Densities via on-the-fly atomic UHF.

  ==> Iterations <==

                        Total Energy        Delta E     RMS |[F,P]|

   @RHF iter SAD:  -422.70607907791464   -4.22706e+02   0.00000e+00
   @RHF iter   1:  -423.59828437837177   -8.92205e-01   2.99346e-03 DIIS
   @RHF iter   2:  -423.81628729584770   -2.18003e-01   1.26421e-03 DIIS
   @RHF iter   3:  -423.85153017904156   -3.52429e-02   2.83478e-04 DIIS
   @RHF iter   4:  -423.85439367458275   -2.86350e-03   1.16967e-04 DIIS
   @RHF iter   5:  -423.85474463869218   -3.50964e-04   2.07748e-05 DIIS
   @RHF iter   6:  -423.85476186474557   -1.72261e-05   6.25210e-06 DIIS
   @RHF iter   7:  -423.85476340752990   -1.54278e-06   1.98162e-06 DIIS
   @RHF iter   8:  -423.85476360391124   -1.96381e-07   7.34345e-07 DIIS
   @RHF iter   9:  -423.85476363248341   -2.85722e-08   2.65581e-07 DIIS
   @RHF iter  10:  -423.85476363712536   -4.64195e-09   1.04684e-07 DIIS
   @RHF iter  11:  -423.85476363834238   -1.21702e-09   4.71128e-08 DIIS
   @RHF iter  12:  -423.85476363862506   -2.82682e-10   2.59712e-08 DIIS
   @RHF iter  13:  -423.85476363869572   -7.06564e-11   7.67618e-09 DIIS
   @RHF iter  14:  -423.85476363869680   -1.08002e-12   1.98608e-09 DIIS
   @RHF iter  15:  -423.85476363870168   -4.88853e-12   7.25232e-10 DIIS
   @RHF iter  16:  -423.85476363869833    3.35376e-12   2.49995e-10 DIIS
   @RHF iter  17:  -423.85476363869833    0.00000e+00   1.15218e-10 DIIS
   @RHF iter  18:  -423.85476363869964   -1.30740e-12   5.82217e-11 DIIS
  Energy and wave function converged.

  ==> Post-Iterations <==

    Orbital Energies [Eh]
    ---------------------

    Doubly Occupied:

       1A    -20.579955     2A    -11.297429     3A    -11.237135
       4A    -11.236805     5A    -11.232483     6A    -11.231194
       7A    -11.230307     8A    -11.228355     9A    -11.218866
      10A    -11.215658    11A     -1.396334    12A     -1.150783
      13A     -1.037506    14A     -1.022398    15A     -1.015979
      16A     -0.926262    17A     -0.842773    18A     -0.835528
      19A     -0.801828    20A     -0.731677    21A     -0.666375
      22A     -0.640970    23A     -0.610985    24A     -0.601735
      25A     -0.600204    26A     -0.585114    27A     -0.583762
      28A     -0.573011    29A     -0.560626    30A     -0.523902
      31A     -0.502198    32A     -0.496959    33A     -0.486617
      34A     -0.486084    35A     -0.481234    36A     -0.465911
      37A     -0.336729    38A     -0.302908

    Virtual:

      39A      0.130102    40A      0.155045    41A      0.170674
      42A      0.182087    43A      0.195780    44A      0.208022
      45A      0.215806    46A      0.240926    47A      0.249225
      48A      0.257796    49A      0.269297    50A      0.275204
      51A      0.280945    52A      0.292352    53A      0.301017
      54A      0.343581    55A      0.372639    56A      0.375704
      57A      0.406971    58A      0.427123    59A      0.454530
      60A      0.487319    61A      0.498421    62A      0.514813
      63A      0.584477    64A      0.599939    65A      0.603209
      66A      0.617162    67A      0.632080    68A      0.649397
      69A      0.662192    70A      0.670901    71A      0.688525
      72A      0.699655    73A      0.703775    74A      0.716787
      75A      0.734440    76A      0.744100    77A      0.767990
      78A      0.774149    79A      0.774573    80A      0.794159
      81A      0.796657    82A      0.826429    83A      0.839250
      84A      0.850791    85A      0.876873    86A      0.883184
      87A      0.889907    88A      0.892061    89A      0.896586
      90A      0.898452    91A      0.911683    92A      0.913221
      93A      0.917052    94A      0.926626    95A      0.938324
      96A      0.943130    97A      0.965960    98A      0.994028
      99A      1.003524   100A      1.019061   101A      1.039656
     102A      1.061886   103A      1.121045   104A      1.131815
     105A      1.134459   106A      1.142231   107A      1.146184
     108A      1.171446   109A      1.207145   110A      1.225933
     111A      1.244332   112A      1.249410   113A      1.270956
     114A      1.286607   115A      1.305670   116A      1.315215
     117A      1.343379   118A      1.347392   119A      1.366057
     120A      1.394715   121A      1.475591   122A      1.478669
     123A      1.485634   124A      1.518889   125A      1.525699
     126A      1.558792   127A      1.583636   128A      1.627416
     129A      1.636601   130A      1.675747   131A      1.682428
     132A      1.690092   133A      1.694282   134A      1.734089
     135A      1.748683   136A      1.788476   137A      1.805062
     138A      1.809639   139A      1.851300   140A      1.860535
     141A      1.870601   142A      1.895334   143A      1.898753
     144A      1.907816   145A      1.918827   146A      1.925100
     147A      1.931701   148A      1.943826   149A      1.949971
     150A      1.951989   151A      1.957591   152A      1.961491
     153A      1.968363   154A      1.972516   155A      2.007017
     156A      2.020748   157A      2.038802   158A      2.043644
     159A      2.065680   160A      2.076536   161A      2.084212
     162A      2.104453   163A      2.119568   164A      2.124134
     165A      2.144437   166A      2.188233   167A      2.205282
     168A      2.215524   169A      2.259119   170A      2.272117
     171A      2.306668   172A      2.308223   173A      2.346394
     174A      2.352197   175A      2.367200   176A      2.397686
     177A      2.453802   178A      2.458861   179A      2.463837
     180A      2.486083   181A      2.511676   182A      2.531044
     183A      2.537391   184A      2.567574   185A      2.575931
     186A      2.615342   187A      2.640042   188A      2.739446
     189A      2.766927   190A      2.773689   191A      2.789164
     192A      2.795368   193A      2.813990   194A      2.845394
     195A      2.851921   196A      2.854013   197A      2.893983
     198A      2.952631   199A      2.963688   200A      2.973110
     201A      3.003784   202A      3.084977   203A      3.125500
     204A      3.264597   205A      3.286684   206A      3.359182
     207A      3.571932   208A      3.655959   209A      3.994742
     210A      4.169295

    Final Occupation by Irrep:
              A
    DOCC [    38 ]

  @RHF Final Energy:  -423.85476363869964

   => Energetics <=

    Nuclear Repulsion Energy =            490.6395045685591754
    One-Electron Energy =               -1547.0393711126939706
    Two-Electron Energy =                 632.5451029054351011
    Total Energy =                       -423.8547636386996373

Computation Completed

Properties will be evaluated at   0.000000,   0.000000,   0.000000 [a0]

Properties computed using the SCF density matrix

  Nuclear Dipole Moment: [e a0]
     X:    12.3701      Y:     0.2784      Z:    12.3540

  Electronic Dipole Moment: [e a0]
     X:   -11.8706      Y:    -0.4186      Z:   -12.1005

  Dipole Moment: [e a0]
     X:     0.4995      Y:    -0.1402      Z:     0.2535     Total:     0.5774

  Dipole Moment: [D]
     X:     1.2695      Y:    -0.3563      Z:     0.6444     Total:     1.4676

*** tstop() called on ds3 at Mon Apr 27 21:03:10 2020
Module time:
	user time   =      84.29 seconds =       1.40 minutes
	system time =      35.74 seconds =       0.60 minutes
	total time  =        171 seconds =       2.85 minutes
Total time:
	user time   =      84.29 seconds =       1.40 minutes
	system time =      35.74 seconds =       0.60 minutes
	total time  =        171 seconds =       2.85 minutes
                                     G D M A

                                 by Anthony Stone

                           version 2.2.06, 22 June 2011

               Distributed Multipoles from Gaussian wavefunctions

Starting at 21:3:10 on 27 Apr 2020

Using SCF density matrix from file ./SSI/SSI-007LEU-096TYR-1-dimer.test.20049.fchk

                         Distributed Multipole Analysis

Standard DMA

Positions and radii in angstrom
Multipole moments in atomic units, ea_0^k for rank k

C          x =  2.944511  y =  0.414422  z =  1.414191 angstrom
           Maximum rank =  0   Radius =  0.650 angstrom
                   Q00  =  -0.237585

C          x =  4.096511  y =  1.101422  z =  2.124191 angstrom
           Maximum rank =  0   Radius =  0.650 angstrom
                   Q00  =  -0.227140

H          x =  3.240511  y = -0.581578  z =  1.093191 angstrom
           Maximum rank =  0   Radius =  0.325 angstrom
                   Q00  =   0.070577

H          x =  2.098511  y =  0.324422  z =  2.096191 angstrom
           Maximum rank =  0   Radius =  0.325 angstrom
                   Q00  =   0.077542

H          x =  2.631511  y =  0.993422  z =  0.546191 angstrom
           Maximum rank =  0   Radius =  0.325 angstrom
                   Q00  =   0.082027

H          x =  3.738511  y =  2.046422  z =  2.528191 angstrom
           Maximum rank =  0   Radius =  0.325 angstrom
                   Q00  =   0.080157

H          x =  4.906241  y =  1.280643  z =  1.401549 angstrom
           Maximum rank =  0   Radius =  0.325 angstrom
                   Q00  =   0.076649

H          x =  4.451151  y =  0.474045  z =  2.955234 angstrom
           Maximum rank =  0   Radius =  0.325 angstrom
                   Q00  =   0.077172

C          x = -1.371489  y = -1.269578  z =  2.219191 angstrom
           Maximum rank =  0   Radius =  0.650 angstrom
                   Q00  =  -0.197908

C          x = -0.021489  y = -1.015578  z =  0.100191 angstrom
           Maximum rank =  0   Radius =  0.650 angstrom
                   Q00  =  -0.011774

C          x = -1.168489  y = -0.713578  z =  0.831191 angstrom
           Maximum rank =  0   Radius =  0.650 angstrom
                   Q00  =  -0.139778

C          x =  0.161511  y = -0.497578  z = -1.179809 angstrom
           Maximum rank =  0   Radius =  0.650 angstrom
                   Q00  =  -0.183644

C          x = -0.820489  y =  0.286422  z = -1.766809 angstrom
           Maximum rank =  0   Radius =  0.650 angstrom
                   Q00  =   0.273068

C          x = -2.138489  y =  0.092422  z =  0.246191 angstrom
           Maximum rank =  0   Radius =  0.650 angstrom
                   Q00  =   0.044838

C          x = -1.979489  y =  0.575422  z = -1.052809 angstrom
           Maximum rank =  0   Radius =  0.650 angstrom
                   Q00  =  -0.120393

O          x = -0.608489  y =  0.751422  z = -3.033809 angstrom
           Maximum rank =  0   Radius =  0.650 angstrom
                   Q00  =  -0.646199

H          x =  0.750511  y = -1.628578  z =  0.545191 angstrom
           Maximum rank =  0   Radius =  0.325 angstrom
                   Q00  =   0.069243

H          x =  1.076511  y = -0.717578  z = -1.709809 angstrom
           Maximum rank =  0   Radius =  0.325 angstrom
                   Q00  =   0.069214

H          x = -2.267489  y = -0.832578  z =  2.663191 angstrom
           Maximum rank =  0   Radius =  0.325 angstrom
                   Q00  =   0.096853

H          x = -0.518489  y = -0.953578  z =  2.821191 angstrom
           Maximum rank =  0   Radius =  0.325 angstrom
                   Q00  =   0.094085

H          x = -3.038489  y =  0.336422  z =  0.796191 angstrom
           Maximum rank =  0   Radius =  0.325 angstrom
                   Q00  =   0.064420

H          x =  0.318511  y =  0.723422  z = -3.285809 angstrom
           Maximum rank =  0   Radius =  0.325 angstrom
                   Q00  =   0.407818

H          x = -2.737489  y =  1.194422  z = -1.507809 angstrom
           Maximum rank =  0   Radius =  0.325 angstrom
                   Q00  =   0.080261

H          x = -1.451709  y = -2.366196  z =  2.250707 angstrom
           Maximum rank =  0   Radius =  0.325 angstrom
                   Q00  =   0.100498

Total multipoles referred to origin at
           x =   0.000000,  y =    0.000000,  z =    0.000000 angstrom
                   Q00  =  -0.000000

Finished at 21:3:10 on 27 Apr 2020

  DMA results are available in the Python driver through the
	  variable('DMA DISTRIBUTED MULTIPOLES')
  and
	  variable('DMA TOTAL MULTIPOLES')
  commands.

    Psi4 stopped on: Monday, 27 April 2020 09:03PM
    Psi4 wall time for execution: 0:02:50.43

*** Psi4 exiting successfully. Buy a developer a beer!
