                               Psi4 1.3.2 release

  ==> Input File <==

--------------------------------------------------------------------------
import numpy as np
set {scf_type pk
basis cc-pvdz
d_convergence 10
gdma_switch   0
gdma_limit    0
gdma_origin   [ 0.0,  0.0,  0.0 ]
}
molecule test {
    units Angstrom
    0 1
    --
    0 1
    C               -0.492495459679022     2.071507278182707     0.497826909252299
    C               -0.631495459679022     3.060507278182707     1.666826909252300
    H               -1.001495459679022     1.139507278182707     0.743826909252299
    H               -0.957495459679022     2.501507278182707    -0.389173090747701
    H                0.554504540320978     1.894507278182707     0.255826909252299
    H               -0.049495459679022     3.953507278182707     1.434826909252300
    H               -0.270555459679022     2.617377278182708     2.606696909252300
    H               -1.689856459679022     3.338147278182708     1.779916909252300
    C                0.451504540320978    -1.216492721817293    -0.955173090747701
    C               -0.796495459679022    -2.065492721817293    -1.172173090747700
    C                1.494504540320978    -1.933492721817293    -0.091173090747701
    H                0.904504540320978    -1.012492721817293    -1.927173090747701
    H                0.185504540320978    -0.265492721817293    -0.511173090747701
    H               -1.300495459679022    -2.230492721817293    -0.219173090747701
    H               -0.479495459679022    -3.032492721817293    -1.560173090747700
    H                1.619504540320978    -2.955492721817292    -0.466173090747701
    H                2.453504540320977    -1.419492721817293    -0.217173090747701
    H               -1.503382459679022    -1.587325721817293    -1.866193090747700
    H                1.230854540320978    -1.947484721817293     0.976676909252299

}
e, wfn = energy('scf', return_wfn=True)
gdma(wfn)
dmavals = variable('DMA DISTRIBUTED MULTIPOLES')
charges = np.array(dmavals)
print(charges)
np.save('SSI-041VAL-064LYS-1-dimer.npy', np.array(charges))--------------------------------------------------------------------------

*** tstart() called on ds3
*** at Tue Apr 28 03:23:05 2020

   => Loading Basis Set <=

    Name: CC-PVDZ
    Role: ORBITAL
    Keyword: BASIS
    atoms 1-2, 9-11  entry C          line   138 file /theoryfs2/ds/metcalf/miniconda2/envs/tf2gpu/share/psi4/basis/cc-pvdz.gbs
    atoms 3-8, 12-19 entry H          line    22 file /theoryfs2/ds/metcalf/miniconda2/envs/tf2gpu/share/psi4/basis/cc-pvdz.gbs

         ---------------------------------------------------------
                                   SCF
               by Justin Turney, Rob Parrish, Andy Simmonett
                          and Daniel G. A. Smith
                              RHF Reference
                        1 Threads,    500 MiB Core
         ---------------------------------------------------------

  ==> Geometry <==

    Molecular point group: c1
    Full point group: C1

    Geometry (in Angstrom), charge = 0, multiplicity = 1:

       Center              X                  Y                   Z               Mass
    ------------   -----------------  -----------------  -----------------  -----------------
         C           -0.492495459679     2.071507278183     0.497826909252    12.000000000000
         C           -0.631495459679     3.060507278183     1.666826909252    12.000000000000
         H           -1.001495459679     1.139507278183     0.743826909252     1.007825032230
         H           -0.957495459679     2.501507278183    -0.389173090748     1.007825032230
         H            0.554504540321     1.894507278183     0.255826909252     1.007825032230
         H           -0.049495459679     3.953507278183     1.434826909252     1.007825032230
         H           -0.270555459679     2.617377278183     2.606696909252     1.007825032230
         H           -1.689856459679     3.338147278183     1.779916909252     1.007825032230
         C            0.451504540321    -1.216492721817    -0.955173090748    12.000000000000
         C           -0.796495459679    -2.065492721817    -1.172173090748    12.000000000000
         C            1.494504540321    -1.933492721817    -0.091173090748    12.000000000000
         H            0.904504540321    -1.012492721817    -1.927173090748     1.007825032230
         H            0.185504540321    -0.265492721817    -0.511173090748     1.007825032230
         H           -1.300495459679    -2.230492721817    -0.219173090748     1.007825032230
         H           -0.479495459679    -3.032492721817    -1.560173090748     1.007825032230
         H            1.619504540321    -2.955492721817    -0.466173090748     1.007825032230
         H            2.453504540321    -1.419492721817    -0.217173090748     1.007825032230
         H           -1.503382459679    -1.587325721817    -1.866193090748     1.007825032230
         H            1.230854540321    -1.947484721817     0.976676909252     1.007825032230

  Running in c1 symmetry.

  Rotational constants: A =      0.22757  B =      0.03751  C =      0.03417 [cm^-1]
  Rotational constants: A =   6822.45132  B =   1124.38526  C =   1024.31805 [MHz]
  Nuclear repulsion =  176.483741422890176

  Charge       = 0
  Multiplicity = 1
  Electrons    = 44
  Nalpha       = 22
  Nbeta        = 22

  ==> Algorithm <==

  SCF Algorithm Type is PK.
  DIIS enabled.
  MOM disabled.
  Fractional occupation disabled.
  Guess Type is SAD.
  Energy threshold   = 1.00e-06
  Density threshold  = 1.00e-10
  Integral threshold = 0.00e+00

  ==> Primary Basis <==

  Basis Set: CC-PVDZ
    Blend: CC-PVDZ
    Number of shells: 72
    Number of basis function: 140
    Number of Cartesian functions: 145
    Spherical Harmonics?: true
    Max angular momentum: 2

  ==> Pre-Iterations <==

   -------------------------------------------------------
    Irrep   Nso     Nmo     Nalpha   Nbeta   Ndocc  Nsocc
   -------------------------------------------------------
     A        140     140       0       0       0       0
   -------------------------------------------------------
    Total     140     140      22      22      22       0
   -------------------------------------------------------

  ==> Integral Setup <==

  Using integral reordering PK algorithm.
  Sizing the integral batches needed.
  Building batch lookup table.
   Calculation information:
      Number of atoms:                  19
      Number of AO shells:              72
      Number of primitives:            180
      Number of atomic orbitals:       145
      Number of basis functions:       140

      Integral cutoff                 1.00e-12
      Number of threads:                 1

	Batch   1 pq = [       0,    9405] index = [             0,44231715] size =     44231715
	Batch   2 pq = [    9405,    9870] index = [      44231715,48713385] size =      4481670
  Task number: 5
  Buffer size: 11059200
  Buffer per thread: 2
  We computed 2795391 shell quartets total.
  Whereas there are 3454506 unique shell quartets.

  ==> DiskJK: Disk-Based J/K Matrices <==

    J tasked:                  Yes
    K tasked:                  Yes
    wK tasked:                  No
    Memory [MiB]:              375
    Schwarz Cutoff:          1E-12

    OpenMP threads:              1

  Minimum eigenvalue in the overlap matrix is 5.3079003344E-03.
  Using Symmetric Orthogonalization.

  SCF Guess: Superposition of Atomic Densities via on-the-fly atomic UHF.

  ==> Iterations <==

                        Total Energy        Delta E     RMS |[F,P]|

   @RHF iter SAD:  -196.36503369704599   -1.96365e+02   0.00000e+00
   @RHF iter   1:  -197.31157796443068   -9.46544e-01   3.78930e-03 DIIS
   @RHF iter   2:  -197.47089144022314   -1.59313e-01   1.62852e-03 DIIS
   @RHF iter   3:  -197.49893323933483   -2.80418e-02   3.25950e-04 DIIS
   @RHF iter   4:  -197.50116030290275   -2.22706e-03   4.80003e-05 DIIS
   @RHF iter   5:  -197.50119934873086   -3.90458e-05   1.47033e-05 DIIS
   @RHF iter   6:  -197.50120268765571   -3.33892e-06   2.56126e-06 DIIS
   @RHF iter   7:  -197.50120280394358   -1.16288e-07   4.71039e-07 DIIS
   @RHF iter   8:  -197.50120280869237   -4.74878e-09   1.15683e-07 DIIS
   @RHF iter   9:  -197.50120280896795   -2.75577e-10   3.81972e-08 DIIS
   @RHF iter  10:  -197.50120280900038   -3.24292e-11   8.33870e-09 DIIS
   @RHF iter  11:  -197.50120280900290   -2.52953e-12   1.57085e-09 DIIS
   @RHF iter  12:  -197.50120280900197    9.37916e-13   2.77394e-10 DIIS
   @RHF iter  13:  -197.50120280900217   -1.98952e-13   5.10222e-11 DIIS
  Energy and wave function converged.

  ==> Post-Iterations <==

    Orbital Energies [Eh]
    ---------------------

    Doubly Occupied:

       1A    -11.221086     2A    -11.218789     3A    -11.216467
       4A    -11.215184     5A    -11.214025     6A     -1.052268
       7A     -1.017745     8A     -0.921689     9A     -0.839435
      10A     -0.795251    11A     -0.626308    12A     -0.601494
      13A     -0.596124    14A     -0.593492    15A     -0.545518
      16A     -0.530142    17A     -0.502264    18A     -0.491437
      19A     -0.487204    20A     -0.468148    21A     -0.466374
      22A     -0.463271

    Virtual:

      23A      0.170826    24A      0.195073    25A      0.216735
      26A      0.227831    27A      0.234252    28A      0.252125
      29A      0.259509    30A      0.263451    31A      0.275467
      32A      0.281377    33A      0.296284    34A      0.300714
      35A      0.311053    36A      0.336109    37A      0.377780
      38A      0.414928    39A      0.429048    40A      0.575908
      41A      0.583898    42A      0.600249    43A      0.612089
      44A      0.616999    45A      0.625082    46A      0.629892
      47A      0.672921    48A      0.689070    49A      0.739739
      50A      0.798072    51A      0.811230    52A      0.854030
      53A      0.875083    54A      0.880696    55A      0.889598
      56A      0.892073    57A      0.895144    58A      0.899095
      59A      0.902424    60A      0.904653    61A      0.908849
      62A      0.912452    63A      0.923895    64A      0.933619
      65A      0.947310    66A      0.970675    67A      0.981214
      68A      1.028492    69A      1.118748    70A      1.124321
      71A      1.127787    72A      1.152138    73A      1.226932
      74A      1.345497    75A      1.383798    76A      1.458268
      77A      1.468697    78A      1.480614    79A      1.494875
      80A      1.538345    81A      1.571417    82A      1.649586
      83A      1.665933    84A      1.678298    85A      1.690184
      86A      1.691414    87A      1.710171    88A      1.846258
      89A      1.857134    90A      1.868722    91A      1.877164
      92A      1.886005    93A      1.904745    94A      1.912427
      95A      1.927821    96A      1.937031    97A      1.943223
      98A      1.945276    99A      1.957820   100A      1.961151
     101A      1.963232   102A      1.973747   103A      1.989181
     104A      2.000450   105A      2.009192   106A      2.044910
     107A      2.078820   108A      2.107146   109A      2.112623
     110A      2.128019   111A      2.157897   112A      2.286382
     113A      2.295877   114A      2.302986   115A      2.318756
     116A      2.327423   117A      2.358570   118A      2.452763
     119A      2.474063   120A      2.487179   121A      2.532884
     122A      2.563615   123A      2.573793   124A      2.579606
     125A      2.621734   126A      2.636492   127A      2.754314
     128A      2.761759   129A      2.768674   130A      2.784622
     131A      2.794861   132A      2.817578   133A      2.836072
     134A      2.851793   135A      2.926057   136A      2.944685
     137A      2.952088   138A      2.965975   139A      2.968831
     140A      3.107932

    Final Occupation by Irrep:
              A
    DOCC [    22 ]

  @RHF Final Energy:  -197.50120280900217

   => Energetics <=

    Nuclear Repulsion Energy =            176.4837414228901764
    One-Electron Energy =                -613.8024578594611285
    Two-Electron Energy =                 239.8175136275688146
    Total Energy =                       -197.5012028090021658

Computation Completed

Properties will be evaluated at   0.000000,   0.000000,   0.000000 [a0]

Properties computed using the SCF density matrix

  Nuclear Dipole Moment: [e a0]
     X:    -0.2849      Y:     0.9316      Z:     0.6013

  Electronic Dipole Moment: [e a0]
     X:     0.2873      Y:    -0.8564      Z:    -0.6122

  Dipole Moment: [e a0]
     X:     0.0024      Y:     0.0753      Z:    -0.0110     Total:     0.0761

  Dipole Moment: [D]
     X:     0.0062      Y:     0.1913      Z:    -0.0279     Total:     0.1934

*** tstop() called on ds3 at Tue Apr 28 03:23:25 2020
Module time:
	user time   =      13.76 seconds =       0.23 minutes
	system time =       6.34 seconds =       0.11 minutes
	total time  =         20 seconds =       0.33 minutes
Total time:
	user time   =      13.76 seconds =       0.23 minutes
	system time =       6.34 seconds =       0.11 minutes
	total time  =         20 seconds =       0.33 minutes
                                     G D M A

                                 by Anthony Stone

                           version 2.2.06, 22 June 2011

               Distributed Multipoles from Gaussian wavefunctions

Starting at 3:23:25 on 28 Apr 2020

Using SCF density matrix from file ./SSI/SSI-041VAL-064LYS-1-dimer.test.21992.fchk

                         Distributed Multipole Analysis

Standard DMA

Positions and radii in angstrom
Multipole moments in atomic units, ea_0^k for rank k

C          x = -0.492495  y =  2.071507  z =  0.497827 angstrom
           Maximum rank =  0   Radius =  0.650 angstrom
                   Q00  =  -0.250958

C          x = -0.631495  y =  3.060507  z =  1.666827 angstrom
           Maximum rank =  0   Radius =  0.650 angstrom
                   Q00  =  -0.225558

H          x = -1.001495  y =  1.139507  z =  0.743827 angstrom
           Maximum rank =  0   Radius =  0.325 angstrom
                   Q00  =   0.076692

H          x = -0.957495  y =  2.501507  z = -0.389173 angstrom
           Maximum rank =  0   Radius =  0.325 angstrom
                   Q00  =   0.081122

H          x =  0.554505  y =  1.894507  z =  0.255827 angstrom
           Maximum rank =  0   Radius =  0.325 angstrom
                   Q00  =   0.078850

H          x = -0.049495  y =  3.953507  z =  1.434827 angstrom
           Maximum rank =  0   Radius =  0.325 angstrom
                   Q00  =   0.081375

H          x = -0.270555  y =  2.617377  z =  2.606697 angstrom
           Maximum rank =  0   Radius =  0.325 angstrom
                   Q00  =   0.080397

H          x = -1.689856  y =  3.338147  z =  1.779917 angstrom
           Maximum rank =  0   Radius =  0.325 angstrom
                   Q00  =   0.080420

C          x =  0.451505  y = -1.216493  z = -0.955173 angstrom
           Maximum rank =  0   Radius =  0.650 angstrom
                   Q00  =  -0.090925

C          x = -0.796495  y = -2.065493  z = -1.172173 angstrom
           Maximum rank =  0   Radius =  0.650 angstrom
                   Q00  =  -0.245420

C          x =  1.494505  y = -1.933493  z = -0.091173 angstrom
           Maximum rank =  0   Radius =  0.650 angstrom
                   Q00  =  -0.236632

H          x =  0.904505  y = -1.012493  z = -1.927173 angstrom
           Maximum rank =  0   Radius =  0.325 angstrom
                   Q00  =   0.042148

H          x =  0.185505  y = -0.265493  z = -0.511173 angstrom
           Maximum rank =  0   Radius =  0.325 angstrom
                   Q00  =   0.062391

H          x = -1.300495  y = -2.230493  z = -0.219173 angstrom
           Maximum rank =  0   Radius =  0.325 angstrom
                   Q00  =   0.072740

H          x = -0.479495  y = -3.032493  z = -1.560173 angstrom
           Maximum rank =  0   Radius =  0.325 angstrom
                   Q00  =   0.075289

H          x =  1.619505  y = -2.955493  z = -0.466173 angstrom
           Maximum rank =  0   Radius =  0.325 angstrom
                   Q00  =   0.075057

H          x =  2.453505  y = -1.419493  z = -0.217173 angstrom
           Maximum rank =  0   Radius =  0.325 angstrom
                   Q00  =   0.079958

H          x = -1.503382  y = -1.587326  z = -1.866193 angstrom
           Maximum rank =  0   Radius =  0.325 angstrom
                   Q00  =   0.083280

H          x =  1.230855  y = -1.947485  z =  0.976677 angstrom
           Maximum rank =  0   Radius =  0.325 angstrom
                   Q00  =   0.079773

Total multipoles referred to origin at
           x =   0.000000,  y =    0.000000,  z =    0.000000 angstrom
                   Q00  =  -0.000000

Finished at 3:23:25 on 28 Apr 2020

  DMA results are available in the Python driver through the
	  variable('DMA DISTRIBUTED MULTIPOLES')
  and
	  variable('DMA TOTAL MULTIPOLES')
  commands.

    Psi4 stopped on: Tuesday, 28 April 2020 03:23AM
    Psi4 wall time for execution: 0:00:19.80

*** Psi4 exiting successfully. Buy a developer a beer!
