                               Psi4 1.3.2 release

  ==> Input File <==

--------------------------------------------------------------------------
import numpy as np
set {scf_type pk
basis cc-pvdz
d_convergence 10
gdma_switch   0
gdma_limit    0
gdma_origin   [ 0.0,  0.0,  0.0 ]
}
molecule test {
    units Angstrom
    0 1
    --
    0 1
    C                0.377798324619602     3.048119880467459     1.222027025592810
    C                1.392798324619602     3.504119880467459     2.281027025592810
    C               -0.247201675380398     4.163119880467459     0.377027025592810
    H                0.873798324619602     2.338119880467459     0.558027025592810
    H               -0.432201675380398     2.531119880467459     1.736027025592810
    H                0.885798324619602     4.160119880467460     2.990027025592810
    H                0.543798324619602     4.729119880467460    -0.113972974407190
    H                2.242454324619602     4.028909880467459     1.819847025592810
    H                1.756835324619602     2.640439880467459     2.856817025592810
    H               -0.873428075380398     3.721719880467459    -0.412282974407190
    H               -0.849031175380398     4.857479880467459     0.981727025592810
    C               -1.519201675380399    -0.116880119532541     0.237027025592810
    C               -2.382201675380399    -0.851880119532541     1.249027025592810
    C               -0.493201675380398    -0.999880119532541    -0.416972974407190
    C                0.700798324619602    -1.285880119532541     0.218027025592810
    C               -0.750201675380398    -1.576880119532541    -1.665972974407190
    C                1.626798324619602    -2.141880119532541    -0.378972974407190
    C                0.182798324619602    -2.396880119532541    -2.265972974407191
    C                1.356798324619602    -2.696880119532541    -1.613972974407190
    H               -2.152201675380398     0.343119880467459    -0.523972974407190
    H               -0.988201675380398     0.677119880467459     0.750027025592810
    H               -1.721201675380398    -1.378880119532541     1.940027025592810
    H                0.914798324619602    -0.858880119532541     1.188027025592810
    H               -1.690201675380398    -1.383880119532541    -2.162972974407190
    H                2.547798324619602    -2.388880119532541     0.132027025592810
    H               -0.026201675380398    -2.841880119532541    -3.227972974407190
    H                2.054798324619602    -3.392880119532541    -2.052972974407191
    H               -3.044566675380398    -1.567230119532541     0.739577025592810
    H               -2.969322675380398    -0.120520119532541     1.823827025592810

}
e, wfn = energy('scf', return_wfn=True)
gdma(wfn)
dmavals = variable('DMA DISTRIBUTED MULTIPOLES')
charges = np.array(dmavals)
print(charges)
np.save('SSI-060LEU-095PHE-2-dimer.npy', np.array(charges))--------------------------------------------------------------------------

*** tstart() called on ds3
*** at Mon Apr 27 13:28:52 2020

   => Loading Basis Set <=

    Name: CC-PVDZ
    Role: ORBITAL
    Keyword: BASIS
    atoms 1-3, 12-19  entry C          line   138 file /theoryfs2/ds/metcalf/miniconda2/envs/tf2gpu/share/psi4/basis/cc-pvdz.gbs
    atoms 4-11, 20-29 entry H          line    22 file /theoryfs2/ds/metcalf/miniconda2/envs/tf2gpu/share/psi4/basis/cc-pvdz.gbs

         ---------------------------------------------------------
                                   SCF
               by Justin Turney, Rob Parrish, Andy Simmonett
                          and Daniel G. A. Smith
                              RHF Reference
                        1 Threads,    500 MiB Core
         ---------------------------------------------------------

  ==> Geometry <==

    Molecular point group: c1
    Full point group: C1

    Geometry (in Angstrom), charge = 0, multiplicity = 1:

       Center              X                  Y                   Z               Mass
    ------------   -----------------  -----------------  -----------------  -----------------
         C            0.377798324620     3.048119880467     1.222027025593    12.000000000000
         C            1.392798324620     3.504119880467     2.281027025593    12.000000000000
         C           -0.247201675380     4.163119880467     0.377027025593    12.000000000000
         H            0.873798324620     2.338119880467     0.558027025593     1.007825032230
         H           -0.432201675380     2.531119880467     1.736027025593     1.007825032230
         H            0.885798324620     4.160119880467     2.990027025593     1.007825032230
         H            0.543798324620     4.729119880467    -0.113972974407     1.007825032230
         H            2.242454324620     4.028909880467     1.819847025593     1.007825032230
         H            1.756835324620     2.640439880467     2.856817025593     1.007825032230
         H           -0.873428075380     3.721719880467    -0.412282974407     1.007825032230
         H           -0.849031175380     4.857479880467     0.981727025593     1.007825032230
         C           -1.519201675380    -0.116880119533     0.237027025593    12.000000000000
         C           -2.382201675380    -0.851880119533     1.249027025593    12.000000000000
         C           -0.493201675380    -0.999880119533    -0.416972974407    12.000000000000
         C            0.700798324620    -1.285880119533     0.218027025593    12.000000000000
         C           -0.750201675380    -1.576880119533    -1.665972974407    12.000000000000
         C            1.626798324620    -2.141880119533    -0.378972974407    12.000000000000
         C            0.182798324620    -2.396880119533    -2.265972974407    12.000000000000
         C            1.356798324620    -2.696880119533    -1.613972974407    12.000000000000
         H           -2.152201675380     0.343119880467    -0.523972974407     1.007825032230
         H           -0.988201675380     0.677119880467     0.750027025593     1.007825032230
         H           -1.721201675380    -1.378880119533     1.940027025593     1.007825032230
         H            0.914798324620    -0.858880119533     1.188027025593     1.007825032230
         H           -1.690201675380    -1.383880119533    -2.162972974407     1.007825032230
         H            2.547798324620    -2.388880119533     0.132027025593     1.007825032230
         H           -0.026201675380    -2.841880119533    -3.227972974407     1.007825032230
         H            2.054798324620    -3.392880119533    -2.052972974407     1.007825032230
         H           -3.044566675380    -1.567230119533     0.739577025593     1.007825032230
         H           -2.969322675380    -0.120520119533     1.823827025593     1.007825032230

  Running in c1 symmetry.

  Rotational constants: A =      0.04603  B =      0.01431  C =      0.01290 [cm^-1]
  Rotational constants: A =   1379.91862  B =    428.87348  C =    386.65008 [MHz]
  Nuclear repulsion =  566.578580222959999

  Charge       = 0
  Multiplicity = 1
  Electrons    = 84
  Nalpha       = 42
  Nbeta        = 42

  ==> Algorithm <==

  SCF Algorithm Type is PK.
  DIIS enabled.
  MOM disabled.
  Fractional occupation disabled.
  Guess Type is SAD.
  Energy threshold   = 1.00e-06
  Density threshold  = 1.00e-10
  Integral threshold = 0.00e+00

  ==> Primary Basis <==

  Basis Set: CC-PVDZ
    Blend: CC-PVDZ
    Number of shells: 120
    Number of basis function: 244
    Number of Cartesian functions: 255
    Spherical Harmonics?: true
    Max angular momentum: 2

  ==> Pre-Iterations <==

   -------------------------------------------------------
    Irrep   Nso     Nmo     Nalpha   Nbeta   Ndocc  Nsocc
   -------------------------------------------------------
     A        244     244       0       0       0       0
   -------------------------------------------------------
    Total     244     244      42      42      42       0
   -------------------------------------------------------

  ==> Integral Setup <==

  Using integral reordering PK algorithm.
  Sizing the integral batches needed.
  Building batch lookup table.
   Calculation information:
      Number of atoms:                  29
      Number of AO shells:             120
      Number of primitives:            332
      Number of atomic orbitals:       255
      Number of basis functions:       244

      Integral cutoff                 1.00e-12
      Number of threads:                 1

	Batch   1 pq = [       0,    9405] index = [             0,44231715] size =     44231715
	Batch   2 pq = [    9405,   13301] index = [      44231715,88464951] size =     44233236
	Batch   3 pq = [   13301,   16290] index = [      88464951,132690195] size =     44225244
	Batch   4 pq = [   16290,   18810] index = [     132690195,176917455] size =     44227260
	Batch   5 pq = [   18810,   21030] index = [     176917455,221140965] size =     44223510
	Batch   6 pq = [   21030,   23037] index = [     221140965,265363203] size =     44222238
	Batch   7 pq = [   23037,   24883] index = [     265363203,309594286] size =     44231083
	Batch   8 pq = [   24883,   26601] index = [     309594286,353819901] size =     44225615
	Batch   9 pq = [   26601,   28214] index = [     353819901,398029005] size =     44209104
	Batch  10 pq = [   28214,   29740] index = [     398029005,442248670] size =     44219665
	Batch  11 pq = [   29740,   29890] index = [     442248670,446720995] size =      4472325
  Task number: 41
  Buffer size: 11059200
  Buffer per thread: 2
  We computed 23665010 shell quartets total.
  Whereas there are 26357430 unique shell quartets.

  ==> DiskJK: Disk-Based J/K Matrices <==

    J tasked:                  Yes
    K tasked:                  Yes
    wK tasked:                  No
    Memory [MiB]:              375
    Schwarz Cutoff:          1E-12

    OpenMP threads:              1

  Minimum eigenvalue in the overlap matrix is 2.9675844773E-04.
  Using Symmetric Orthogonalization.

  SCF Guess: Superposition of Atomic Densities via on-the-fly atomic UHF.

  ==> Iterations <==

                        Total Energy        Delta E     RMS |[F,P]|

   @RHF iter SAD:  -425.95886494436417   -4.25959e+02   0.00000e+00
   @RHF iter   1:  -426.78019321673275   -8.21328e-01   2.61487e-03 DIIS
   @RHF iter   2:  -427.02282809050217   -2.42635e-01   1.10193e-03 DIIS
   @RHF iter   3:  -427.06220870156989   -3.93806e-02   2.38671e-04 DIIS
   @RHF iter   4:  -427.06545997514087   -3.25127e-03   4.99726e-05 DIIS
   @RHF iter   5:  -427.06555724339262   -9.72683e-05   1.82604e-05 DIIS
   @RHF iter   6:  -427.06557009945720   -1.28561e-05   4.38644e-06 DIIS
   @RHF iter   7:  -427.06557102213759   -9.22680e-07   1.17718e-06 DIIS
   @RHF iter   8:  -427.06557110077819   -7.86406e-08   3.51975e-07 DIIS
   @RHF iter   9:  -427.06557111587108   -1.50929e-08   1.66146e-07 DIIS
   @RHF iter  10:  -427.06557112044823   -4.57715e-09   8.29145e-08 DIIS
   @RHF iter  11:  -427.06557112172089   -1.27267e-09   2.72767e-08 DIIS
   @RHF iter  12:  -427.06557112181747   -9.65770e-11   1.09078e-08 DIIS
   @RHF iter  13:  -427.06557112182855   -1.10845e-11   4.19976e-09 DIIS
   @RHF iter  14:  -427.06557112183003   -1.47793e-12   1.23053e-09 DIIS
   @RHF iter  15:  -427.06557112182929    7.38964e-13   4.62875e-10 DIIS
   @RHF iter  16:  -427.06557112182958   -2.84217e-13   2.13194e-10 DIIS
   @RHF iter  17:  -427.06557112183333   -3.75167e-12   8.85836e-11 DIIS
  Energy and wave function converged.

  ==> Post-Iterations <==

    Orbital Energies [Eh]
    ---------------------

    Doubly Occupied:

       1A    -11.235139     2A    -11.233438     3A    -11.230806
       4A    -11.228834     5A    -11.227983     6A    -11.226551
       7A    -11.224333     8A    -11.222144     9A    -11.221837
      10A    -11.219468    11A    -11.218627    12A     -1.157332
      13A     -1.066010    14A     -1.051130    15A     -1.012617
      16A     -0.983224    17A     -0.926054    18A     -0.860309
      19A     -0.826135    20A     -0.797588    21A     -0.784042
      22A     -0.692233    23A     -0.642642    24A     -0.632180
      25A     -0.626267    26A     -0.594079    27A     -0.590493
      28A     -0.587064    29A     -0.577218    30A     -0.548893
      31A     -0.542233    32A     -0.534841    33A     -0.516200
      34A     -0.499404    35A     -0.484206    36A     -0.478531
      37A     -0.474662    38A     -0.470029    39A     -0.468437
      40A     -0.458727    41A     -0.332543    42A     -0.322164

    Virtual:

      43A      0.137371    44A      0.141430    45A      0.169036
      46A      0.189413    47A      0.199454    48A      0.203337
      49A      0.220998    50A      0.224155    51A      0.237637
      52A      0.244591    53A      0.251968    54A      0.258896
      55A      0.269583    56A      0.278203    57A      0.283889
      58A      0.294648    59A      0.301133    60A      0.301513
      61A      0.317466    62A      0.335923    63A      0.349685
      64A      0.379350    65A      0.391885    66A      0.426702
      67A      0.433201    68A      0.456687    69A      0.474855
      70A      0.492982    71A      0.502994    72A      0.566910
      73A      0.572949    74A      0.598224    75A      0.601790
      76A      0.606970    77A      0.618398    78A      0.622103
      79A      0.638804    80A      0.641532    81A      0.688161
      82A      0.693498    83A      0.718307    84A      0.727859
      85A      0.739432    86A      0.742164    87A      0.747487
      88A      0.751824    89A      0.754331    90A      0.778034
      91A      0.786265    92A      0.794846    93A      0.808571
      94A      0.823612    95A      0.837463    96A      0.855615
      97A      0.857585    98A      0.863866    99A      0.875424
     100A      0.882831   101A      0.886782   102A      0.895485
     103A      0.896895   104A      0.899615   105A      0.902487
     106A      0.908616   107A      0.912714   108A      0.922612
     109A      0.930651   110A      0.934382   111A      0.938308
     112A      0.956285   113A      0.962130   114A      0.972210
     115A      0.977964   116A      0.990386   117A      1.009215
     118A      1.017146   119A      1.063642   120A      1.079666
     121A      1.118840   122A      1.130131   123A      1.142175
     124A      1.143615   125A      1.158236   126A      1.180908
     127A      1.206598   128A      1.217014   129A      1.244271
     130A      1.247329   131A      1.253054   132A      1.282171
     133A      1.297265   134A      1.305747   135A      1.321977
     136A      1.333895   137A      1.374061   138A      1.405893
     139A      1.431754   140A      1.446939   141A      1.467555
     142A      1.486181   143A      1.514950   144A      1.526898
     145A      1.540680   146A      1.615036   147A      1.623123
     148A      1.646831   149A      1.677514   150A      1.679252
     151A      1.683443   152A      1.692465   153A      1.699387
     154A      1.729275   155A      1.744208   156A      1.767963
     157A      1.773186   158A      1.848126   159A      1.854749
     160A      1.865603   161A      1.871257   162A      1.879969
     163A      1.885059   164A      1.889005   165A      1.894873
     166A      1.901951   167A      1.904736   168A      1.914509
     169A      1.917943   170A      1.922434   171A      1.935375
     172A      1.942103   173A      1.944729   174A      1.953561
     175A      1.964315   176A      1.974825   177A      1.977282
     178A      1.978849   179A      1.983511   180A      1.991309
     181A      1.993598   182A      1.998581   183A      2.012152
     184A      2.021680   185A      2.032615   186A      2.059935
     187A      2.060802   188A      2.071498   189A      2.099969
     190A      2.118288   191A      2.136136   192A      2.152869
     193A      2.170923   194A      2.174424   195A      2.175838
     196A      2.183962   197A      2.196270   198A      2.246572
     199A      2.255986   200A      2.278449   201A      2.283828
     202A      2.300174   203A      2.309183   204A      2.314603
     205A      2.324780   206A      2.336316   207A      2.345817
     208A      2.398761   209A      2.458801   210A      2.481253
     211A      2.497328   212A      2.512431   213A      2.520566
     214A      2.531249   215A      2.557909   216A      2.582862
     217A      2.589799   218A      2.605299   219A      2.623409
     220A      2.649907   221A      2.747268   222A      2.749363
     223A      2.750111   224A      2.772158   225A      2.778331
     226A      2.781459   227A      2.798770   228A      2.804113
     229A      2.808857   230A      2.846319   231A      2.867942
     232A      2.910917   233A      2.933386   234A      2.963186
     235A      2.977408   236A      3.003996   237A      3.009430
     238A      3.036868   239A      3.057337   240A      3.081832
     241A      3.203147   242A      3.217653   243A      3.322598
     244A      3.997967

    Final Occupation by Irrep:
              A
    DOCC [    42 ]

  @RHF Final Energy:  -427.06557112183333

   => Energetics <=

    Nuclear Repulsion Energy =            566.5785802229599994
    One-Electron Energy =               -1699.2350060684698292
    Two-Electron Energy =                 705.5908547236765571
    Total Energy =                       -427.0655711218332726

Computation Completed

Properties will be evaluated at   0.000000,   0.000000,   0.000000 [a0]

Properties computed using the SCF density matrix

  Nuclear Dipole Moment: [e a0]
     X:    -2.7435      Y:    15.0879      Z:     8.4577

  Electronic Dipole Moment: [e a0]
     X:     2.6624      Y:   -15.0526      Z:    -8.3928

  Dipole Moment: [e a0]
     X:    -0.0811      Y:     0.0353      Z:     0.0649     Total:     0.1097

  Dipole Moment: [D]
     X:    -0.2062      Y:     0.0896      Z:     0.1650     Total:     0.2788

*** tstop() called on ds3 at Mon Apr 27 13:32:47 2020
Module time:
	user time   =     168.18 seconds =       2.80 minutes
	system time =      77.67 seconds =       1.29 minutes
	total time  =        235 seconds =       3.92 minutes
Total time:
	user time   =     168.18 seconds =       2.80 minutes
	system time =      77.67 seconds =       1.29 minutes
	total time  =        235 seconds =       3.92 minutes
                                     G D M A

                                 by Anthony Stone

                           version 2.2.06, 22 June 2011

               Distributed Multipoles from Gaussian wavefunctions

Starting at 13:32:47 on 27 Apr 2020

Using SCF density matrix from file ./SSI/SSI-060LEU-095PHE-2-dimer.test.6773.fchk

                         Distributed Multipole Analysis

Standard DMA

Positions and radii in angstrom
Multipole moments in atomic units, ea_0^k for rank k

C          x =  0.377798  y =  3.048120  z =  1.222027 angstrom
           Maximum rank =  0   Radius =  0.650 angstrom
                   Q00  =  -0.071668

C          x =  1.392798  y =  3.504120  z =  2.281027 angstrom
           Maximum rank =  0   Radius =  0.650 angstrom
                   Q00  =  -0.245494

C          x = -0.247202  y =  4.163120  z =  0.377027 angstrom
           Maximum rank =  0   Radius =  0.650 angstrom
                   Q00  =  -0.248083

H          x =  0.873798  y =  2.338120  z =  0.558027 angstrom
           Maximum rank =  0   Radius =  0.325 angstrom
                   Q00  =   0.048959

H          x = -0.432202  y =  2.531120  z =  1.736027 angstrom
           Maximum rank =  0   Radius =  0.325 angstrom
                   Q00  =   0.037535

H          x =  0.885798  y =  4.160120  z =  2.990027 angstrom
           Maximum rank =  0   Radius =  0.325 angstrom
                   Q00  =   0.076378

H          x =  0.543798  y =  4.729120  z = -0.113973 angstrom
           Maximum rank =  0   Radius =  0.325 angstrom
                   Q00  =   0.077349

H          x =  2.242454  y =  4.028910  z =  1.819847 angstrom
           Maximum rank =  0   Radius =  0.325 angstrom
                   Q00  =   0.080530

H          x =  1.756835  y =  2.640440  z =  2.856817 angstrom
           Maximum rank =  0   Radius =  0.325 angstrom
                   Q00  =   0.083017

H          x = -0.873428  y =  3.721720  z = -0.412283 angstrom
           Maximum rank =  0   Radius =  0.325 angstrom
                   Q00  =   0.085693

H          x = -0.849031  y =  4.857480  z =  0.981727 angstrom
           Maximum rank =  0   Radius =  0.325 angstrom
                   Q00  =   0.077594

C          x = -1.519202  y = -0.116880  z =  0.237027 angstrom
           Maximum rank =  0   Radius =  0.650 angstrom
                   Q00  =  -0.032171

C          x = -2.382202  y = -0.851880  z =  1.249027 angstrom
           Maximum rank =  0   Radius =  0.650 angstrom
                   Q00  =  -0.232898

C          x = -0.493202  y = -0.999880  z = -0.416973 angstrom
           Maximum rank =  0   Radius =  0.650 angstrom
                   Q00  =  -0.106668

C          x =  0.700798  y = -1.285880  z =  0.218027 angstrom
           Maximum rank =  0   Radius =  0.650 angstrom
                   Q00  =  -0.105900

C          x = -0.750202  y = -1.576880  z = -1.665973 angstrom
           Maximum rank =  0   Radius =  0.650 angstrom
                   Q00  =  -0.006131

C          x =  1.626798  y = -2.141880  z = -0.378973 angstrom
           Maximum rank =  0   Radius =  0.650 angstrom
                   Q00  =  -0.070356

C          x =  0.182798  y = -2.396880  z = -2.265973 angstrom
           Maximum rank =  0   Radius =  0.650 angstrom
                   Q00  =  -0.073210

C          x =  1.356798  y = -2.696880  z = -1.613973 angstrom
           Maximum rank =  0   Radius =  0.650 angstrom
                   Q00  =  -0.047633

H          x = -2.152202  y =  0.343120  z = -0.523973 angstrom
           Maximum rank =  0   Radius =  0.325 angstrom
                   Q00  =   0.064079

H          x = -0.988202  y =  0.677120  z =  0.750027 angstrom
           Maximum rank =  0   Radius =  0.325 angstrom
                   Q00  =   0.074349

H          x = -1.721202  y = -1.378880  z =  1.940027 angstrom
           Maximum rank =  0   Radius =  0.325 angstrom
                   Q00  =   0.081472

H          x =  0.914798  y = -0.858880  z =  1.188027 angstrom
           Maximum rank =  0   Radius =  0.325 angstrom
                   Q00  =   0.054804

H          x = -1.690202  y = -1.383880  z = -2.162973 angstrom
           Maximum rank =  0   Radius =  0.325 angstrom
                   Q00  =   0.053544

H          x =  2.547798  y = -2.388880  z =  0.132027 angstrom
           Maximum rank =  0   Radius =  0.325 angstrom
                   Q00  =   0.063503

H          x = -0.026202  y = -2.841880  z = -3.227973 angstrom
           Maximum rank =  0   Radius =  0.325 angstrom
                   Q00  =   0.061172

H          x =  2.054798  y = -3.392880  z = -2.052973 angstrom
           Maximum rank =  0   Radius =  0.325 angstrom
                   Q00  =   0.057778

H          x = -3.044567  y = -1.567230  z =  0.739577 angstrom
           Maximum rank =  0   Radius =  0.325 angstrom
                   Q00  =   0.083649

H          x = -2.969323  y = -0.120520  z =  1.823827 angstrom
           Maximum rank =  0   Radius =  0.325 angstrom
                   Q00  =   0.078808

Total multipoles referred to origin at
           x =   0.000000,  y =    0.000000,  z =    0.000000 angstrom
                   Q00  =  -0.000000

Finished at 13:32:47 on 27 Apr 2020

  DMA results are available in the Python driver through the
	  variable('DMA DISTRIBUTED MULTIPOLES')
  and
	  variable('DMA TOTAL MULTIPOLES')
  commands.

    Psi4 stopped on: Monday, 27 April 2020 01:32PM
    Psi4 wall time for execution: 0:03:55.37

*** Psi4 exiting successfully. Buy a developer a beer!
