                               Psi4 1.3.2 release

  ==> Input File <==

--------------------------------------------------------------------------
import numpy as np
set {scf_type pk
basis cc-pvdz
d_convergence 10
gdma_switch   0
gdma_limit    0
gdma_origin   [ 0.0,  0.0,  0.0 ]
}
molecule test {
    units Angstrom
    0 1
    --
    0 1
    C                0.439033530136397     1.262368594725457    -1.346908012875798
    C                0.175033530136397     2.631368594725457    -1.969908012875798
    C               -0.782966469863603     0.426368594725457    -1.111908012875798
    C               -1.072966469863603    -0.644631405274543    -1.954908012875798
    C               -1.621966469863603     0.686368594725457    -0.026908012875798
    C               -2.186966469863603    -1.454631405274543    -1.720908012875798
    C               -2.737966469863603    -0.121631405274543     0.215091987124202
    C               -3.020966469863603    -1.193631405274543    -0.632908012875798
    H                1.168033530136397     0.710368594725457    -1.936908012875798
    H                0.869033530136397     1.465368594725457    -0.378908012875798
    H               -0.436966469863603     3.208368594725457    -1.277908012875798
    H               -0.410966469863603    -0.871631405274543    -2.771908012875798
    H               -1.408966469863603     1.511368594725457     0.634091987124202
    H               -2.395966469863603    -2.290631405274543    -2.374908012875798
    H               -3.385966469863603     0.087368594725457     1.056091987124202
    H               -3.885966469863603    -1.815631405274543    -0.448908012875798
    H               -0.324966469863603     2.552068594725457    -2.946488012875798
    H                1.149303530136397     3.131218594725457    -2.074528012875798
    C                2.260033530136397    -0.221631405274543     1.728091987124202
    C                2.684033530136397     0.576368594725457     2.970091987124202
    C                3.456033530136397    -0.964631405274543     1.141091987124202
    C                1.146033530136397    -1.208631405274543     2.075091987124202
    H                1.911033530136397     0.472368594725457     0.987091987124202
    H                3.359033530136397     1.358368594725457     2.633091987124202
    H                3.777033530136397    -1.770631405274543     1.796091987124202
    H                3.169033530136397    -1.403631405274543     0.187091987124202
    H                4.279033530136396    -0.270631405274543     0.974091987124202
    H                0.236033530136397    -0.691631405274543     2.379091987124202
    H                0.902033530136397    -1.792631405274543     1.186091987124202
    H                1.466033530136397    -1.894631405274543     2.857091987124202
    H                3.206623530136397    -0.076491405274543     3.684701987124202
    H                1.802943530136397     1.079118594725457     3.395441987124202

}
e, wfn = energy('scf', return_wfn=True)
gdma(wfn)
dmavals = variable('DMA DISTRIBUTED MULTIPOLES')
charges = np.array(dmavals)
print(charges)
np.save('SSI-087PHE-186VAL-1-dimer.npy', np.array(charges))--------------------------------------------------------------------------

*** tstart() called on ds3
*** at Tue Apr 28 04:11:18 2020

   => Loading Basis Set <=

    Name: CC-PVDZ
    Role: ORBITAL
    Keyword: BASIS
    atoms 1-8, 19-22  entry C          line   138 file /theoryfs2/ds/metcalf/miniconda2/envs/tf2gpu/share/psi4/basis/cc-pvdz.gbs
    atoms 9-18, 23-32 entry H          line    22 file /theoryfs2/ds/metcalf/miniconda2/envs/tf2gpu/share/psi4/basis/cc-pvdz.gbs

         ---------------------------------------------------------
                                   SCF
               by Justin Turney, Rob Parrish, Andy Simmonett
                          and Daniel G. A. Smith
                              RHF Reference
                        1 Threads,    500 MiB Core
         ---------------------------------------------------------

  ==> Geometry <==

    Molecular point group: c1
    Full point group: C1

    Geometry (in Angstrom), charge = 0, multiplicity = 1:

       Center              X                  Y                   Z               Mass
    ------------   -----------------  -----------------  -----------------  -----------------
         C            0.439033530136     1.262368594725    -1.346908012876    12.000000000000
         C            0.175033530136     2.631368594725    -1.969908012876    12.000000000000
         C           -0.782966469864     0.426368594725    -1.111908012876    12.000000000000
         C           -1.072966469864    -0.644631405275    -1.954908012876    12.000000000000
         C           -1.621966469864     0.686368594725    -0.026908012876    12.000000000000
         C           -2.186966469864    -1.454631405275    -1.720908012876    12.000000000000
         C           -2.737966469864    -0.121631405275     0.215091987124    12.000000000000
         C           -3.020966469864    -1.193631405275    -0.632908012876    12.000000000000
         H            1.168033530136     0.710368594725    -1.936908012876     1.007825032230
         H            0.869033530136     1.465368594725    -0.378908012876     1.007825032230
         H           -0.436966469864     3.208368594725    -1.277908012876     1.007825032230
         H           -0.410966469864    -0.871631405275    -2.771908012876     1.007825032230
         H           -1.408966469864     1.511368594725     0.634091987124     1.007825032230
         H           -2.395966469864    -2.290631405275    -2.374908012876     1.007825032230
         H           -3.385966469864     0.087368594725     1.056091987124     1.007825032230
         H           -3.885966469864    -1.815631405275    -0.448908012876     1.007825032230
         H           -0.324966469864     2.552068594725    -2.946488012876     1.007825032230
         H            1.149303530136     3.131218594725    -2.074528012876     1.007825032230
         C            2.260033530136    -0.221631405275     1.728091987124    12.000000000000
         C            2.684033530136     0.576368594725     2.970091987124    12.000000000000
         C            3.456033530136    -0.964631405275     1.141091987124    12.000000000000
         C            1.146033530136    -1.208631405275     2.075091987124    12.000000000000
         H            1.911033530136     0.472368594725     0.987091987124     1.007825032230
         H            3.359033530136     1.358368594725     2.633091987124     1.007825032230
         H            3.777033530136    -1.770631405275     1.796091987124     1.007825032230
         H            3.169033530136    -1.403631405275     0.187091987124     1.007825032230
         H            4.279033530136    -0.270631405275     0.974091987124     1.007825032230
         H            0.236033530136    -0.691631405275     2.379091987124     1.007825032230
         H            0.902033530136    -1.792631405275     1.186091987124     1.007825032230
         H            1.466033530136    -1.894631405275     2.857091987124     1.007825032230
         H            3.206623530136    -0.076491405275     3.684701987124     1.007825032230
         H            1.802943530136     1.079118594725     3.395441987124     1.007825032230

  Running in c1 symmetry.

  Rotational constants: A =      0.03579  B =      0.01508  C =      0.01294 [cm^-1]
  Rotational constants: A =   1072.82211  B =    452.15315  C =    387.86349 [MHz]
  Nuclear repulsion =  675.203935336341488

  Charge       = 0
  Multiplicity = 1
  Electrons    = 92
  Nalpha       = 46
  Nbeta        = 46

  ==> Algorithm <==

  SCF Algorithm Type is PK.
  DIIS enabled.
  MOM disabled.
  Fractional occupation disabled.
  Guess Type is SAD.
  Energy threshold   = 1.00e-06
  Density threshold  = 1.00e-10
  Integral threshold = 0.00e+00

  ==> Primary Basis <==

  Basis Set: CC-PVDZ
    Blend: CC-PVDZ
    Number of shells: 132
    Number of basis function: 268
    Number of Cartesian functions: 280
    Spherical Harmonics?: true
    Max angular momentum: 2

  ==> Pre-Iterations <==

   -------------------------------------------------------
    Irrep   Nso     Nmo     Nalpha   Nbeta   Ndocc  Nsocc
   -------------------------------------------------------
     A        268     268       0       0       0       0
   -------------------------------------------------------
    Total     268     268      46      46      46       0
   -------------------------------------------------------

  ==> Integral Setup <==

  Using integral reordering PK algorithm.
  Sizing the integral batches needed.
  Building batch lookup table.
   Calculation information:
      Number of atoms:                  32
      Number of AO shells:             132
      Number of primitives:            364
      Number of atomic orbitals:       280
      Number of basis functions:       268

      Integral cutoff                 1.00e-12
      Number of threads:                 1

	Batch   1 pq = [       0,    9405] index = [             0,44231715] size =     44231715
	Batch   2 pq = [    9405,   13301] index = [      44231715,88464951] size =     44233236
	Batch   3 pq = [   13301,   16290] index = [      88464951,132690195] size =     44225244
	Batch   4 pq = [   16290,   18810] index = [     132690195,176917455] size =     44227260
	Batch   5 pq = [   18810,   21030] index = [     176917455,221140965] size =     44223510
	Batch   6 pq = [   21030,   23037] index = [     221140965,265363203] size =     44222238
	Batch   7 pq = [   23037,   24883] index = [     265363203,309594286] size =     44231083
	Batch   8 pq = [   24883,   26601] index = [     309594286,353819901] size =     44225615
	Batch   9 pq = [   26601,   28214] index = [     353819901,398029005] size =     44209104
	Batch  10 pq = [   28214,   29740] index = [     398029005,442248670] size =     44219665
	Batch  11 pq = [   29740,   31191] index = [     442248670,486454836] size =     44206166
	Batch  12 pq = [   31191,   32578] index = [     486454836,530679331] size =     44224495
	Batch  13 pq = [   32578,   33908] index = [     530679331,574893186] size =     44213855
	Batch  14 pq = [   33908,   35188] index = [     574893186,619115266] size =     44222080
	Batch  15 pq = [   35188,   36046] index = [     619115266,649675081] size =     30559815
  Task number: 59
  Buffer size: 11059200
  Buffer per thread: 2
  We computed 39584998 shell quartets total.
  Whereas there are 38531031 unique shell quartets.
     2.74 percent of shell quartets recomputed by reordering.

  ==> DiskJK: Disk-Based J/K Matrices <==

    J tasked:                  Yes
    K tasked:                  Yes
    wK tasked:                  No
    Memory [MiB]:              375
    Schwarz Cutoff:          1E-12

    OpenMP threads:              1

  Minimum eigenvalue in the overlap matrix is 3.1603724965E-04.
  Using Symmetric Orthogonalization.

  SCF Guess: Superposition of Atomic Densities via on-the-fly atomic UHF.

  ==> Iterations <==

                        Total Energy        Delta E     RMS |[F,P]|

   @RHF iter SAD:  -464.95943398718362   -4.64959e+02   0.00000e+00
   @RHF iter   1:  -465.78056189412609   -8.21128e-01   2.52110e-03 DIIS
   @RHF iter   2:  -466.05222277003753   -2.71661e-01   1.06645e-03 DIIS
   @RHF iter   3:  -466.09657302889775   -4.43503e-02   2.37135e-04 DIIS
   @RHF iter   4:  -466.10022119148238   -3.64816e-03   6.26991e-05 DIIS
   @RHF iter   5:  -466.10039252874236   -1.71337e-04   1.75741e-05 DIIS
   @RHF iter   6:  -466.10040696785188   -1.44391e-05   4.97809e-06 DIIS
   @RHF iter   7:  -466.10040827130234   -1.30345e-06   1.13019e-06 DIIS
   @RHF iter   8:  -466.10040835679968   -8.54973e-08   3.18850e-07 DIIS
   @RHF iter   9:  -466.10040836905102   -1.22513e-08   1.34192e-07 DIIS
   @RHF iter  10:  -466.10040837230798   -3.25696e-09   6.92697e-08 DIIS
   @RHF iter  11:  -466.10040837332821   -1.02023e-09   2.45973e-08 DIIS
   @RHF iter  12:  -466.10040837345440   -1.26192e-10   9.05743e-09 DIIS
   @RHF iter  13:  -466.10040837346656   -1.21645e-11   3.63556e-09 DIIS
   @RHF iter  14:  -466.10040837346401    2.55795e-12   9.79137e-10 DIIS
   @RHF iter  15:  -466.10040837346264    1.36424e-12   3.26842e-10 DIIS
   @RHF iter  16:  -466.10040837346259    5.68434e-14   1.16581e-10 DIIS
   @RHF iter  17:  -466.10040837346401   -1.42109e-12   4.82315e-11 DIIS
  Energy and wave function converged.

  ==> Post-Iterations <==

    Orbital Energies [Eh]
    ---------------------

    Doubly Occupied:

       1A    -11.238068     2A    -11.237911     3A    -11.237176
       4A    -11.233017     5A    -11.232527     6A    -11.231027
       7A    -11.227091     8A    -11.224434     9A    -11.216788
      10A    -11.213010    11A    -11.209744    12A    -11.205742
      13A     -1.153167    14A     -1.079184    15A     -1.065146
      16A     -1.010827    17A     -0.983492    18A     -0.923284
      19A     -0.921357    20A     -0.862829    21A     -0.826252
      22A     -0.785816    23A     -0.762110    24A     -0.691304
      25A     -0.642885    26A     -0.637369    27A     -0.628465
      28A     -0.591981    29A     -0.588507    30A     -0.585985
      31A     -0.581797    32A     -0.578498    33A     -0.542109
      34A     -0.536244    35A     -0.530505    36A     -0.520020
      37A     -0.503075    38A     -0.502765    39A     -0.482211
      40A     -0.480100    41A     -0.470039    42A     -0.455487
      43A     -0.452530    44A     -0.447062    45A     -0.331491
      46A     -0.321552

    Virtual:

      47A      0.132739    48A      0.137704    49A      0.168755
      50A      0.191115    51A      0.197914    52A      0.201978
      53A      0.225669    54A      0.228894    55A      0.233391
      56A      0.247908    57A      0.251932    58A      0.255741
      59A      0.259381    60A      0.264256    61A      0.271439
      62A      0.285492    63A      0.297306    64A      0.304847
      65A      0.308626    66A      0.315307    67A      0.333177
      68A      0.338806    69A      0.358173    70A      0.379794
      71A      0.400283    72A      0.406939    73A      0.413297
      74A      0.422280    75A      0.450250    76A      0.466273
      77A      0.492544    78A      0.505209    79A      0.557648
      80A      0.570310    81A      0.573714    82A      0.600099
      83A      0.605053    84A      0.613081    85A      0.618343
      86A      0.626437    87A      0.640005    88A      0.677732
      89A      0.693361    90A      0.703896    91A      0.720439
      92A      0.729492    93A      0.739704    94A      0.743662
      95A      0.745184    96A      0.751876    97A      0.762170
      98A      0.776062    99A      0.782478   100A      0.799771
     101A      0.816755   102A      0.827382   103A      0.836978
     104A      0.848051   105A      0.857238   106A      0.863888
     107A      0.867575   108A      0.873313   109A      0.886746
     110A      0.892800   111A      0.896748   112A      0.900935
     113A      0.903920   114A      0.906927   115A      0.909196
     116A      0.914684   117A      0.919096   118A      0.926205
     119A      0.934268   120A      0.940426   121A      0.947709
     122A      0.957091   123A      0.963119   124A      0.970553
     125A      0.971214   126A      0.989444   127A      1.001815
     128A      1.010753   129A      1.017591   130A      1.053121
     131A      1.068833   132A      1.083981   133A      1.118177
     134A      1.133002   135A      1.136163   136A      1.142975
     137A      1.147427   138A      1.154247   139A      1.183873
     140A      1.220052   141A      1.238865   142A      1.244775
     143A      1.253183   144A      1.271659   145A      1.297687
     146A      1.306209   147A      1.316545   148A      1.325065
     149A      1.385850   150A      1.388200   151A      1.400895
     152A      1.431187   153A      1.439110   154A      1.450585
     155A      1.505087   156A      1.533253   157A      1.552215
     158A      1.567611   159A      1.587995   160A      1.619424
     161A      1.664028   162A      1.669654   163A      1.676010
     164A      1.678122   165A      1.681605   166A      1.699578
     167A      1.711428   168A      1.724203   169A      1.728753
     170A      1.737042   171A      1.751112   172A      1.762678
     173A      1.772404   174A      1.837677   175A      1.841029
     176A      1.844562   177A      1.854709   178A      1.866758
     179A      1.871802   180A      1.876096   181A      1.891489
     182A      1.892509   183A      1.910316   184A      1.919029
     185A      1.921843   186A      1.928019   187A      1.937939
     188A      1.945421   189A      1.955917   190A      1.960145
     191A      1.962759   192A      1.969117   193A      1.970548
     194A      1.977965   195A      1.983851   196A      1.998145
     197A      2.003760   198A      2.013618   199A      2.023191
     200A      2.030916   201A      2.044406   202A      2.056625
     203A      2.073578   204A      2.086253   205A      2.088045
     206A      2.100638   207A      2.130652   208A      2.133344
     209A      2.140953   210A      2.154982   211A      2.156347
     212A      2.160793   213A      2.165847   214A      2.173822
     215A      2.188262   216A      2.240694   217A      2.251618
     218A      2.254194   219A      2.255979   220A      2.273942
     221A      2.305221   222A      2.309151   223A      2.316120
     224A      2.322722   225A      2.332144   226A      2.356472
     227A      2.373580   228A      2.380755   229A      2.389690
     230A      2.451919   231A      2.472805   232A      2.481255
     233A      2.496205   234A      2.521617   235A      2.544751
     236A      2.574519   237A      2.602202   238A      2.616148
     239A      2.620023   240A      2.663328   241A      2.717375
     242A      2.724531   243A      2.740802   244A      2.766656
     245A      2.769885   246A      2.771649   247A      2.779530
     248A      2.786109   249A      2.800412   250A      2.807221
     251A      2.809307   252A      2.844903   253A      2.855246
     254A      2.860357   255A      2.866719   256A      2.869182
     257A      2.928491   258A      2.969922   259A      2.986972
     260A      3.021403   261A      3.024885   262A      3.031362
     263A      3.057174   264A      3.174206   265A      3.196084
     266A      3.201213   267A      3.305362   268A      3.960633

    Final Occupation by Irrep:
              A
    DOCC [    46 ]

  @RHF Final Energy:  -466.10040837346401

   => Energetics <=

    Nuclear Repulsion Energy =            675.2039353363414875
    One-Electron Energy =               -1968.2447213274522255
    Two-Electron Energy =                 826.9403776176466181
    Total Energy =                       -466.1004083734640062

Computation Completed

Properties will be evaluated at   0.000000,   0.000000,   0.000000 [a0]

Properties computed using the SCF density matrix

  Nuclear Dipole Moment: [e a0]
     X:    14.1046      Y:     2.5291      Z:     7.0869

  Electronic Dipole Moment: [e a0]
     X:   -14.0794      Y:    -2.4466      Z:    -7.1812

  Dipole Moment: [e a0]
     X:     0.0252      Y:     0.0825      Z:    -0.0943     Total:     0.1278

  Dipole Moment: [D]
     X:     0.0641      Y:     0.2098      Z:    -0.2397     Total:     0.3249

*** tstop() called on ds3 at Tue Apr 28 04:22:10 2020
Module time:
	user time   =     274.26 seconds =       4.57 minutes
	system time =      92.33 seconds =       1.54 minutes
	total time  =        652 seconds =      10.87 minutes
Total time:
	user time   =     274.26 seconds =       4.57 minutes
	system time =      92.33 seconds =       1.54 minutes
	total time  =        652 seconds =      10.87 minutes
                                     G D M A

                                 by Anthony Stone

                           version 2.2.06, 22 June 2011

               Distributed Multipoles from Gaussian wavefunctions

Starting at 4:22:10 on 28 Apr 2020

Using SCF density matrix from file ./SSI/SSI-087PHE-186VAL-1-dimer.test.27336.fchk

                         Distributed Multipole Analysis

Standard DMA

Positions and radii in angstrom
Multipole moments in atomic units, ea_0^k for rank k

C          x =  0.439034  y =  1.262369  z = -1.346908 angstrom
           Maximum rank =  0   Radius =  0.650 angstrom
                   Q00  =  -0.014252

C          x =  0.175034  y =  2.631369  z = -1.969908 angstrom
           Maximum rank =  0   Radius =  0.650 angstrom
                   Q00  =  -0.231239

C          x = -0.782966  y =  0.426369  z = -1.111908 angstrom
           Maximum rank =  0   Radius =  0.650 angstrom
                   Q00  =  -0.112993

C          x = -1.072966  y = -0.644631  z = -1.954908 angstrom
           Maximum rank =  0   Radius =  0.650 angstrom
                   Q00  =  -0.011717

C          x = -1.621966  y =  0.686369  z = -0.026908 angstrom
           Maximum rank =  0   Radius =  0.650 angstrom
                   Q00  =  -0.070419

C          x = -2.186966  y = -1.454631  z = -1.720908 angstrom
           Maximum rank =  0   Radius =  0.650 angstrom
                   Q00  =  -0.078272

C          x = -2.737966  y = -0.121631  z =  0.215092 angstrom
           Maximum rank =  0   Radius =  0.650 angstrom
                   Q00  =  -0.077765

C          x = -3.020966  y = -1.193631  z = -0.632908 angstrom
           Maximum rank =  0   Radius =  0.650 angstrom
                   Q00  =  -0.080012

H          x =  1.168034  y =  0.710369  z = -1.936908 angstrom
           Maximum rank =  0   Radius =  0.325 angstrom
                   Q00  =   0.067259

H          x =  0.869034  y =  1.465369  z = -0.378908 angstrom
           Maximum rank =  0   Radius =  0.325 angstrom
                   Q00  =   0.058841

H          x = -0.436966  y =  3.208369  z = -1.277908 angstrom
           Maximum rank =  0   Radius =  0.325 angstrom
                   Q00  =   0.082477

H          x = -0.410966  y = -0.871631  z = -2.771908 angstrom
           Maximum rank =  0   Radius =  0.325 angstrom
                   Q00  =   0.056632

H          x = -1.408966  y =  1.511369  z =  0.634092 angstrom
           Maximum rank =  0   Radius =  0.325 angstrom
                   Q00  =   0.057039

H          x = -2.395966  y = -2.290631  z = -2.374908 angstrom
           Maximum rank =  0   Radius =  0.325 angstrom
                   Q00  =   0.066077

H          x = -3.385966  y =  0.087369  z =  1.056092 angstrom
           Maximum rank =  0   Radius =  0.325 angstrom
                   Q00  =   0.066516

H          x = -3.885966  y = -1.815631  z = -0.448908 angstrom
           Maximum rank =  0   Radius =  0.325 angstrom
                   Q00  =   0.063147

H          x = -0.324966  y =  2.552069  z = -2.946488 angstrom
           Maximum rank =  0   Radius =  0.325 angstrom
                   Q00  =   0.085076

H          x =  1.149304  y =  3.131219  z = -2.074528 angstrom
           Maximum rank =  0   Radius =  0.325 angstrom
                   Q00  =   0.080507

C          x =  2.260034  y = -0.221631  z =  1.728092 angstrom
           Maximum rank =  0   Radius =  0.650 angstrom
                   Q00  =   0.035763

C          x =  2.684034  y =  0.576369  z =  2.970092 angstrom
           Maximum rank =  0   Radius =  0.650 angstrom
                   Q00  =  -0.255562

C          x =  3.456034  y = -0.964631  z =  1.141092 angstrom
           Maximum rank =  0   Radius =  0.650 angstrom
                   Q00  =  -0.250161

C          x =  1.146034  y = -1.208631  z =  2.075092 angstrom
           Maximum rank =  0   Radius =  0.650 angstrom
                   Q00  =  -0.250763

H          x =  1.911034  y =  0.472369  z =  0.987092 angstrom
           Maximum rank =  0   Radius =  0.325 angstrom
                   Q00  =   0.009190

H          x =  3.359034  y =  1.358369  z =  2.633092 angstrom
           Maximum rank =  0   Radius =  0.325 angstrom
                   Q00  =   0.075251

H          x =  3.777034  y = -1.770631  z =  1.796092 angstrom
           Maximum rank =  0   Radius =  0.325 angstrom
                   Q00  =   0.077967

H          x =  3.169034  y = -1.403631  z =  0.187092 angstrom
           Maximum rank =  0   Radius =  0.325 angstrom
                   Q00  =   0.078698

H          x =  4.279034  y = -0.270631  z =  0.974092 angstrom
           Maximum rank =  0   Radius =  0.325 angstrom
                   Q00  =   0.076169

H          x =  0.236034  y = -0.691631  z =  2.379092 angstrom
           Maximum rank =  0   Radius =  0.325 angstrom
                   Q00  =   0.083008

H          x =  0.902034  y = -1.792631  z =  1.186092 angstrom
           Maximum rank =  0   Radius =  0.325 angstrom
                   Q00  =   0.082125

H          x =  1.466034  y = -1.894631  z =  2.857092 angstrom
           Maximum rank =  0   Radius =  0.325 angstrom
                   Q00  =   0.074628

H          x =  3.206624  y = -0.076491  z =  3.684702 angstrom
           Maximum rank =  0   Radius =  0.325 angstrom
                   Q00  =   0.079572

H          x =  1.802944  y =  1.079119  z =  3.395442 angstrom
           Maximum rank =  0   Radius =  0.325 angstrom
                   Q00  =   0.077213

Total multipoles referred to origin at
           x =   0.000000,  y =    0.000000,  z =    0.000000 angstrom
                   Q00  =  -0.000000

Finished at 4:22:11 on 28 Apr 2020

  DMA results are available in the Python driver through the
	  variable('DMA DISTRIBUTED MULTIPOLES')
  and
	  variable('DMA TOTAL MULTIPOLES')
  commands.

    Psi4 stopped on: Tuesday, 28 April 2020 04:22AM
    Psi4 wall time for execution: 0:10:52.82

*** Psi4 exiting successfully. Buy a developer a beer!
