                               Psi4 1.3.2 release

  ==> Input File <==

--------------------------------------------------------------------------
import numpy as np
set {scf_type pk
basis cc-pvdz
d_convergence 10
gdma_switch   0
gdma_limit    0
gdma_origin   [ 0.0,  0.0,  0.0 ]
}
molecule test {
    units Angstrom
    -1 1
    --
    -1 1
    C               -2.079587262399456    -2.020252058588570     0.839219443334192
    C               -1.112587262399456    -0.959252058588570     1.346219443334192
    O                0.027412737600544    -1.275252058588570     1.707219443334192
    O               -1.477587262399456     0.222747941411430     1.365219443334192
    H               -1.926587262399456    -2.124252058588571    -0.235780556665808
    H               -3.102587262399456    -1.680252058588570     0.996219443334192
    H               -1.925077262399456    -3.005094758588570     1.304199443334192
    C                0.858412737600544     0.878747941411430    -1.245780556665808
    C                1.242412737600544     1.965747941411430    -0.211780556665808
    C                0.681412737600544     1.497747941411430    -2.619780556665808
    C                1.894412737600544    -0.266252058588570    -1.242780556665808
    H               -0.105587262399456     0.464747941411430    -0.948780556665808
    H                2.196412737600544     2.392747941411429    -0.524780556665808
    H                1.571412737600544     2.067747941411430    -2.889780556665808
    H                0.540412737600544     0.729747941411430    -3.374780556665808
    H               -0.185587262399456     2.156747941411429    -2.642780556665808
    H                2.825412737600544     0.061747941411430    -1.706780556665808
    H                2.107412737600544    -0.598252058588570    -0.227780556665808
    H                1.353542737600544     1.531684941411430     0.792829443334192
    H                0.504862737600544     2.781626941411429    -0.192920556665808
    H                1.485872737600544    -1.130635058588570    -1.786780556665808

}
e, wfn = energy('scf', return_wfn=True)
gdma(wfn)
dmavals = variable('DMA DISTRIBUTED MULTIPOLES')
charges = np.array(dmavals)
print(charges)
np.save('SSI-086ASP-091ILE-1-dimer.npy', np.array(charges))--------------------------------------------------------------------------

*** tstart() called on ds3
*** at Mon Apr 27 07:26:36 2020

   => Loading Basis Set <=

    Name: CC-PVDZ
    Role: ORBITAL
    Keyword: BASIS
    atoms 1-2, 8-11  entry C          line   138 file /theoryfs2/ds/metcalf/miniconda2/envs/tf2gpu/share/psi4/basis/cc-pvdz.gbs
    atoms 3-4        entry O          line   198 file /theoryfs2/ds/metcalf/miniconda2/envs/tf2gpu/share/psi4/basis/cc-pvdz.gbs
    atoms 5-7, 12-21 entry H          line    22 file /theoryfs2/ds/metcalf/miniconda2/envs/tf2gpu/share/psi4/basis/cc-pvdz.gbs

         ---------------------------------------------------------
                                   SCF
               by Justin Turney, Rob Parrish, Andy Simmonett
                          and Daniel G. A. Smith
                              RHF Reference
                        1 Threads,    500 MiB Core
         ---------------------------------------------------------

  ==> Geometry <==

    Molecular point group: c1
    Full point group: C1

    Geometry (in Angstrom), charge = -1, multiplicity = 1:

       Center              X                  Y                   Z               Mass
    ------------   -----------------  -----------------  -----------------  -----------------
         C           -2.079587262399    -2.020252058589     0.839219443334    12.000000000000
         C           -1.112587262399    -0.959252058589     1.346219443334    12.000000000000
         O            0.027412737601    -1.275252058589     1.707219443334    15.994914619570
         O           -1.477587262399     0.222747941411     1.365219443334    15.994914619570
         H           -1.926587262399    -2.124252058589    -0.235780556666     1.007825032230
         H           -3.102587262399    -1.680252058589     0.996219443334     1.007825032230
         H           -1.925077262399    -3.005094758589     1.304199443334     1.007825032230
         C            0.858412737601     0.878747941411    -1.245780556666    12.000000000000
         C            1.242412737601     1.965747941411    -0.211780556666    12.000000000000
         C            0.681412737601     1.497747941411    -2.619780556666    12.000000000000
         C            1.894412737601    -0.266252058589    -1.242780556666    12.000000000000
         H           -0.105587262399     0.464747941411    -0.948780556666     1.007825032230
         H            2.196412737601     2.392747941411    -0.524780556666     1.007825032230
         H            1.571412737601     2.067747941411    -2.889780556666     1.007825032230
         H            0.540412737601     0.729747941411    -3.374780556666     1.007825032230
         H           -0.185587262399     2.156747941411    -2.642780556666     1.007825032230
         H            2.825412737601     0.061747941411    -1.706780556666     1.007825032230
         H            2.107412737601    -0.598252058589    -0.227780556666     1.007825032230
         H            1.353542737601     1.531684941411     0.792829443334     1.007825032230
         H            0.504862737601     2.781626941411    -0.192920556666     1.007825032230
         H            1.485872737601    -1.130635058589    -1.786780556666     1.007825032230

  Running in c1 symmetry.

  Rotational constants: A =      0.09481  B =      0.02786  C =      0.02750 [cm^-1]
  Rotational constants: A =   2842.40714  B =    835.19966  C =    824.52624 [MHz]
  Nuclear repulsion =  375.803857029572100

  Charge       = -1
  Multiplicity = 1
  Electrons    = 66
  Nalpha       = 33
  Nbeta        = 33

  ==> Algorithm <==

  SCF Algorithm Type is PK.
  DIIS enabled.
  MOM disabled.
  Fractional occupation disabled.
  Guess Type is SAD.
  Energy threshold   = 1.00e-06
  Density threshold  = 1.00e-10
  Integral threshold = 0.00e+00

  ==> Primary Basis <==

  Basis Set: CC-PVDZ
    Blend: CC-PVDZ
    Number of shells: 87
    Number of basis function: 177
    Number of Cartesian functions: 185
    Spherical Harmonics?: true
    Max angular momentum: 2

  ==> Pre-Iterations <==

   -------------------------------------------------------
    Irrep   Nso     Nmo     Nalpha   Nbeta   Ndocc  Nsocc
   -------------------------------------------------------
     A        177     177       0       0       0       0
   -------------------------------------------------------
    Total     177     177      33      33      33       0
   -------------------------------------------------------

  ==> Integral Setup <==

  Using integral reordering PK algorithm.
  Sizing the integral batches needed.
  Building batch lookup table.
   Calculation information:
      Number of atoms:                  21
      Number of AO shells:              87
      Number of primitives:            241
      Number of atomic orbitals:       185
      Number of basis functions:       177

      Integral cutoff                 1.00e-12
      Number of threads:                 1

	Batch   1 pq = [       0,    9405] index = [             0,44231715] size =     44231715
	Batch   2 pq = [    9405,   13301] index = [      44231715,88464951] size =     44233236
	Batch   3 pq = [   13301,   15753] index = [      88464951,124086381] size =     35621430
  Task number: 12
  Buffer size: 11059200
  Buffer per thread: 2
  We computed 6472495 shell quartets total.
  Whereas there are 7328706 unique shell quartets.

  ==> DiskJK: Disk-Based J/K Matrices <==

    J tasked:                  Yes
    K tasked:                  Yes
    wK tasked:                  No
    Memory [MiB]:              375
    Schwarz Cutoff:          1E-12

    OpenMP threads:              1

  Minimum eigenvalue in the overlap matrix is 4.6545674478E-03.
  Using Symmetric Orthogonalization.

  SCF Guess: Superposition of Atomic Densities via on-the-fly atomic UHF.

  ==> Iterations <==

                        Total Energy        Delta E     RMS |[F,P]|

   @RHF iter SAD:  -382.92462485982060   -3.82925e+02   0.00000e+00
   @RHF iter   1:  -384.21626628709043   -1.29164e+00   4.49056e-03 DIIS
   @RHF iter   2:  -384.47867840065010   -2.62412e-01   2.43362e-03 DIIS
   @RHF iter   3:  -384.55002965894494   -7.13513e-02   3.88894e-04 DIIS
   @RHF iter   4:  -384.55334255890546   -3.31290e-03   1.42218e-04 DIIS
   @RHF iter   5:  -384.55376087748249   -4.18319e-04   2.15443e-05 DIIS
   @RHF iter   6:  -384.55377224139585   -1.13639e-05   6.40880e-06 DIIS
   @RHF iter   7:  -384.55377319860543   -9.57210e-07   1.45961e-06 DIIS
   @RHF iter   8:  -384.55377326148681   -6.28814e-08   3.75414e-07 DIIS
   @RHF iter   9:  -384.55377326727842   -5.79161e-09   1.30660e-07 DIIS
   @RHF iter  10:  -384.55377326801005   -7.31632e-10   6.44582e-08 DIIS
   @RHF iter  11:  -384.55377326817444   -1.64391e-10   2.68903e-08 DIIS
   @RHF iter  12:  -384.55377326821144   -3.70051e-11   7.20810e-09 DIIS
   @RHF iter  13:  -384.55377326821156   -1.13687e-13   2.20482e-09 DIIS
   @RHF iter  14:  -384.55377326821315   -1.59162e-12   7.68964e-10 DIIS
   @RHF iter  15:  -384.55377326821150    1.64846e-12   2.36492e-10 DIIS
   @RHF iter  16:  -384.55377326821377   -2.27374e-12   6.46411e-11 DIIS
  Energy and wave function converged.

  ==> Post-Iterations <==

    Orbital Energies [Eh]
    ---------------------

    Doubly Occupied:

       1A    -20.256956     2A    -20.256716     3A    -11.113090
       4A    -11.099484     5A    -11.089065     6A    -11.085400
       7A    -11.080968     8A    -11.053828     9A     -1.160460
      10A     -1.038414    11A     -0.947913    12A     -0.806022
      13A     -0.800231    14A     -0.789593    15A     -0.633463
      16A     -0.503092    17A     -0.498990    18A     -0.464925
      19A     -0.452866    20A     -0.417197    21A     -0.413684
      22A     -0.411594    23A     -0.407803    24A     -0.400892
      25A     -0.379397    26A     -0.346107    27A     -0.334438
      28A     -0.325419    29A     -0.321848    30A     -0.306077
      31A     -0.186967    32A     -0.168498    33A     -0.160588

    Virtual:

      34A      0.295713    35A      0.331114    36A      0.346371
      37A      0.357479    38A      0.367390    39A      0.378868
      40A      0.391332    41A      0.403406    42A      0.413018
      43A      0.417157    44A      0.424317    45A      0.447599
      46A      0.461931    47A      0.489074    48A      0.504945
      49A      0.536874    50A      0.540194    51A      0.571712
      52A      0.675570    53A      0.681474    54A      0.707664
      55A      0.719438    56A      0.735122    57A      0.768463
      58A      0.793731    59A      0.816957    60A      0.869706
      61A      0.886281    62A      0.908352    63A      0.911558
      64A      0.952034    65A      0.964393    66A      0.969198
      67A      0.985758    68A      1.009946    69A      1.012050
      70A      1.016542    71A      1.026451    72A      1.032757
      73A      1.037798    74A      1.039638    75A      1.047336
      76A      1.050022    77A      1.062085    78A      1.074412
      79A      1.079076    80A      1.094990    81A      1.119168
      82A      1.145433    83A      1.147688    84A      1.157533
      85A      1.243360    86A      1.258222    87A      1.262740
      88A      1.304305    89A      1.336029    90A      1.365887
      91A      1.416575    92A      1.495455    93A      1.528100
      94A      1.535239    95A      1.554711    96A      1.578736
      97A      1.593245    98A      1.623407    99A      1.656589
     100A      1.661968   101A      1.683585   102A      1.704182
     103A      1.756589   104A      1.776442   105A      1.799651
     106A      1.809798   107A      1.822874   108A      1.829421
     109A      1.837317   110A      1.842715   111A      1.855689
     112A      1.860955   113A      1.971682   114A      1.974614
     115A      1.994136   116A      2.051058   117A      2.052799
     118A      2.072797   119A      2.075513   120A      2.085020
     121A      2.087816   122A      2.102273   123A      2.105566
     124A      2.112690   125A      2.124847   126A      2.147445
     127A      2.157411   128A      2.179963   129A      2.198105
     130A      2.208563   131A      2.236064   132A      2.248462
     133A      2.255638   134A      2.269453   135A      2.374006
     136A      2.379276   137A      2.399877   138A      2.424385
     139A      2.433492   140A      2.435630   141A      2.460706
     142A      2.477096   143A      2.491564   144A      2.500931
     145A      2.581206   146A      2.603839   147A      2.677370
     148A      2.700526   149A      2.714963   150A      2.742678
     151A      2.761890   152A      2.815540   153A      2.838935
     154A      2.850601   155A      2.879237   156A      2.903405
     157A      2.907750   158A      2.920604   159A      2.931671
     160A      2.953568   161A      2.967126   162A      2.971912
     163A      2.981893   164A      2.986610   165A      3.145169
     166A      3.146283   167A      3.242585   168A      3.251779
     169A      3.291704   170A      3.298955   171A      3.374292
     172A      3.667709   173A      3.785657   174A      3.839530
     175A      4.088900   176A      4.104943   177A      4.230965

    Final Occupation by Irrep:
              A
    DOCC [    33 ]

  @RHF Final Energy:  -384.55377326821377

   => Energetics <=

    Nuclear Repulsion Energy =            375.8038570295721001
    One-Electron Energy =               -1281.2912900669512055
    Two-Electron Energy =                 520.9336597691652742
    Total Energy =                       -384.5537732682138312

Computation Completed

Properties will be evaluated at   0.000000,   0.000000,   0.000000 [a0]

Properties computed using the SCF density matrix

  Nuclear Dipole Moment: [e a0]
     X:     4.9990      Y:     3.4151      Z:   -10.7077

  Electronic Dipole Moment: [e a0]
     X:    -4.2106      Y:    -2.9229      Z:     8.3199

  Dipole Moment: [e a0]
     X:     0.7885      Y:     0.4922      Z:    -2.3878     Total:     2.5624

  Dipole Moment: [D]
     X:     2.0041      Y:     1.2511      Z:    -6.0693     Total:     6.5129

*** tstop() called on ds3 at Mon Apr 27 07:27:43 2020
Module time:
	user time   =      44.83 seconds =       0.75 minutes
	system time =      19.30 seconds =       0.32 minutes
	total time  =         67 seconds =       1.12 minutes
Total time:
	user time   =      44.83 seconds =       0.75 minutes
	system time =      19.30 seconds =       0.32 minutes
	total time  =         67 seconds =       1.12 minutes
                                     G D M A

                                 by Anthony Stone

                           version 2.2.06, 22 June 2011

               Distributed Multipoles from Gaussian wavefunctions

Starting at 7:27:43 on 27 Apr 2020

Using SCF density matrix from file ./SSI/SSI-086ASP-091ILE-1-dimer.test.10096.fchk

                         Distributed Multipole Analysis

Standard DMA

Positions and radii in angstrom
Multipole moments in atomic units, ea_0^k for rank k

C          x = -2.079587  y = -2.020252  z =  0.839219 angstrom
           Maximum rank =  0   Radius =  0.650 angstrom
                   Q00  =  -0.278555

C          x = -1.112587  y = -0.959252  z =  1.346219 angstrom
           Maximum rank =  0   Radius =  0.650 angstrom
                   Q00  =   0.962097

O          x =  0.027413  y = -1.275252  z =  1.707219 angstrom
           Maximum rank =  0   Radius =  0.650 angstrom
                   Q00  =  -0.927052

O          x = -1.477587  y =  0.222748  z =  1.365219 angstrom
           Maximum rank =  0   Radius =  0.650 angstrom
                   Q00  =  -0.926757

H          x = -1.926587  y = -2.124252  z = -0.235781 angstrom
           Maximum rank =  0   Radius =  0.325 angstrom
                   Q00  =   0.076330

H          x = -3.102587  y = -1.680252  z =  0.996219 angstrom
           Maximum rank =  0   Radius =  0.325 angstrom
                   Q00  =   0.056189

H          x = -1.925077  y = -3.005095  z =  1.304199 angstrom
           Maximum rank =  0   Radius =  0.325 angstrom
                   Q00  =   0.053879

C          x =  0.858413  y =  0.878748  z = -1.245781 angstrom
           Maximum rank =  0   Radius =  0.650 angstrom
                   Q00  =   0.026916

C          x =  1.242413  y =  1.965748  z = -0.211781 angstrom
           Maximum rank =  0   Radius =  0.650 angstrom
                   Q00  =  -0.212654

C          x =  0.681413  y =  1.497748  z = -2.619781 angstrom
           Maximum rank =  0   Radius =  0.650 angstrom
                   Q00  =  -0.250089

C          x =  1.894413  y = -0.266252  z = -1.242781 angstrom
           Maximum rank =  0   Radius =  0.650 angstrom
                   Q00  =  -0.228358

H          x = -0.105587  y =  0.464748  z = -0.948781 angstrom
           Maximum rank =  0   Radius =  0.325 angstrom
                   Q00  =   0.049451

H          x =  2.196413  y =  2.392748  z = -0.524781 angstrom
           Maximum rank =  0   Radius =  0.325 angstrom
                   Q00  =   0.016372

H          x =  1.571413  y =  2.067748  z = -2.889781 angstrom
           Maximum rank =  0   Radius =  0.325 angstrom
                   Q00  =   0.047351

H          x =  0.540413  y =  0.729748  z = -3.374781 angstrom
           Maximum rank =  0   Radius =  0.325 angstrom
                   Q00  =   0.060638

H          x = -0.185587  y =  2.156748  z = -2.642781 angstrom
           Maximum rank =  0   Radius =  0.325 angstrom
                   Q00  =   0.072793

H          x =  2.825413  y =  0.061748  z = -1.706781 angstrom
           Maximum rank =  0   Radius =  0.325 angstrom
                   Q00  =   0.026677

H          x =  2.107413  y = -0.598252  z = -0.227781 angstrom
           Maximum rank =  0   Radius =  0.325 angstrom
                   Q00  =   0.118351

H          x =  1.353543  y =  1.531685  z =  0.792829 angstrom
           Maximum rank =  0   Radius =  0.325 angstrom
                   Q00  =   0.119253

H          x =  0.504863  y =  2.781627  z = -0.192921 angstrom
           Maximum rank =  0   Radius =  0.325 angstrom
                   Q00  =   0.071800

H          x =  1.485873  y = -1.130635  z = -1.786781 angstrom
           Maximum rank =  0   Radius =  0.325 angstrom
                   Q00  =   0.065369

Total multipoles referred to origin at
           x =   0.000000,  y =    0.000000,  z =    0.000000 angstrom
                   Q00  =  -1.000000

Finished at 7:27:43 on 27 Apr 2020

  DMA results are available in the Python driver through the
	  variable('DMA DISTRIBUTED MULTIPOLES')
  and
	  variable('DMA TOTAL MULTIPOLES')
  commands.

    Psi4 stopped on: Monday, 27 April 2020 07:27AM
    Psi4 wall time for execution: 0:01:06.84

*** Psi4 exiting successfully. Buy a developer a beer!
