                               Psi4 1.3.2 release

  ==> Input File <==

--------------------------------------------------------------------------
import numpy as np
set {scf_type pk
basis cc-pvdz
d_convergence 10
gdma_switch   0
gdma_limit    0
gdma_origin   [ 0.0,  0.0,  0.0 ]
}
molecule test {
    units Angstrom
    -1 1
    --
    -1 1
    C                0.580771669939785    -0.477949868473977     4.236915931648765
    C                0.576771669939785    -0.086949868473977     2.777915931648766
    O               -0.510228330060215     0.069050131526023     2.183915931648766
    O                1.700771669939785     0.054050131526023     2.239915931648765
    H                1.065771669939785     0.324050131526023     4.796915931648766
    H                1.212771669939785    -1.341949868473977     4.371915931648766
    H               -0.412808330060215    -0.649901068473977     4.676505931648766
    C               -0.478228330060215     1.198050131526023    -3.982084068351234
    C               -0.560228330060215    -1.209949868473977    -1.243084068351235
    C               -0.184228330060215     0.937050131526023    -1.392084068351234
    C               -0.390228330060215     0.473050131526023    -2.659084068351234
    N               -0.260228330060215    -0.139949868473977    -0.533084068351234
    N               -0.672228330060215    -0.862949868473977    -2.535084068351235
    H               -0.179228330060215    -0.103949868473977     0.487915931648766
    H               -0.727228330060215    -2.200949868473977    -0.840084068351234
    H                0.112771669939785     1.933050131526023    -1.155084068351234
    H               -1.345228330060215     0.800050131526023    -4.509084068351235
    H                0.374771669939785     1.016050131526023    -4.618084068351235
    H               -0.618488330060215     2.282530131526023    -3.862791068351234

}
e, wfn = energy('scf', return_wfn=True)
gdma(wfn)
dmavals = variable('DMA DISTRIBUTED MULTIPOLES')
charges = np.array(dmavals)
print(charges)
np.save('SSI-118ASP-136HIE-1-dimer.npy', np.array(charges))--------------------------------------------------------------------------

*** tstart() called on ds3
*** at Mon Apr 27 18:57:26 2020

   => Loading Basis Set <=

    Name: CC-PVDZ
    Role: ORBITAL
    Keyword: BASIS
    atoms 1-2, 8-11  entry C          line   138 file /theoryfs2/ds/metcalf/miniconda2/envs/tf2gpu/share/psi4/basis/cc-pvdz.gbs
    atoms 3-4        entry O          line   198 file /theoryfs2/ds/metcalf/miniconda2/envs/tf2gpu/share/psi4/basis/cc-pvdz.gbs
    atoms 5-7, 14-19 entry H          line    22 file /theoryfs2/ds/metcalf/miniconda2/envs/tf2gpu/share/psi4/basis/cc-pvdz.gbs
    atoms 12-13      entry N          line   168 file /theoryfs2/ds/metcalf/miniconda2/envs/tf2gpu/share/psi4/basis/cc-pvdz.gbs

         ---------------------------------------------------------
                                   SCF
               by Justin Turney, Rob Parrish, Andy Simmonett
                          and Daniel G. A. Smith
                              RHF Reference
                        1 Threads,    500 MiB Core
         ---------------------------------------------------------

  ==> Geometry <==

    Molecular point group: c1
    Full point group: C1

    Geometry (in Angstrom), charge = -1, multiplicity = 1:

       Center              X                  Y                   Z               Mass
    ------------   -----------------  -----------------  -----------------  -----------------
         C            0.580771669940    -0.477949868474     4.236915931649    12.000000000000
         C            0.576771669940    -0.086949868474     2.777915931649    12.000000000000
         O           -0.510228330060     0.069050131526     2.183915931649    15.994914619570
         O            1.700771669940     0.054050131526     2.239915931649    15.994914619570
         H            1.065771669940     0.324050131526     4.796915931649     1.007825032230
         H            1.212771669940    -1.341949868474     4.371915931649     1.007825032230
         H           -0.412808330060    -0.649901068474     4.676505931649     1.007825032230
         C           -0.478228330060     1.198050131526    -3.982084068351    12.000000000000
         C           -0.560228330060    -1.209949868474    -1.243084068351    12.000000000000
         C           -0.184228330060     0.937050131526    -1.392084068351    12.000000000000
         C           -0.390228330060     0.473050131526    -2.659084068351    12.000000000000
         N           -0.260228330060    -0.139949868474    -0.533084068351    14.003074004430
         N           -0.672228330060    -0.862949868474    -2.535084068351    14.003074004430
         H           -0.179228330060    -0.103949868474     0.487915931649     1.007825032230
         H           -0.727228330060    -2.200949868474    -0.840084068351     1.007825032230
         H            0.112771669940     1.933050131526    -1.155084068351     1.007825032230
         H           -1.345228330060     0.800050131526    -4.509084068351     1.007825032230
         H            0.374771669940     1.016050131526    -4.618084068351     1.007825032230
         H           -0.618488330060     2.282530131526    -3.862791068351     1.007825032230

  Running in c1 symmetry.

  Rotational constants: A =      0.14243  B =      0.01563  C =      0.01503 [cm^-1]
  Rotational constants: A =   4269.84930  B =    468.65780  C =    450.62934 [MHz]
  Nuclear repulsion =  486.183141570775035

  Charge       = -1
  Multiplicity = 1
  Electrons    = 76
  Nalpha       = 38
  Nbeta        = 38

  ==> Algorithm <==

  SCF Algorithm Type is PK.
  DIIS enabled.
  MOM disabled.
  Fractional occupation disabled.
  Guess Type is SAD.
  Energy threshold   = 1.00e-06
  Density threshold  = 1.00e-10
  Integral threshold = 0.00e+00

  ==> Primary Basis <==

  Basis Set: CC-PVDZ
    Blend: CC-PVDZ
    Number of shells: 87
    Number of basis function: 185
    Number of Cartesian functions: 195
    Spherical Harmonics?: true
    Max angular momentum: 2

  ==> Pre-Iterations <==

   -------------------------------------------------------
    Irrep   Nso     Nmo     Nalpha   Nbeta   Ndocc  Nsocc
   -------------------------------------------------------
     A        185     185       0       0       0       0
   -------------------------------------------------------
    Total     185     185      38      38      38       0
   -------------------------------------------------------

  ==> Integral Setup <==

  Using integral reordering PK algorithm.
  Sizing the integral batches needed.
  Building batch lookup table.
   Calculation information:
      Number of atoms:                  19
      Number of AO shells:              87
      Number of primitives:            265
      Number of atomic orbitals:       195
      Number of basis functions:       185

      Integral cutoff                 1.00e-12
      Number of threads:                 1

	Batch   1 pq = [       0,    9405] index = [             0,44231715] size =     44231715
	Batch   2 pq = [    9405,   13301] index = [      44231715,88464951] size =     44233236
	Batch   3 pq = [   13301,   16290] index = [      88464951,132690195] size =     44225244
	Batch   4 pq = [   16290,   17205] index = [     132690195,148014615] size =     15324420
  Task number: 14
  Buffer size: 11059200
  Buffer per thread: 2
  We computed 5121863 shell quartets total.
  Whereas there are 7328706 unique shell quartets.

  ==> DiskJK: Disk-Based J/K Matrices <==

    J tasked:                  Yes
    K tasked:                  Yes
    wK tasked:                  No
    Memory [MiB]:              375
    Schwarz Cutoff:          1E-12

    OpenMP threads:              1

  Minimum eigenvalue in the overlap matrix is 1.2564763846E-03.
  Using Symmetric Orthogonalization.

  SCF Guess: Superposition of Atomic Densities via on-the-fly atomic UHF.

  ==> Iterations <==

                        Total Energy        Delta E     RMS |[F,P]|

   @RHF iter SAD:  -489.80309195251766   -4.89803e+02   0.00000e+00
   @RHF iter   1:  -490.85760155334833   -1.05451e+00   4.09377e-03 DIIS
   @RHF iter   2:  -491.08046524897628   -2.22864e-01   2.27925e-03 DIIS
   @RHF iter   3:  -491.14687351384543   -6.64083e-02   3.88808e-04 DIIS
   @RHF iter   4:  -491.15013743110387   -3.26392e-03   1.50466e-04 DIIS
   @RHF iter   5:  -491.15062277575788   -4.85345e-04   3.29614e-05 DIIS
   @RHF iter   6:  -491.15064746271179   -2.46870e-05   1.38546e-05 DIIS
   @RHF iter   7:  -491.15065228473418   -4.82202e-06   3.41619e-06 DIIS
   @RHF iter   8:  -491.15065301488875   -7.30155e-07   1.78547e-06 DIIS
   @RHF iter   9:  -491.15065320880780   -1.93919e-07   7.34142e-07 DIIS
   @RHF iter  10:  -491.15065324883676   -4.00290e-08   2.18848e-07 DIIS
   @RHF iter  11:  -491.15065325189778   -3.06102e-09   6.60980e-08 DIIS
   @RHF iter  12:  -491.15065325202465   -1.26875e-10   3.14215e-08 DIIS
   @RHF iter  13:  -491.15065325205154   -2.68869e-11   8.98086e-09 DIIS
   @RHF iter  14:  -491.15065325205467   -3.12639e-12   3.43696e-09 DIIS
   @RHF iter  15:  -491.15065325205768   -3.01270e-12   1.18811e-09 DIIS
   @RHF iter  16:  -491.15065325205546    2.21689e-12   5.58965e-10 DIIS
   @RHF iter  17:  -491.15065325205467    7.95808e-13   1.86027e-10 DIIS
   @RHF iter  18:  -491.15065325205421    4.54747e-13   6.71293e-11 DIIS
  Energy and wave function converged.

  ==> Post-Iterations <==

    Orbital Energies [Eh]
    ---------------------

    Doubly Occupied:

       1A    -20.308698     2A    -20.292225     3A    -15.452222
       4A    -15.390534     5A    -11.152926     6A    -11.148701
       7A    -11.119855     8A    -11.109932     9A    -11.108226
      10A    -11.072436    11A     -1.194854    12A     -1.188573
      13A     -1.078801    14A     -1.006223    15A     -0.897608
      16A     -0.825281    17A     -0.816568    18A     -0.668584
      19A     -0.619835    20A     -0.601591    21A     -0.536518
      22A     -0.476084    23A     -0.471216    24A     -0.455435
      25A     -0.445744    26A     -0.439496    27A     -0.435363
      28A     -0.426184    29A     -0.418184    30A     -0.404185
      31A     -0.375275    32A     -0.338153    33A     -0.276697
      34A     -0.234005    35A     -0.223881    36A     -0.210797
      37A     -0.203711    38A     -0.171241

    Virtual:

      39A      0.300828    40A      0.332421    41A      0.334998
      42A      0.341918    43A      0.343891    44A      0.351990
      45A      0.373970    46A      0.381548    47A      0.395373
      48A      0.409815    49A      0.457228    50A      0.480898
      51A      0.492913    52A      0.532224    53A      0.548969
      54A      0.601801    55A      0.616312    56A      0.625433
      57A      0.674085    58A      0.727741    59A      0.728434
      60A      0.746256    61A      0.770405    62A      0.788404
      63A      0.796208    64A      0.829134    65A      0.841676
      66A      0.869618    67A      0.884256    68A      0.895772
      69A      0.915863    70A      0.923030    71A      0.944883
      72A      0.950631    73A      0.967192    74A      0.983724
      75A      0.997264    76A      1.009631    77A      1.014067
      78A      1.016726    79A      1.028411    80A      1.030971
      81A      1.063158    82A      1.076605    83A      1.094378
      84A      1.103765    85A      1.116217    86A      1.176231
      87A      1.185640    88A      1.221354    89A      1.230434
      90A      1.256352    91A      1.273493    92A      1.295481
      93A      1.303748    94A      1.318456    95A      1.331641
      96A      1.374007    97A      1.406356    98A      1.431043
      99A      1.446861   100A      1.461491   101A      1.477461
     102A      1.520014   103A      1.537724   104A      1.566425
     105A      1.579649   106A      1.584763   107A      1.602780
     108A      1.632015   109A      1.648032   110A      1.648664
     111A      1.689582   112A      1.711476   113A      1.730859
     114A      1.772958   115A      1.799138   116A      1.825801
     117A      1.833787   118A      1.839463   119A      1.902256
     120A      1.917794   121A      1.944387   122A      1.973204
     123A      1.979247   124A      2.016911   125A      2.025943
     126A      2.047871   127A      2.053246   128A      2.062635
     129A      2.093175   130A      2.097306   131A      2.101058
     132A      2.122876   133A      2.135076   134A      2.173632
     135A      2.187113   136A      2.196479   137A      2.238450
     138A      2.245646   139A      2.280326   140A      2.305454
     141A      2.335437   142A      2.341807   143A      2.356651
     144A      2.405710   145A      2.416866   146A      2.466164
     147A      2.507989   148A      2.531764   149A      2.575480
     150A      2.591612   151A      2.604167   152A      2.624270
     153A      2.637871   154A      2.678329   155A      2.732948
     156A      2.748092   157A      2.763014   158A      2.822900
     159A      2.843219   160A      2.880312   161A      2.898133
     162A      2.906426   163A      2.943392   164A      2.963356
     165A      2.972889   166A      2.993287   167A      3.006967
     168A      3.043714   169A      3.065132   170A      3.097964
     171A      3.199347   172A      3.217069   173A      3.252694
     174A      3.296019   175A      3.325630   176A      3.376376
     177A      3.444649   178A      3.591830   179A      3.608956
     180A      3.771484   181A      3.793934   182A      3.992719
     183A      4.031177   184A      4.062176   185A      4.183274

    Final Occupation by Irrep:
              A
    DOCC [    38 ]

  @RHF Final Energy:  -491.15065325205421

   => Energetics <=

    Nuclear Repulsion Energy =            486.1831415707750352
    One-Electron Energy =               -1647.4759020919623254
    Two-Electron Energy =                 670.1421072691331347
    Total Energy =                       -491.1506532520542123

Computation Completed

Properties will be evaluated at   0.000000,   0.000000,   0.000000 [a0]

Properties computed using the SCF density matrix

  Nuclear Dipole Moment: [e a0]
     X:    -0.4761      Y:     1.9337      Z:    -0.5809

  Electronic Dipole Moment: [e a0]
     X:    -0.1369      Y:    -1.7097      Z:    -0.6599

  Dipole Moment: [e a0]
     X:    -0.6130      Y:     0.2240      Z:    -1.2408     Total:     1.4020

  Dipole Moment: [D]
     X:    -1.5581      Y:     0.5694      Z:    -3.1539     Total:     3.5636

*** tstop() called on ds3 at Mon Apr 27 18:58:33 2020
Module time:
	user time   =      45.13 seconds =       0.75 minutes
	system time =      23.26 seconds =       0.39 minutes
	total time  =         67 seconds =       1.12 minutes
Total time:
	user time   =      45.13 seconds =       0.75 minutes
	system time =      23.26 seconds =       0.39 minutes
	total time  =         67 seconds =       1.12 minutes
                                     G D M A

                                 by Anthony Stone

                           version 2.2.06, 22 June 2011

               Distributed Multipoles from Gaussian wavefunctions

Starting at 18:58:33 on 27 Apr 2020

Using SCF density matrix from file ./SSI/SSI-118ASP-136HIE-1-dimer.test.32268.fchk

                         Distributed Multipole Analysis

Standard DMA

Positions and radii in angstrom
Multipole moments in atomic units, ea_0^k for rank k

C          x =  0.580772  y = -0.477950  z =  4.236916 angstrom
           Maximum rank =  0   Radius =  0.650 angstrom
                   Q00  =  -0.254070

C          x =  0.576772  y = -0.086950  z =  2.777916 angstrom
           Maximum rank =  0   Radius =  0.650 angstrom
                   Q00  =   0.884212

O          x = -0.510228  y =  0.069050  z =  2.183916 angstrom
           Maximum rank =  0   Radius =  0.650 angstrom
                   Q00  =  -0.919069

O          x =  1.700772  y =  0.054050  z =  2.239916 angstrom
           Maximum rank =  0   Radius =  0.650 angstrom
                   Q00  =  -0.897451

H          x =  1.065772  y =  0.324050  z =  4.796916 angstrom
           Maximum rank =  0   Radius =  0.325 angstrom
                   Q00  =   0.081030

H          x =  1.212772  y = -1.341950  z =  4.371916 angstrom
           Maximum rank =  0   Radius =  0.325 angstrom
                   Q00  =   0.078718

H          x = -0.412808  y = -0.649901  z =  4.676506 angstrom
           Maximum rank =  0   Radius =  0.325 angstrom
                   Q00  =   0.053336

C          x = -0.478228  y =  1.198050  z = -3.982084 angstrom
           Maximum rank =  0   Radius =  0.650 angstrom
                   Q00  =  -0.195707

C          x = -0.560228  y = -1.209950  z = -1.243084 angstrom
           Maximum rank =  0   Radius =  0.650 angstrom
                   Q00  =   0.476164

C          x = -0.184228  y =  0.937050  z = -1.392084 angstrom
           Maximum rank =  0   Radius =  0.650 angstrom
                   Q00  =   0.052690

C          x = -0.390228  y =  0.473050  z = -2.659084 angstrom
           Maximum rank =  0   Radius =  0.650 angstrom
                   Q00  =   0.169072

N          x = -0.260228  y = -0.139950  z = -0.533084 angstrom
           Maximum rank =  0   Radius =  0.650 angstrom
                   Q00  =  -0.490076

N          x = -0.672228  y = -0.862950  z = -2.535084 angstrom
           Maximum rank =  0   Radius =  0.650 angstrom
                   Q00  =  -0.805022

H          x = -0.179228  y = -0.103950  z =  0.487916 angstrom
           Maximum rank =  0   Radius =  0.325 angstrom
                   Q00  =   0.335040

H          x = -0.727228  y = -2.200950  z = -0.840084 angstrom
           Maximum rank =  0   Radius =  0.325 angstrom
                   Q00  =   0.103555

H          x =  0.112772  y =  1.933050  z = -1.155084 angstrom
           Maximum rank =  0   Radius =  0.325 angstrom
                   Q00  =   0.071058

H          x = -1.345228  y =  0.800050  z = -4.509084 angstrom
           Maximum rank =  0   Radius =  0.325 angstrom
                   Q00  =   0.092209

H          x =  0.374772  y =  1.016050  z = -4.618084 angstrom
           Maximum rank =  0   Radius =  0.325 angstrom
                   Q00  =   0.085149

H          x = -0.618488  y =  2.282530  z = -3.862791 angstrom
           Maximum rank =  0   Radius =  0.325 angstrom
                   Q00  =   0.079164

Total multipoles referred to origin at
           x =   0.000000,  y =    0.000000,  z =    0.000000 angstrom
                   Q00  =  -1.000000

Finished at 18:58:33 on 27 Apr 2020

  DMA results are available in the Python driver through the
	  variable('DMA DISTRIBUTED MULTIPOLES')
  and
	  variable('DMA TOTAL MULTIPOLES')
  commands.

    Psi4 stopped on: Monday, 27 April 2020 06:58PM
    Psi4 wall time for execution: 0:01:06.36

*** Psi4 exiting successfully. Buy a developer a beer!
