                               Psi4 1.3.2 release

  ==> Input File <==

--------------------------------------------------------------------------
import numpy as np
set {scf_type pk
basis cc-pvdz
d_convergence 10
gdma_switch   0
gdma_limit    0
gdma_origin   [ 0.0,  0.0,  0.0 ]
}
molecule test {
    units Angstrom
    0 1
    --
    0 1
    C                4.152061851053111    -0.767990411747893     0.205627487122855
    C                0.815061851053111     0.998009588252107     0.483627487122855
    C                1.704061851053111     0.154009588252107    -0.241372512877145
    C                2.917061851053111     0.039009588252107     0.533627487122855
    C                2.719061851053111     0.794009588252107     1.650627487122855
    C               -0.857938148946888     0.799009588252107    -1.198372512877145
    C               -0.456938148946889     1.326009588252107     0.019627487122855
    C               -0.006938148946889    -0.039990411747893    -1.940372512877145
    C                1.272061851053112    -0.367990411747893    -1.471372512877145
    N                1.467061851053112     1.365009588252107     1.630627487122855
    H               -1.840938148946889     1.036009588252107    -1.584372512877145
    H               -1.109938148946889     1.970009588252107     0.592627487122855
    H               -0.348938148946889    -0.442990411747893    -2.884372512877145
    H                1.894061851053112    -1.036990411747893    -2.033372512877145
    H                1.108061851053111     1.974009588252107     2.357627487122855
    H                3.445061851053111     0.931009588252107     2.439627487122855
    H                3.841061851053111    -1.762990411747893    -0.115372512877145
    H                4.713061851053112    -0.909990411747893     1.127627487122855
    H                4.829191851053112    -0.329679411747893    -0.542289512877145
    C               -3.656938148946888    -1.250990411747893     0.220627487122855
    C               -4.365938148946889    -2.558990411747893    -0.158372512877145
    C               -4.501938148946889     0.014009588252107     0.037627487122855
    H               -3.314938148946889    -1.297990411747893     1.255627487122855
    H               -2.765938148946889    -1.154990411747893    -0.399372512877145
    H               -3.671938148946889    -3.374990411747894     0.049627487122855
    H               -5.362938148946889     0.011009588252107     0.702627487122855
    H               -3.889938148946888     0.884009588252107     0.278627487122855
    H               -4.835938148946888     0.106009588252107    -0.995372512877145
    H               -5.270688148946889    -2.703836411747894     0.450266487122855
    H               -4.620048148946889    -2.601223411747893    -1.227785512877145

}
e, wfn = energy('scf', return_wfn=True)
gdma(wfn)
dmavals = variable('DMA DISTRIBUTED MULTIPOLES')
charges = np.array(dmavals)
print(charges)
np.save('SSI-080TRP-136ILE-1-dimer.npy', np.array(charges))--------------------------------------------------------------------------

*** tstart() called on ds3
*** at Tue Apr 28 14:39:26 2020

   => Loading Basis Set <=

    Name: CC-PVDZ
    Role: ORBITAL
    Keyword: BASIS
    atoms 1-9, 20-22   entry C          line   138 file /theoryfs2/ds/metcalf/miniconda2/envs/tf2gpu/share/psi4/basis/cc-pvdz.gbs
    atoms 10           entry N          line   168 file /theoryfs2/ds/metcalf/miniconda2/envs/tf2gpu/share/psi4/basis/cc-pvdz.gbs
    atoms 11-19, 23-30 entry H          line    22 file /theoryfs2/ds/metcalf/miniconda2/envs/tf2gpu/share/psi4/basis/cc-pvdz.gbs

         ---------------------------------------------------------
                                   SCF
               by Justin Turney, Rob Parrish, Andy Simmonett
                          and Daniel G. A. Smith
                              RHF Reference
                        1 Threads,    500 MiB Core
         ---------------------------------------------------------

  ==> Geometry <==

    Molecular point group: c1
    Full point group: C1

    Geometry (in Angstrom), charge = 0, multiplicity = 1:

       Center              X                  Y                   Z               Mass
    ------------   -----------------  -----------------  -----------------  -----------------
         C            4.152061851053    -0.767990411748     0.205627487123    12.000000000000
         C            0.815061851053     0.998009588252     0.483627487123    12.000000000000
         C            1.704061851053     0.154009588252    -0.241372512877    12.000000000000
         C            2.917061851053     0.039009588252     0.533627487123    12.000000000000
         C            2.719061851053     0.794009588252     1.650627487123    12.000000000000
         C           -0.857938148947     0.799009588252    -1.198372512877    12.000000000000
         C           -0.456938148947     1.326009588252     0.019627487123    12.000000000000
         C           -0.006938148947    -0.039990411748    -1.940372512877    12.000000000000
         C            1.272061851053    -0.367990411748    -1.471372512877    12.000000000000
         N            1.467061851053     1.365009588252     1.630627487123    14.003074004430
         H           -1.840938148947     1.036009588252    -1.584372512877     1.007825032230
         H           -1.109938148947     1.970009588252     0.592627487123     1.007825032230
         H           -0.348938148947    -0.442990411748    -2.884372512877     1.007825032230
         H            1.894061851053    -1.036990411748    -2.033372512877     1.007825032230
         H            1.108061851053     1.974009588252     2.357627487123     1.007825032230
         H            3.445061851053     0.931009588252     2.439627487123     1.007825032230
         H            3.841061851053    -1.762990411748    -0.115372512877     1.007825032230
         H            4.713061851053    -0.909990411748     1.127627487123     1.007825032230
         H            4.829191851053    -0.329679411748    -0.542289512877     1.007825032230
         C           -3.656938148947    -1.250990411748     0.220627487123    12.000000000000
         C           -4.365938148947    -2.558990411748    -0.158372512877    12.000000000000
         C           -4.501938148947     0.014009588252     0.037627487123    12.000000000000
         H           -3.314938148947    -1.297990411748     1.255627487123     1.007825032230
         H           -2.765938148947    -1.154990411748    -0.399372512877     1.007825032230
         H           -3.671938148947    -3.374990411748     0.049627487123     1.007825032230
         H           -5.362938148947     0.011009588252     0.702627487123     1.007825032230
         H           -3.889938148947     0.884009588252     0.278627487123     1.007825032230
         H           -4.835938148947     0.106009588252    -0.995372512877     1.007825032230
         H           -5.270688148947    -2.703836411748     0.450266487123     1.007825032230
         H           -4.620048148947    -2.601223411748    -1.227785512877     1.007825032230

  Running in c1 symmetry.

  Rotational constants: A =      0.04558  B =      0.01073  C =      0.01026 [cm^-1]
  Rotational constants: A =   1366.49301  B =    321.68486  C =    307.70690 [MHz]
  Nuclear repulsion =  730.271786475041722

  Charge       = 0
  Multiplicity = 1
  Electrons    = 96
  Nalpha       = 48
  Nbeta        = 48

  ==> Algorithm <==

  SCF Algorithm Type is PK.
  DIIS enabled.
  MOM disabled.
  Fractional occupation disabled.
  Guess Type is SAD.
  Energy threshold   = 1.00e-06
  Density threshold  = 1.00e-10
  Integral threshold = 0.00e+00

  ==> Primary Basis <==

  Basis Set: CC-PVDZ
    Blend: CC-PVDZ
    Number of shells: 129
    Number of basis function: 267
    Number of Cartesian functions: 280
    Spherical Harmonics?: true
    Max angular momentum: 2

  ==> Pre-Iterations <==

   -------------------------------------------------------
    Irrep   Nso     Nmo     Nalpha   Nbeta   Ndocc  Nsocc
   -------------------------------------------------------
     A        267     267       0       0       0       0
   -------------------------------------------------------
    Total     267     267      48      48      48       0
   -------------------------------------------------------

  ==> Integral Setup <==

  Using integral reordering PK algorithm.
  Sizing the integral batches needed.
  Building batch lookup table.
   Calculation information:
      Number of atoms:                  30
      Number of AO shells:             129
      Number of primitives:            371
      Number of atomic orbitals:       280
      Number of basis functions:       267

      Integral cutoff                 1.00e-12
      Number of threads:                 1

	Batch   1 pq = [       0,    9405] index = [             0,44231715] size =     44231715
	Batch   2 pq = [    9405,   13301] index = [      44231715,88464951] size =     44233236
	Batch   3 pq = [   13301,   16290] index = [      88464951,132690195] size =     44225244
	Batch   4 pq = [   16290,   18810] index = [     132690195,176917455] size =     44227260
	Batch   5 pq = [   18810,   21030] index = [     176917455,221140965] size =     44223510
	Batch   6 pq = [   21030,   23037] index = [     221140965,265363203] size =     44222238
	Batch   7 pq = [   23037,   24883] index = [     265363203,309594286] size =     44231083
	Batch   8 pq = [   24883,   26601] index = [     309594286,353819901] size =     44225615
	Batch   9 pq = [   26601,   28214] index = [     353819901,398029005] size =     44209104
	Batch  10 pq = [   28214,   29740] index = [     398029005,442248670] size =     44219665
	Batch  11 pq = [   29740,   31191] index = [     442248670,486454836] size =     44206166
	Batch  12 pq = [   31191,   32578] index = [     486454836,530679331] size =     44224495
	Batch  13 pq = [   32578,   33908] index = [     530679331,574893186] size =     44213855
	Batch  14 pq = [   33908,   35188] index = [     574893186,619115266] size =     44222080
	Batch  15 pq = [   35188,   35778] index = [     619115266,640050531] size =     20935265
  Task number: 58
  Buffer size: 11059200
  Buffer per thread: 2
  We computed 29739042 shell quartets total.
  Whereas there are 35158305 unique shell quartets.

  ==> DiskJK: Disk-Based J/K Matrices <==

    J tasked:                  Yes
    K tasked:                  Yes
    wK tasked:                  No
    Memory [MiB]:              375
    Schwarz Cutoff:          1E-12

    OpenMP threads:              1

  Minimum eigenvalue in the overlap matrix is 2.4417523298E-04.
  Using Symmetric Orthogonalization.

  SCF Guess: Superposition of Atomic Densities via on-the-fly atomic UHF.

  ==> Iterations <==

                        Total Energy        Delta E     RMS |[F,P]|

   @RHF iter SAD:  -517.93031396043671   -5.17930e+02   0.00000e+00
   @RHF iter   1:  -518.49947327349912   -5.69159e-01   2.47848e-03 DIIS
   @RHF iter   2:  -518.75578592344255   -2.56313e-01   1.09448e-03 DIIS
   @RHF iter   3:  -518.80117960918290   -4.53937e-02   2.82583e-04 DIIS
   @RHF iter   4:  -518.80526931822465   -4.08971e-03   1.29210e-04 DIIS
   @RHF iter   5:  -518.80593678958962   -6.67471e-04   1.93595e-05 DIIS
   @RHF iter   6:  -518.80596786272349   -3.10731e-05   8.62023e-06 DIIS
   @RHF iter   7:  -518.80597431843898   -6.45572e-06   3.54136e-06 DIIS
   @RHF iter   8:  -518.80597612040162   -1.80196e-06   1.49735e-06 DIIS
   @RHF iter   9:  -518.80597651643268   -3.96031e-07   6.57054e-07 DIIS
   @RHF iter  10:  -518.80597659796263   -8.15299e-08   2.93064e-07 DIIS
   @RHF iter  11:  -518.80597661633908   -1.83765e-08   1.11342e-07 DIIS
   @RHF iter  12:  -518.80597661883860   -2.49952e-09   4.14773e-08 DIIS
   @RHF iter  13:  -518.80597661904699   -2.08388e-10   1.19341e-08 DIIS
   @RHF iter  14:  -518.80597661905506   -8.07177e-12   4.88856e-09 DIIS
   @RHF iter  15:  -518.80597661906461   -9.54969e-12   2.36125e-09 DIIS
   @RHF iter  16:  -518.80597661905904    5.57066e-12   1.03907e-09 DIIS
   @RHF iter  17:  -518.80597661906540   -6.36646e-12   4.98025e-10 DIIS
   @RHF iter  18:  -518.80597661907041   -5.00222e-12   1.76534e-10 DIIS
   @RHF iter  19:  -518.80597661905915    1.12550e-11   6.60148e-11 DIIS
  Energy and wave function converged.

  ==> Post-Iterations <==

    Orbital Energies [Eh]
    ---------------------

    Doubly Occupied:

       1A    -15.602170     2A    -11.265934     3A    -11.265123
       4A    -11.232217     5A    -11.231658     6A    -11.230371
       7A    -11.228734     8A    -11.223341     9A    -11.223092
      10A    -11.220763    11A    -11.212748    12A    -11.212134
      13A    -11.211110    14A     -1.295088    15A     -1.126066
      16A     -1.071395    17A     -1.044260    18A     -0.995878
      19A     -0.987388    20A     -0.931059    21A     -0.921483
      22A     -0.840049    23A     -0.803294    24A     -0.790144
      25A     -0.753548    26A     -0.720654    27A     -0.663747
      28A     -0.641888    29A     -0.617483    30A     -0.601914
      31A     -0.591151    32A     -0.590345    33A     -0.586095
      34A     -0.566331    35A     -0.553491    36A     -0.546024
      37A     -0.537128    38A     -0.531049    39A     -0.526642
      40A     -0.495453    41A     -0.471311    42A     -0.467130
      43A     -0.466468    44A     -0.461626    45A     -0.454422
      46A     -0.373090    47A     -0.294423    48A     -0.276321

    Virtual:

      49A      0.124053    50A      0.165718    51A      0.173403
      52A      0.182788    53A      0.189839    54A      0.208620
      55A      0.217866    56A      0.223298    57A      0.227810
      58A      0.236593    59A      0.244959    60A      0.259037
      61A      0.266475    62A      0.278807    63A      0.283527
      64A      0.286953    65A      0.295256    66A      0.304644
      67A      0.312462    68A      0.320659    69A      0.372336
      70A      0.373883    71A      0.382144    72A      0.403206
      73A      0.427540    74A      0.430785    75A      0.441954
      76A      0.473496    77A      0.482266    78A      0.502127
      79A      0.510415    80A      0.580052    81A      0.596222
      82A      0.609238    83A      0.610844    84A      0.616263
      85A      0.629133    86A      0.636350    87A      0.637230
      88A      0.650596    89A      0.665792    90A      0.697062
      91A      0.713761    92A      0.720858    93A      0.725719
      94A      0.734726    95A      0.738157    96A      0.743463
      97A      0.756051    98A      0.764955    99A      0.768033
     100A      0.784792   101A      0.790212   102A      0.794663
     103A      0.807394   104A      0.825365   105A      0.835571
     106A      0.859372   107A      0.870389   108A      0.872941
     109A      0.878678   110A      0.883557   111A      0.887969
     112A      0.894961   113A      0.897820   114A      0.902614
     115A      0.909532   116A      0.913119   117A      0.923308
     118A      0.929185   119A      0.940060   120A      0.947106
     121A      0.948920   122A      0.955578   123A      0.966967
     124A      0.978855   125A      0.986978   126A      1.002723
     127A      1.010412   128A      1.037300   129A      1.064318
     130A      1.071928   131A      1.096163   132A      1.121628
     133A      1.125623   134A      1.129991   135A      1.140085
     136A      1.143229   137A      1.163328   138A      1.183816
     139A      1.208399   140A      1.222339   141A      1.226826
     142A      1.234304   143A      1.237554   144A      1.254456
     145A      1.274987   146A      1.287109   147A      1.299928
     148A      1.327362   149A      1.329935   150A      1.359702
     151A      1.366773   152A      1.388839   153A      1.400184
     154A      1.448444   155A      1.473359   156A      1.482856
     157A      1.510601   158A      1.521816   159A      1.544976
     160A      1.575139   161A      1.593675   162A      1.627492
     163A      1.643016   164A      1.647361   165A      1.652197
     166A      1.681844   167A      1.684693   168A      1.690519
     169A      1.697090   170A      1.702682   171A      1.739144
     172A      1.760272   173A      1.777768   174A      1.785221
     175A      1.809655   176A      1.820448   177A      1.828690
     178A      1.861486   179A      1.872227   180A      1.884062
     181A      1.887404   182A      1.894459   183A      1.903039
     184A      1.909601   185A      1.918270   186A      1.921620
     187A      1.933652   188A      1.936023   189A      1.942264
     190A      1.946591   191A      1.962138   192A      1.965284
     193A      1.979836   194A      1.986032   195A      1.988597
     196A      1.998216   197A      2.001219   198A      2.005851
     199A      2.011507   200A      2.024027   201A      2.046196
     202A      2.057804   203A      2.071235   204A      2.077145
     205A      2.088681   206A      2.103304   207A      2.109731
     208A      2.114312   209A      2.132451   210A      2.140308
     211A      2.143223   212A      2.151437   213A      2.173122
     214A      2.180256   215A      2.220133   216A      2.248239
     217A      2.285107   218A      2.293155   219A      2.309483
     220A      2.315252   221A      2.323241   222A      2.330239
     223A      2.337046   224A      2.356688   225A      2.360837
     226A      2.392144   227A      2.409657   228A      2.447511
     229A      2.463236   230A      2.491014   231A      2.531403
     232A      2.537048   233A      2.580634   234A      2.587981
     235A      2.597415   236A      2.611798   237A      2.625346
     238A      2.630414   239A      2.657190   240A      2.674241
     241A      2.693274   242A      2.761470   243A      2.767454
     244A      2.769128   245A      2.773706   246A      2.786461
     247A      2.795143   248A      2.801804   249A      2.823423
     250A      2.841002   251A      2.872177   252A      2.884452
     253A      2.907184   254A      2.924388   255A      2.958566
     256A      2.980079   257A      2.994937   258A      3.030030
     259A      3.049615   260A      3.059804   261A      3.073114
     262A      3.114036   263A      3.197670   264A      3.293899
     265A      3.370725   266A      3.737186   267A      3.935341

    Final Occupation by Irrep:
              A
    DOCC [    48 ]

  @RHF Final Energy:  -518.80597661905915

   => Energetics <=

    Nuclear Repulsion Energy =            730.2717864750417220
    One-Electron Energy =               -2150.2490557642267959
    Two-Electron Energy =                 901.1712926701260358
    Total Energy =                       -518.8059766190591517

Computation Completed

Properties will be evaluated at   0.000000,   0.000000,   0.000000 [a0]

Properties computed using the SCF density matrix

  Nuclear Dipole Moment: [e a0]
     X:   -16.1303      Y:    -8.1633      Z:    -0.4997

  Electronic Dipole Moment: [e a0]
     X:    16.3945      Y:     8.5174      Z:     1.2314

  Dipole Moment: [e a0]
     X:     0.2642      Y:     0.3541      Z:     0.7317     Total:     0.8547

  Dipole Moment: [D]
     X:     0.6714      Y:     0.9000      Z:     1.8598     Total:     2.1725

*** tstop() called on ds3 at Tue Apr 28 14:46:55 2020
Module time:
	user time   =     241.03 seconds =       4.02 minutes
	system time =     101.61 seconds =       1.69 minutes
	total time  =        449 seconds =       7.48 minutes
Total time:
	user time   =     241.03 seconds =       4.02 minutes
	system time =     101.61 seconds =       1.69 minutes
	total time  =        449 seconds =       7.48 minutes
                                     G D M A

                                 by Anthony Stone

                           version 2.2.06, 22 June 2011

               Distributed Multipoles from Gaussian wavefunctions

Starting at 14:46:55 on 28 Apr 2020

Using SCF density matrix from file ./SSI/SSI-080TRP-136ILE-1-dimer.test.6927.fchk

                         Distributed Multipole Analysis

Standard DMA

Positions and radii in angstrom
Multipole moments in atomic units, ea_0^k for rank k

C          x =  4.152062  y = -0.767990  z =  0.205627 angstrom
           Maximum rank =  0   Radius =  0.650 angstrom
                   Q00  =  -0.210057

C          x =  0.815062  y =  0.998010  z =  0.483627 angstrom
           Maximum rank =  0   Radius =  0.650 angstrom
                   Q00  =   0.293063

C          x =  1.704062  y =  0.154010  z = -0.241373 angstrom
           Maximum rank =  0   Radius =  0.650 angstrom
                   Q00  =  -0.053225

C          x =  2.917062  y =  0.039010  z =  0.533627 angstrom
           Maximum rank =  0   Radius =  0.650 angstrom
                   Q00  =  -0.126443

C          x =  2.719062  y =  0.794010  z =  1.650627 angstrom
           Maximum rank =  0   Radius =  0.650 angstrom
                   Q00  =   0.075838

C          x = -0.857938  y =  0.799010  z = -1.198373 angstrom
           Maximum rank =  0   Radius =  0.650 angstrom
                   Q00  =  -0.070178

C          x = -0.456938  y =  1.326010  z =  0.019627 angstrom
           Maximum rank =  0   Radius =  0.650 angstrom
                   Q00  =  -0.124348

C          x = -0.006938  y = -0.039990  z = -1.940373 angstrom
           Maximum rank =  0   Radius =  0.650 angstrom
                   Q00  =  -0.092117

C          x =  1.272062  y = -0.367990  z = -1.471373 angstrom
           Maximum rank =  0   Radius =  0.650 angstrom
                   Q00  =  -0.090586

N          x =  1.467062  y =  1.365010  z =  1.630627 angstrom
           Maximum rank =  0   Radius =  0.650 angstrom
                   Q00  =  -0.496029

H          x = -1.840938  y =  1.036010  z = -1.584373 angstrom
           Maximum rank =  0   Radius =  0.325 angstrom
                   Q00  =   0.066836

H          x = -1.109938  y =  1.970010  z =  0.592627 angstrom
           Maximum rank =  0   Radius =  0.325 angstrom
                   Q00  =   0.073239

H          x = -0.348938  y = -0.442990  z = -2.884373 angstrom
           Maximum rank =  0   Radius =  0.325 angstrom
                   Q00  =   0.061393

H          x =  1.894062  y = -1.036990  z = -2.033373 angstrom
           Maximum rank =  0   Radius =  0.325 angstrom
                   Q00  =   0.071000

H          x =  1.108062  y =  1.974010  z =  2.357627 angstrom
           Maximum rank =  0   Radius =  0.325 angstrom
                   Q00  =   0.217464

H          x =  3.445062  y =  0.931010  z =  2.439627 angstrom
           Maximum rank =  0   Radius =  0.325 angstrom
                   Q00  =   0.100032

H          x =  3.841062  y = -1.762990  z = -0.115373 angstrom
           Maximum rank =  0   Radius =  0.325 angstrom
                   Q00  =   0.101419

H          x =  4.713062  y = -0.909990  z =  1.127627 angstrom
           Maximum rank =  0   Radius =  0.325 angstrom
                   Q00  =   0.102574

H          x =  4.829192  y = -0.329679  z = -0.542290 angstrom
           Maximum rank =  0   Radius =  0.325 angstrom
                   Q00  =   0.100585

C          x = -3.656938  y = -1.250990  z =  0.220627 angstrom
           Maximum rank =  0   Radius =  0.650 angstrom
                   Q00  =  -0.062276

C          x = -4.365938  y = -2.558990  z = -0.158373 angstrom
           Maximum rank =  0   Radius =  0.650 angstrom
                   Q00  =  -0.258337

C          x = -4.501938  y =  0.014010  z =  0.037627 angstrom
           Maximum rank =  0   Radius =  0.650 angstrom
                   Q00  =  -0.251214

H          x = -3.314938  y = -1.297990  z =  1.255627 angstrom
           Maximum rank =  0   Radius =  0.325 angstrom
                   Q00  =   0.047325

H          x = -2.765938  y = -1.154990  z = -0.399373 angstrom
           Maximum rank =  0   Radius =  0.325 angstrom
                   Q00  =   0.059316

H          x = -3.671938  y = -3.374990  z =  0.049627 angstrom
           Maximum rank =  0   Radius =  0.325 angstrom
                   Q00  =   0.083564

H          x = -5.362938  y =  0.011010  z =  0.702627 angstrom
           Maximum rank =  0   Radius =  0.325 angstrom
                   Q00  =   0.076944

H          x = -3.889938  y =  0.884010  z =  0.278627 angstrom
           Maximum rank =  0   Radius =  0.325 angstrom
                   Q00  =   0.077353

H          x = -4.835938  y =  0.106010  z = -0.995373 angstrom
           Maximum rank =  0   Radius =  0.325 angstrom
                   Q00  =   0.075413

H          x = -5.270688  y = -2.703836  z =  0.450266 angstrom
           Maximum rank =  0   Radius =  0.325 angstrom
                   Q00  =   0.073638

H          x = -4.620048  y = -2.601223  z = -1.227786 angstrom
           Maximum rank =  0   Radius =  0.325 angstrom
                   Q00  =   0.077813

Total multipoles referred to origin at
           x =   0.000000,  y =    0.000000,  z =    0.000000 angstrom
                   Q00  =  -0.000000

Finished at 14:46:55 on 28 Apr 2020

  DMA results are available in the Python driver through the
	  variable('DMA DISTRIBUTED MULTIPOLES')
  and
	  variable('DMA TOTAL MULTIPOLES')
  commands.

    Psi4 stopped on: Tuesday, 28 April 2020 02:46PM
    Psi4 wall time for execution: 0:07:29.45

*** Psi4 exiting successfully. Buy a developer a beer!
