                               Psi4 1.3.2 release

  ==> Input File <==

--------------------------------------------------------------------------
import numpy as np
set {scf_type pk
basis cc-pvdz
d_convergence 10
gdma_switch   0
gdma_limit    0
gdma_origin   [ 0.0,  0.0,  0.0 ]
}
molecule test {
    units Angstrom
    0 1
    --
    0 1
    C                2.565477811323080    -1.842997389217100     2.589341393389628
    C                1.136477811323080     1.619002610782900     1.843341393389628
    C                2.017477811323080     2.108002610782900     0.884341393389628
    C                1.300477811323080     0.336002610782900     2.373341393389628
    C                2.348477811323080    -0.500997389217100     1.956341393389628
    C                3.040477811323080     1.276002610782900     0.465341393389628
    C                3.208477811323080    -0.018997389217100     0.966341393389628
    H                0.345477811323080     2.252002610782900     2.210341393389629
    H                1.914477811323080     3.109002610782900     0.497341393389628
    H                0.620477811323080    -0.005997389217100     3.141341393389628
    H                3.754477811323080     1.650002610782900    -0.252658606610372
    H                2.149477811323080    -1.810997389217100     3.597341393389628
    H                3.639477811323080    -1.983997389217100     2.694341393389628
    H                4.044477811323080    -0.615997389217100     0.630341393389628
    H                2.126084811323080    -2.710201389217100     2.074661393389628
    C                0.071477811323080    -1.241997389217100    -3.336658606610372
    C               -1.518522188676920    -0.155997389217100    -0.032658606610372
    C               -2.820522188676920     0.110002610782900    -0.439658606610372
    C               -0.570522188676920    -0.589997389217100    -0.966658606610372
    C               -0.925522188676920    -0.781997389217100    -2.302658606610371
    C               -3.198522188676920    -0.072997389217100    -1.768658606610372
    C               -2.240522188676920    -0.516997389217100    -2.683658606610372
    O               -3.779522188676920     0.508002610782900     0.443341393389628
    H               -1.223522188676920    -0.035997389217100     0.995341393389628
    H                0.447477811323080    -0.770997389217100    -0.646658606610372
    H               -4.211522188676920     0.124002610782900    -2.091658606610372
    H               -4.619522188676920     0.677002610782900    -0.005658606610372
    H                1.070477811323080    -1.264997389217100    -2.900658606610372
    H                0.071477811323080    -0.516997389217100    -4.151658606610372
    H               -2.530522188676920    -0.656997389217100    -3.716658606610372
    H               -0.179964188676920    -2.239169389217100    -3.727078606610372

}
e, wfn = energy('scf', return_wfn=True)
gdma(wfn)
dmavals = variable('DMA DISTRIBUTED MULTIPOLES')
charges = np.array(dmavals)
print(charges)
np.save('SSI-073PHE-077TYR-1-dimer.npy', np.array(charges))--------------------------------------------------------------------------

*** tstart() called on ds3
*** at Mon Apr 27 17:50:24 2020

   => Loading Basis Set <=

    Name: CC-PVDZ
    Role: ORBITAL
    Keyword: BASIS
    atoms 1-7, 16-22  entry C          line   138 file /theoryfs2/ds/metcalf/miniconda2/envs/tf2gpu/share/psi4/basis/cc-pvdz.gbs
    atoms 8-15, 24-31 entry H          line    22 file /theoryfs2/ds/metcalf/miniconda2/envs/tf2gpu/share/psi4/basis/cc-pvdz.gbs
    atoms 23          entry O          line   198 file /theoryfs2/ds/metcalf/miniconda2/envs/tf2gpu/share/psi4/basis/cc-pvdz.gbs

         ---------------------------------------------------------
                                   SCF
               by Justin Turney, Rob Parrish, Andy Simmonett
                          and Daniel G. A. Smith
                              RHF Reference
                        1 Threads,    500 MiB Core
         ---------------------------------------------------------

  ==> Geometry <==

    Molecular point group: c1
    Full point group: C1

    Geometry (in Angstrom), charge = 0, multiplicity = 1:

       Center              X                  Y                   Z               Mass
    ------------   -----------------  -----------------  -----------------  -----------------
         C            2.565477811323    -1.842997389217     2.589341393390    12.000000000000
         C            1.136477811323     1.619002610783     1.843341393390    12.000000000000
         C            2.017477811323     2.108002610783     0.884341393390    12.000000000000
         C            1.300477811323     0.336002610783     2.373341393390    12.000000000000
         C            2.348477811323    -0.500997389217     1.956341393390    12.000000000000
         C            3.040477811323     1.276002610783     0.465341393390    12.000000000000
         C            3.208477811323    -0.018997389217     0.966341393390    12.000000000000
         H            0.345477811323     2.252002610783     2.210341393390     1.007825032230
         H            1.914477811323     3.109002610783     0.497341393390     1.007825032230
         H            0.620477811323    -0.005997389217     3.141341393390     1.007825032230
         H            3.754477811323     1.650002610783    -0.252658606610     1.007825032230
         H            2.149477811323    -1.810997389217     3.597341393390     1.007825032230
         H            3.639477811323    -1.983997389217     2.694341393390     1.007825032230
         H            4.044477811323    -0.615997389217     0.630341393390     1.007825032230
         H            2.126084811323    -2.710201389217     2.074661393390     1.007825032230
         C            0.071477811323    -1.241997389217    -3.336658606610    12.000000000000
         C           -1.518522188677    -0.155997389217    -0.032658606610    12.000000000000
         C           -2.820522188677     0.110002610783    -0.439658606610    12.000000000000
         C           -0.570522188677    -0.589997389217    -0.966658606610    12.000000000000
         C           -0.925522188677    -0.781997389217    -2.302658606610    12.000000000000
         C           -3.198522188677    -0.072997389217    -1.768658606610    12.000000000000
         C           -2.240522188677    -0.516997389217    -2.683658606610    12.000000000000
         O           -3.779522188677     0.508002610783     0.443341393390    15.994914619570
         H           -1.223522188677    -0.035997389217     0.995341393390     1.007825032230
         H            0.447477811323    -0.770997389217    -0.646658606610     1.007825032230
         H           -4.211522188677     0.124002610783    -2.091658606610     1.007825032230
         H           -4.619522188677     0.677002610783    -0.005658606610     1.007825032230
         H            1.070477811323    -1.264997389217    -2.900658606610     1.007825032230
         H            0.071477811323    -0.516997389217    -4.151658606610     1.007825032230
         H           -2.530522188677    -0.656997389217    -3.716658606610     1.007825032230
         H           -0.179964188677    -2.239169389217    -3.727078606610     1.007825032230

  Running in c1 symmetry.

  Rotational constants: A =      0.02759  B =      0.01035  C =      0.00912 [cm^-1]
  Rotational constants: A =    827.03268  B =    310.42589  C =    273.50380 [MHz]
  Nuclear repulsion =  889.438868485848843

  Charge       = 0
  Multiplicity = 1
  Electrons    = 108
  Nalpha       = 54
  Nbeta        = 54

  ==> Algorithm <==

  SCF Algorithm Type is PK.
  DIIS enabled.
  MOM disabled.
  Fractional occupation disabled.
  Guess Type is SAD.
  Energy threshold   = 1.00e-06
  Density threshold  = 1.00e-10
  Integral threshold = 0.00e+00

  ==> Primary Basis <==

  Basis Set: CC-PVDZ
    Blend: CC-PVDZ
    Number of shells: 138
    Number of basis function: 290
    Number of Cartesian functions: 305
    Spherical Harmonics?: true
    Max angular momentum: 2

  ==> Pre-Iterations <==

   -------------------------------------------------------
    Irrep   Nso     Nmo     Nalpha   Nbeta   Ndocc  Nsocc
   -------------------------------------------------------
     A        290     290       0       0       0       0
   -------------------------------------------------------
    Total     290     290      54      54      54       0
   -------------------------------------------------------

  ==> Integral Setup <==

  Using integral reordering PK algorithm.
  Sizing the integral batches needed.
  Building batch lookup table.
   Calculation information:
      Number of atoms:                  31
      Number of AO shells:             138
      Number of primitives:            410
      Number of atomic orbitals:       305
      Number of basis functions:       290

      Integral cutoff                 1.00e-12
      Number of threads:                 1

	Batch   1 pq = [       0,    9405] index = [             0,44231715] size =     44231715
	Batch   2 pq = [    9405,   13301] index = [      44231715,88464951] size =     44233236
	Batch   3 pq = [   13301,   16290] index = [      88464951,132690195] size =     44225244
	Batch   4 pq = [   16290,   18810] index = [     132690195,176917455] size =     44227260
	Batch   5 pq = [   18810,   21030] index = [     176917455,221140965] size =     44223510
	Batch   6 pq = [   21030,   23037] index = [     221140965,265363203] size =     44222238
	Batch   7 pq = [   23037,   24883] index = [     265363203,309594286] size =     44231083
	Batch   8 pq = [   24883,   26601] index = [     309594286,353819901] size =     44225615
	Batch   9 pq = [   26601,   28214] index = [     353819901,398029005] size =     44209104
	Batch  10 pq = [   28214,   29740] index = [     398029005,442248670] size =     44219665
	Batch  11 pq = [   29740,   31191] index = [     442248670,486454836] size =     44206166
	Batch  12 pq = [   31191,   32578] index = [     486454836,530679331] size =     44224495
	Batch  13 pq = [   32578,   33908] index = [     530679331,574893186] size =     44213855
	Batch  14 pq = [   33908,   35188] index = [     574893186,619115266] size =     44222080
	Batch  15 pq = [   35188,   36423] index = [     619115266,663335676] size =     44220410
	Batch  16 pq = [   36423,   37617] index = [     663335676,707538153] size =     44202477
	Batch  17 pq = [   37617,   38775] index = [     707538153,751769700] size =     44231547
	Batch  18 pq = [   38775,   39899] index = [     751769700,795985050] size =     44215350
	Batch  19 pq = [   39899,   40992] index = [     795985050,840192528] size =     44207478
	Batch  20 pq = [   40992,   42057] index = [     840192528,884416653] size =     44224125
	Batch  21 pq = [   42057,   42195] index = [     884416653,890230110] size =      5813457
  Task number: 81
  Buffer size: 11059200
  Buffer per thread: 2
  We computed 44363775 shell quartets total.
  Whereas there are 45998436 unique shell quartets.

  ==> DiskJK: Disk-Based J/K Matrices <==

    J tasked:                  Yes
    K tasked:                  Yes
    wK tasked:                  No
    Memory [MiB]:              375
    Schwarz Cutoff:          1E-12

    OpenMP threads:              1

  Minimum eigenvalue in the overlap matrix is 3.0754716186E-04.
  Using Symmetric Orthogonalization.

  SCF Guess: Superposition of Atomic Densities via on-the-fly atomic UHF.

  ==> Iterations <==

                        Total Energy        Delta E     RMS |[F,P]|

   @RHF iter SAD:  -613.16557414045349   -6.13166e+02   0.00000e+00
   @RHF iter   1:  -614.06028936310804   -8.94715e-01   2.37033e-03 DIIS
   @RHF iter   2:  -614.33508825115598   -2.74799e-01   9.85925e-04 DIIS
   @RHF iter   3:  -614.37669997876117   -4.16117e-02   2.36249e-04 DIIS
   @RHF iter   4:  -614.38032309544224   -3.62312e-03   9.32654e-05 DIIS
   @RHF iter   5:  -614.38075177476685   -4.28679e-04   1.70833e-05 DIIS
   @RHF iter   6:  -614.38077317323655   -2.13985e-05   5.66938e-06 DIIS
   @RHF iter   7:  -614.38077564884497   -2.47561e-06   1.77984e-06 DIIS
   @RHF iter   8:  -614.38077600400925   -3.55164e-07   7.11397e-07 DIIS
   @RHF iter   9:  -614.38077607090008   -6.68908e-08   3.29809e-07 DIIS
   @RHF iter  10:  -614.38077608784636   -1.69463e-08   1.48057e-07 DIIS
   @RHF iter  11:  -614.38077609324205   -5.39569e-09   5.76078e-08 DIIS
   @RHF iter  12:  -614.38077609398374   -7.41693e-10   2.64063e-08 DIIS
   @RHF iter  13:  -614.38077609408833   -1.04592e-10   6.72327e-09 DIIS
   @RHF iter  14:  -614.38077609409470   -6.36646e-12   1.89463e-09 DIIS
   @RHF iter  15:  -614.38077609409663   -1.93268e-12   6.30717e-10 DIIS
   @RHF iter  16:  -614.38077609409413    2.50111e-12   2.48973e-10 DIIS
   @RHF iter  17:  -614.38077609408936    4.77485e-12   1.23640e-10 DIIS
   @RHF iter  18:  -614.38077609409527   -5.91172e-12   5.68652e-11 DIIS
  Energy and wave function converged.

  ==> Post-Iterations <==

    Orbital Energies [Eh]
    ---------------------

    Doubly Occupied:

       1A    -20.576993     2A    -11.292851     3A    -11.244710
       4A    -11.236145     5A    -11.235800     6A    -11.232845
       7A    -11.232411     8A    -11.232373     9A    -11.230988
      10A    -11.230512    11A    -11.230323    12A    -11.227814
      13A    -11.225975    14A    -11.223361    15A    -11.221597
      16A     -1.393486    17A     -1.152426    18A     -1.142072
      19A     -1.047417    20A     -1.030557    21A     -1.010086
      22A     -1.008247    23A     -0.934368    24A     -0.919399
      25A     -0.836949    26A     -0.824886    27A     -0.796552
      28A     -0.794293    29A     -0.723394    30A     -0.692558
      31A     -0.662357    32A     -0.634172    33A     -0.631621
      34A     -0.630776    35A     -0.600018    36A     -0.583070
      37A     -0.580612    38A     -0.577921    39A     -0.577206
      40A     -0.566613    41A     -0.566521    42A     -0.560129
      43A     -0.535524    44A     -0.520851    45A     -0.492799
      46A     -0.487591    47A     -0.484669    48A     -0.480805
      49A     -0.476874    50A     -0.459363    51A     -0.333443
      52A     -0.328786    53A     -0.322962    54A     -0.295056

    Virtual:

      55A      0.130905    56A      0.137103    57A      0.139384
      58A      0.164301    59A      0.177163    60A      0.182977
      61A      0.196544    62A      0.202775    63A      0.212633
      64A      0.229105    65A      0.237888    66A      0.240599
      67A      0.255564    68A      0.266343    69A      0.273557
      70A      0.278184    71A      0.282010    72A      0.283825
      73A      0.308591    74A      0.323517    75A      0.362710
      76A      0.374543    77A      0.380252    78A      0.381694
      79A      0.428372    80A      0.451263    81A      0.456802
      82A      0.464680    83A      0.476746    84A      0.487456
      85A      0.496953    86A      0.501626    87A      0.517932
      88A      0.558441    89A      0.594780    90A      0.622359
      91A      0.628275    92A      0.640397    93A      0.649658
      94A      0.654974    95A      0.673197    96A      0.683083
      97A      0.690924    98A      0.697959    99A      0.703231
     100A      0.709073   101A      0.719317   102A      0.731634
     103A      0.735073   104A      0.739359   105A      0.747982
     106A      0.748787   107A      0.754402   108A      0.758710
     109A      0.772496   110A      0.774942   111A      0.782377
     112A      0.784934   113A      0.799495   114A      0.810108
     115A      0.818086   116A      0.835763   117A      0.846800
     118A      0.853770   119A      0.859116   120A      0.864953
     121A      0.869029   122A      0.879446   123A      0.891114
     124A      0.893805   125A      0.897357   126A      0.901735
     127A      0.907047   128A      0.915081   129A      0.922647
     130A      0.928445   131A      0.936790   132A      0.940828
     133A      0.951094   134A      0.958697   135A      0.963211
     136A      0.982691   137A      0.999782   138A      1.011567
     139A      1.023112   140A      1.057319   141A      1.063546
     142A      1.077103   143A      1.110080   144A      1.135805
     145A      1.141974   146A      1.145392   147A      1.149632
     148A      1.152018   149A      1.166992   150A      1.175509
     151A      1.191264   152A      1.216600   153A      1.229992
     154A      1.244150   155A      1.252769   156A      1.258267
     157A      1.264044   158A      1.268483   159A      1.288039
     160A      1.290944   161A      1.299898   162A      1.303009
     163A      1.312971   164A      1.319878   165A      1.321004
     166A      1.329885   167A      1.353685   168A      1.370687
     169A      1.385416   170A      1.409401   171A      1.421217
     172A      1.495469   173A      1.516564   174A      1.521773
     175A      1.527658   176A      1.532899   177A      1.551792
     178A      1.564988   179A      1.595283   180A      1.623591
     181A      1.633871   182A      1.682724   183A      1.689867
     184A      1.697656   185A      1.701646   186A      1.728405
     187A      1.738787   188A      1.750685   189A      1.755633
     190A      1.767272   191A      1.786129   192A      1.790715
     193A      1.805736   194A      1.809303   195A      1.819773
     196A      1.861155   197A      1.866221   198A      1.878702
     199A      1.894744   200A      1.897534   201A      1.901735
     202A      1.909592   203A      1.911778   204A      1.917711
     205A      1.926879   206A      1.934065   207A      1.943324
     208A      1.950349   209A      1.952999   210A      1.956797
     211A      1.965044   212A      1.969989   213A      1.978398
     214A      1.981322   215A      2.001837   216A      2.019987
     217A      2.024788   218A      2.038895   219A      2.053362
     220A      2.060154   221A      2.066000   222A      2.074252
     223A      2.078882   224A      2.082366   225A      2.117410
     226A      2.140015   227A      2.144848   228A      2.153928
     229A      2.162860   230A      2.168353   231A      2.173876
     232A      2.176646   233A      2.195548   234A      2.210775
     235A      2.235136   236A      2.251233   237A      2.266110
     238A      2.274334   239A      2.280801   240A      2.301654
     241A      2.305792   242A      2.313456   243A      2.315690
     244A      2.329637   245A      2.372572   246A      2.379427
     247A      2.402954   248A      2.456147   249A      2.470438
     250A      2.474300   251A      2.492162   252A      2.505339
     253A      2.512095   254A      2.523278   255A      2.543933
     256A      2.548256   257A      2.612270   258A      2.622571
     259A      2.652041   260A      2.738492   261A      2.753974
     262A      2.761218   263A      2.767765   264A      2.777711
     265A      2.782469   266A      2.798868   267A      2.812532
     268A      2.841884   269A      2.844094   270A      2.863071
     271A      2.868473   272A      2.904124   273A      2.961306
     274A      2.982217   275A      3.002899   276A      3.008506
     277A      3.022836   278A      3.096581   279A      3.128191
     280A      3.149527   281A      3.198056   282A      3.260067
     283A      3.282690   284A      3.292447   285A      3.346459
     286A      3.588300   287A      3.668494   288A      3.953867
     289A      3.981559   290A      4.183331

    Final Occupation by Irrep:
              A
    DOCC [    54 ]

  @RHF Final Energy:  -614.38077609409527

   => Energetics <=

    Nuclear Repulsion Energy =            889.4388684858488432
    One-Electron Energy =               -2598.4970406893539803
    Two-Electron Energy =                1094.6773961094099832
    Total Energy =                       -614.3807760940951539

Computation Completed

Properties will be evaluated at   0.000000,   0.000000,   0.000000 [a0]

Properties computed using the SCF density matrix

  Nuclear Dipole Moment: [e a0]
     X:     6.9367      Y:    -4.4977      Z:    -1.5462

  Electronic Dipole Moment: [e a0]
     X:    -6.9845      Y:     4.4513      Z:     1.1786

  Dipole Moment: [e a0]
     X:    -0.0477      Y:    -0.0464      Z:    -0.3676     Total:     0.3736

  Dipole Moment: [D]
     X:    -0.1213      Y:    -0.1179      Z:    -0.9345     Total:     0.9496

*** tstop() called on ds3 at Mon Apr 27 18:00:53 2020
Module time:
	user time   =     381.31 seconds =       6.36 minutes
	system time =     140.34 seconds =       2.34 minutes
	total time  =        629 seconds =      10.48 minutes
Total time:
	user time   =     381.31 seconds =       6.36 minutes
	system time =     140.34 seconds =       2.34 minutes
	total time  =        629 seconds =      10.48 minutes
                                     G D M A

                                 by Anthony Stone

                           version 2.2.06, 22 June 2011

               Distributed Multipoles from Gaussian wavefunctions

Starting at 18:0:53 on 27 Apr 2020

Using SCF density matrix from file ./SSI/SSI-073PHE-077TYR-1-dimer.test.12698.fchk

                         Distributed Multipole Analysis

Standard DMA

Positions and radii in angstrom
Multipole moments in atomic units, ea_0^k for rank k

C          x =  2.565478  y = -1.842997  z =  2.589341 angstrom
           Maximum rank =  0   Radius =  0.650 angstrom
                   Q00  =  -0.208629

C          x =  1.136478  y =  1.619003  z =  1.843341 angstrom
           Maximum rank =  0   Radius =  0.650 angstrom
                   Q00  =  -0.071990

C          x =  2.017478  y =  2.108003  z =  0.884341 angstrom
           Maximum rank =  0   Radius =  0.650 angstrom
                   Q00  =  -0.083910

C          x =  1.300478  y =  0.336003  z =  2.373341 angstrom
           Maximum rank =  0   Radius =  0.650 angstrom
                   Q00  =  -0.078691

C          x =  2.348478  y = -0.500997  z =  1.956341 angstrom
           Maximum rank =  0   Radius =  0.650 angstrom
                   Q00  =  -0.096151

C          x =  3.040478  y =  1.276003  z =  0.465341 angstrom
           Maximum rank =  0   Radius =  0.650 angstrom
                   Q00  =   0.026360

C          x =  3.208478  y = -0.018997  z =  0.966341 angstrom
           Maximum rank =  0   Radius =  0.650 angstrom
                   Q00  =  -0.104627

H          x =  0.345478  y =  2.252003  z =  2.210341 angstrom
           Maximum rank =  0   Radius =  0.325 angstrom
                   Q00  =   0.068991

H          x =  1.914478  y =  3.109003  z =  0.497341 angstrom
           Maximum rank =  0   Radius =  0.325 angstrom
                   Q00  =   0.066707

H          x =  0.620478  y = -0.005997  z =  3.141341 angstrom
           Maximum rank =  0   Radius =  0.325 angstrom
                   Q00  =   0.059212

H          x =  3.754478  y =  1.650003  z = -0.252659 angstrom
           Maximum rank =  0   Radius =  0.325 angstrom
                   Q00  =   0.061431

H          x =  2.149478  y = -1.810997  z =  3.597341 angstrom
           Maximum rank =  0   Radius =  0.325 angstrom
                   Q00  =   0.098438

H          x =  3.639478  y = -1.983997  z =  2.694341 angstrom
           Maximum rank =  0   Radius =  0.325 angstrom
                   Q00  =   0.099254

H          x =  4.044478  y = -0.615997  z =  0.630341 angstrom
           Maximum rank =  0   Radius =  0.325 angstrom
                   Q00  =   0.058350

H          x =  2.126085  y = -2.710201  z =  2.074661 angstrom
           Maximum rank =  0   Radius =  0.325 angstrom
                   Q00  =   0.107682

C          x =  0.071478  y = -1.241997  z = -3.336659 angstrom
           Maximum rank =  0   Radius =  0.650 angstrom
                   Q00  =  -0.195689

C          x = -1.518522  y = -0.155997  z = -0.032659 angstrom
           Maximum rank =  0   Radius =  0.650 angstrom
                   Q00  =  -0.105981

C          x = -2.820522  y =  0.110003  z = -0.439659 angstrom
           Maximum rank =  0   Radius =  0.650 angstrom
                   Q00  =   0.278139

C          x = -0.570522  y = -0.589997  z = -0.966659 angstrom
           Maximum rank =  0   Radius =  0.650 angstrom
                   Q00  =  -0.031578

C          x = -0.925522  y = -0.781997  z = -2.302659 angstrom
           Maximum rank =  0   Radius =  0.650 angstrom
                   Q00  =  -0.149638

C          x = -3.198522  y = -0.072997  z = -1.768659 angstrom
           Maximum rank =  0   Radius =  0.650 angstrom
                   Q00  =  -0.195020

C          x = -2.240522  y = -0.516997  z = -2.683659 angstrom
           Maximum rank =  0   Radius =  0.650 angstrom
                   Q00  =   0.067354

O          x = -3.779522  y =  0.508003  z =  0.443341 angstrom
           Maximum rank =  0   Radius =  0.650 angstrom
                   Q00  =  -0.648130

H          x = -1.223522  y = -0.035997  z =  0.995341 angstrom
           Maximum rank =  0   Radius =  0.325 angstrom
                   Q00  =   0.076371

H          x =  0.447478  y = -0.770997  z = -0.646659 angstrom
           Maximum rank =  0   Radius =  0.325 angstrom
                   Q00  =   0.074659

H          x = -4.211522  y =  0.124003  z = -2.091659 angstrom
           Maximum rank =  0   Radius =  0.325 angstrom
                   Q00  =   0.068664

H          x = -4.619522  y =  0.677003  z = -0.005659 angstrom
           Maximum rank =  0   Radius =  0.325 angstrom
                   Q00  =   0.406158

H          x =  1.070478  y = -1.264997  z = -2.900659 angstrom
           Maximum rank =  0   Radius =  0.325 angstrom
                   Q00  =   0.098702

H          x =  0.071478  y = -0.516997  z = -4.151659 angstrom
           Maximum rank =  0   Radius =  0.325 angstrom
                   Q00  =   0.094978

H          x = -2.530522  y = -0.656997  z = -3.716659 angstrom
           Maximum rank =  0   Radius =  0.325 angstrom
                   Q00  =   0.062136

H          x = -0.179964  y = -2.239169  z = -3.727079 angstrom
           Maximum rank =  0   Radius =  0.325 angstrom
                   Q00  =   0.096448

Total multipoles referred to origin at
           x =   0.000000,  y =    0.000000,  z =    0.000000 angstrom
                   Q00  =  -0.000000

Finished at 18:0:53 on 27 Apr 2020

  DMA results are available in the Python driver through the
	  variable('DMA DISTRIBUTED MULTIPOLES')
  and
	  variable('DMA TOTAL MULTIPOLES')
  commands.

    Psi4 stopped on: Monday, 27 April 2020 06:00PM
    Psi4 wall time for execution: 0:10:29.15

*** Psi4 exiting successfully. Buy a developer a beer!
