                               Psi4 1.3.2 release

  ==> Input File <==

--------------------------------------------------------------------------
import numpy as np
set {scf_type pk
basis cc-pvdz
d_convergence 10
gdma_switch   0
gdma_limit    0
gdma_origin   [ 0.0,  0.0,  0.0 ]
}
molecule test {
    units Angstrom
    0 1
    --
    0 1
    C               -0.878181103842459     1.412993895913991     2.228080504032931
    C               -2.094181103842458     0.670993895913991     2.747080504032930
    C               -1.246181103842458     2.327993895913992     1.076080504032930
    O               -2.099181103842458     2.005993895913991     0.248080504032930
    N               -0.592181103842458     3.473993895913991     0.995080504032930
    H               -0.452181103842458     2.003993895913991     3.040080504032930
    H               -0.106181103842458     0.726993895913991     1.901080504032930
    H               -2.835181103842459     0.509993895913991     1.982080504032930
    H               -2.645181103842459     1.440993895913991     3.290080504032931
    H               -0.785181103842458     4.069993895913991     0.203080504032930
    H                0.108818896157542     3.758993895913991     1.673080504032930
    H               -1.890380103842458    -0.119266104086009     3.484610504032930
    C                1.217818896157542    -3.470006104086008     0.385080504032930
    C                0.439818896157542    -0.057006104086009    -1.081919495967070
    C                0.499818896157542    -1.115006104086009    -0.183919495967070
    C                1.007818896157542    -0.176006104086009    -2.340919495967070
    C                1.149818896157542    -2.293006104086008    -0.536919495967070
    C                1.653818896157542    -1.349006104086009    -2.696919495967070
    C                1.706818896157542    -2.405006104086009    -1.802919495967070
    H               -0.048181103842458     0.865993895913991    -0.813919495967070
    H                0.090818896157542    -1.017006104086009     0.803080504032930
    H                0.956818896157542     0.646993895913991    -3.040919495967070
    H                2.102818896157542    -1.445006104086009    -3.675919495967070
    H                2.010818896157542    -4.132006104086009     0.033080504032930
    H                0.276818896157542    -4.017006104086009     0.299080504032930
    H                2.193818896157542    -3.320006104086009    -2.106919495967070
    H                1.401076896157542    -3.243629104086009     1.445820504032930

}
e, wfn = energy('scf', return_wfn=True)
gdma(wfn)
dmavals = variable('DMA DISTRIBUTED MULTIPOLES')
charges = np.array(dmavals)
print(charges)
np.save('SSI-062GLN-112PHE-1-dimer.npy', np.array(charges))--------------------------------------------------------------------------

*** tstart() called on ds3
*** at Tue Apr 28 14:01:49 2020

   => Loading Basis Set <=

    Name: CC-PVDZ
    Role: ORBITAL
    Keyword: BASIS
    atoms 1-3, 13-19  entry C          line   138 file /theoryfs2/ds/metcalf/miniconda2/envs/tf2gpu/share/psi4/basis/cc-pvdz.gbs
    atoms 4           entry O          line   198 file /theoryfs2/ds/metcalf/miniconda2/envs/tf2gpu/share/psi4/basis/cc-pvdz.gbs
    atoms 5           entry N          line   168 file /theoryfs2/ds/metcalf/miniconda2/envs/tf2gpu/share/psi4/basis/cc-pvdz.gbs
    atoms 6-12, 20-27 entry H          line    22 file /theoryfs2/ds/metcalf/miniconda2/envs/tf2gpu/share/psi4/basis/cc-pvdz.gbs

         ---------------------------------------------------------
                                   SCF
               by Justin Turney, Rob Parrish, Andy Simmonett
                          and Daniel G. A. Smith
                              RHF Reference
                        1 Threads,    500 MiB Core
         ---------------------------------------------------------

  ==> Geometry <==

    Molecular point group: c1
    Full point group: C1

    Geometry (in Angstrom), charge = 0, multiplicity = 1:

       Center              X                  Y                   Z               Mass
    ------------   -----------------  -----------------  -----------------  -----------------
         C           -0.878181103842     1.412993895914     2.228080504033    12.000000000000
         C           -2.094181103842     0.670993895914     2.747080504033    12.000000000000
         C           -1.246181103842     2.327993895914     1.076080504033    12.000000000000
         O           -2.099181103842     2.005993895914     0.248080504033    15.994914619570
         N           -0.592181103842     3.473993895914     0.995080504033    14.003074004430
         H           -0.452181103842     2.003993895914     3.040080504033     1.007825032230
         H           -0.106181103842     0.726993895914     1.901080504033     1.007825032230
         H           -2.835181103842     0.509993895914     1.982080504033     1.007825032230
         H           -2.645181103842     1.440993895914     3.290080504033     1.007825032230
         H           -0.785181103842     4.069993895914     0.203080504033     1.007825032230
         H            0.108818896158     3.758993895914     1.673080504033     1.007825032230
         H           -1.890380103842    -0.119266104086     3.484610504033     1.007825032230
         C            1.217818896158    -3.470006104086     0.385080504033    12.000000000000
         C            0.439818896158    -0.057006104086    -1.081919495967    12.000000000000
         C            0.499818896158    -1.115006104086    -0.183919495967    12.000000000000
         C            1.007818896158    -0.176006104086    -2.340919495967    12.000000000000
         C            1.149818896158    -2.293006104086    -0.536919495967    12.000000000000
         C            1.653818896158    -1.349006104086    -2.696919495967    12.000000000000
         C            1.706818896158    -2.405006104086    -1.802919495967    12.000000000000
         H           -0.048181103842     0.865993895914    -0.813919495967     1.007825032230
         H            0.090818896158    -1.017006104086     0.803080504033     1.007825032230
         H            0.956818896158     0.646993895914    -3.040919495967     1.007825032230
         H            2.102818896158    -1.445006104086    -3.675919495967     1.007825032230
         H            2.010818896158    -4.132006104086     0.033080504033     1.007825032230
         H            0.276818896158    -4.017006104086     0.299080504033     1.007825032230
         H            2.193818896158    -3.320006104086    -2.106919495967     1.007825032230
         H            1.401076896158    -3.243629104086     1.445820504033     1.007825032230

  Running in c1 symmetry.

  Rotational constants: A =      0.04723  B =      0.01395  C =      0.01152 [cm^-1]
  Rotational constants: A =   1415.89838  B =    418.19203  C =    345.25028 [MHz]
  Nuclear repulsion =  652.339635254224390

  Charge       = 0
  Multiplicity = 1
  Electrons    = 90
  Nalpha       = 45
  Nbeta        = 45

  ==> Algorithm <==

  SCF Algorithm Type is PK.
  DIIS enabled.
  MOM disabled.
  Fractional occupation disabled.
  Guess Type is SAD.
  Energy threshold   = 1.00e-06
  Density threshold  = 1.00e-10
  Integral threshold = 0.00e+00

  ==> Primary Basis <==

  Basis Set: CC-PVDZ
    Blend: CC-PVDZ
    Number of shells: 117
    Number of basis function: 243
    Number of Cartesian functions: 255
    Spherical Harmonics?: true
    Max angular momentum: 2

  ==> Pre-Iterations <==

   -------------------------------------------------------
    Irrep   Nso     Nmo     Nalpha   Nbeta   Ndocc  Nsocc
   -------------------------------------------------------
     A        243     243       0       0       0       0
   -------------------------------------------------------
    Total     243     243      45      45      45       0
   -------------------------------------------------------

  ==> Integral Setup <==

  Using integral reordering PK algorithm.
  Sizing the integral batches needed.
  Building batch lookup table.
   Calculation information:
      Number of atoms:                  27
      Number of AO shells:             117
      Number of primitives:            339
      Number of atomic orbitals:       255
      Number of basis functions:       243

      Integral cutoff                 1.00e-12
      Number of threads:                 1

	Batch   1 pq = [       0,    9405] index = [             0,44231715] size =     44231715
	Batch   2 pq = [    9405,   13301] index = [      44231715,88464951] size =     44233236
	Batch   3 pq = [   13301,   16290] index = [      88464951,132690195] size =     44225244
	Batch   4 pq = [   16290,   18810] index = [     132690195,176917455] size =     44227260
	Batch   5 pq = [   18810,   21030] index = [     176917455,221140965] size =     44223510
	Batch   6 pq = [   21030,   23037] index = [     221140965,265363203] size =     44222238
	Batch   7 pq = [   23037,   24883] index = [     265363203,309594286] size =     44231083
	Batch   8 pq = [   24883,   26601] index = [     309594286,353819901] size =     44225615
	Batch   9 pq = [   26601,   28214] index = [     353819901,398029005] size =     44209104
	Batch  10 pq = [   28214,   29646] index = [     398029005,439457481] size =     41428476
  Task number: 40
  Buffer size: 11059200
  Buffer per thread: 2
  We computed 21362113 shell quartets total.
  Whereas there are 23829156 unique shell quartets.

  ==> DiskJK: Disk-Based J/K Matrices <==

    J tasked:                  Yes
    K tasked:                  Yes
    wK tasked:                  No
    Memory [MiB]:              375
    Schwarz Cutoff:          1E-12

    OpenMP threads:              1

  Minimum eigenvalue in the overlap matrix is 2.8669755756E-04.
  Using Symmetric Orthogonalization.

  SCF Guess: Superposition of Atomic Densities via on-the-fly atomic UHF.

  ==> Iterations <==

                        Total Energy        Delta E     RMS |[F,P]|

   @RHF iter SAD:  -515.62572705705395   -5.15626e+02   0.00000e+00
   @RHF iter   1:  -516.45305607240152   -8.27329e-01   3.01616e-03 DIIS
   @RHF iter   2:  -516.71172844293051   -2.58672e-01   1.58475e-03 DIIS
   @RHF iter   3:  -516.77251012236468   -6.07817e-02   3.74121e-04 DIIS
   @RHF iter   4:  -516.77723053809711   -4.72042e-03   1.50941e-04 DIIS
   @RHF iter   5:  -516.77799774811751   -7.67210e-04   2.14556e-05 DIIS
   @RHF iter   6:  -516.77803182017260   -3.40721e-05   9.10049e-06 DIIS
   @RHF iter   7:  -516.77803720026156   -5.38009e-06   3.53435e-06 DIIS
   @RHF iter   8:  -516.77803828488152   -1.08462e-06   1.36671e-06 DIIS
   @RHF iter   9:  -516.77803844900200   -1.64120e-07   4.33823e-07 DIIS
   @RHF iter  10:  -516.77803846089409   -1.18921e-08   1.63270e-07 DIIS
   @RHF iter  11:  -516.77803846277209   -1.87799e-09   5.20607e-08 DIIS
   @RHF iter  12:  -516.77803846294785   -1.75760e-10   1.90602e-08 DIIS
   @RHF iter  13:  -516.77803846298877   -4.09273e-11   7.87625e-09 DIIS
   @RHF iter  14:  -516.77803846299116   -2.38742e-12   3.59356e-09 DIIS
   @RHF iter  15:  -516.77803846299025    9.09495e-13   1.39752e-09 DIIS
   @RHF iter  16:  -516.77803846299571   -5.45697e-12   4.29530e-10 DIIS
   @RHF iter  17:  -516.77803846299571    0.00000e+00   1.62397e-10 DIIS
   @RHF iter  18:  -516.77803846299685   -1.13687e-12   6.46811e-11 DIIS
  Energy and wave function converged.

  ==> Post-Iterations <==

    Orbital Energies [Eh]
    ---------------------

    Doubly Occupied:

       1A    -20.509504     2A    -15.594598     3A    -11.350069
       4A    -11.242261     5A    -11.233869     6A    -11.227639
       7A    -11.225315     8A    -11.225067     9A    -11.222374
      10A    -11.221878    11A    -11.221689    12A    -11.220515
      13A     -1.373347    14A     -1.221084    15A     -1.150029
      16A     -1.054866    17A     -1.041316    18A     -1.007311
      19A     -0.927092    20A     -0.893024    21A     -0.820346
      22A     -0.793617    23A     -0.789330    24A     -0.727190
      25A     -0.687737    26A     -0.672401    27A     -0.630752
      28A     -0.626568    29A     -0.625272    30A     -0.595248
      31A     -0.575305    32A     -0.572955    33A     -0.561198
      34A     -0.555027    35A     -0.530984    36A     -0.529859
      37A     -0.516457    38A     -0.482410    39A     -0.479944
      40A     -0.476563    41A     -0.470855    42A     -0.414663
      43A     -0.408575    44A     -0.326797    45A     -0.316114

    Virtual:

      46A      0.141840    47A      0.148595    48A      0.162017
      49A      0.179376    50A      0.197354    51A      0.204474
      52A      0.211086    53A      0.226919    54A      0.238846
      55A      0.250331    56A      0.259587    57A      0.262170
      58A      0.269010    59A      0.272980    60A      0.294751
      61A      0.298186    62A      0.318215    63A      0.337204
      64A      0.373794    65A      0.382881    66A      0.401031
      67A      0.412664    68A      0.455652    69A      0.467742
      70A      0.488217    71A      0.496394    72A      0.521093
      73A      0.564571    74A      0.582560    75A      0.595146
      76A      0.612638    77A      0.632813    78A      0.655849
      79A      0.671044    80A      0.682425    81A      0.695203
      82A      0.700662    83A      0.704057    84A      0.726670
      85A      0.732428    86A      0.735241    87A      0.747419
      88A      0.750650    89A      0.753176    90A      0.765071
      91A      0.778230    92A      0.792814    93A      0.809584
      94A      0.812501    95A      0.831886    96A      0.850421
      97A      0.859618    98A      0.867274    99A      0.876743
     100A      0.880542   101A      0.886625   102A      0.894150
     103A      0.898163   104A      0.905825   105A      0.910562
     106A      0.917687   107A      0.931388   108A      0.941442
     109A      0.951587   110A      0.954987   111A      0.968699
     112A      0.977479   113A      0.991912   114A      1.017747
     115A      1.024707   116A      1.047107   117A      1.052968
     118A      1.059552   119A      1.079864   120A      1.113517
     121A      1.131060   122A      1.143782   123A      1.165832
     124A      1.176370   125A      1.185240   126A      1.216274
     127A      1.253552   128A      1.260423   129A      1.260930
     130A      1.281331   131A      1.284842   132A      1.311436
     133A      1.321721   134A      1.326400   135A      1.336191
     136A      1.343309   137A      1.384645   138A      1.401619
     139A      1.415970   140A      1.423728   141A      1.467903
     142A      1.477882   143A      1.507878   144A      1.529323
     145A      1.544026   146A      1.572992   147A      1.578401
     148A      1.627509   149A      1.671054   150A      1.674237
     151A      1.684131   152A      1.703563   153A      1.715910
     154A      1.749167   155A      1.754403   156A      1.769286
     157A      1.784333   158A      1.796162   159A      1.819556
     160A      1.827888   161A      1.831570   162A      1.870178
     163A      1.878743   164A      1.889085   165A      1.900514
     166A      1.911222   167A      1.920119   168A      1.922081
     169A      1.929115   170A      1.938576   171A      1.949614
     172A      1.952094   173A      1.964675   174A      1.971641
     175A      1.979150   176A      1.988180   177A      1.995858
     178A      2.014004   179A      2.025442   180A      2.037878
     181A      2.055461   182A      2.065421   183A      2.074945
     184A      2.088229   185A      2.092666   186A      2.110387
     187A      2.127568   188A      2.149008   189A      2.176655
     190A      2.187082   191A      2.199751   192A      2.201479
     193A      2.217854   194A      2.252636   195A      2.269551
     196A      2.276221   197A      2.287364   198A      2.304313
     199A      2.322721   200A      2.334938   201A      2.341152
     202A      2.360434   203A      2.370308   204A      2.463850
     205A      2.475419   206A      2.497622   207A      2.499835
     208A      2.501924   209A      2.540048   210A      2.553973
     211A      2.556613   212A      2.574284   213A      2.611760
     214A      2.633838   215A      2.645316   216A      2.744577
     217A      2.758430   218A      2.774420   219A      2.779314
     220A      2.795529   221A      2.807178   222A      2.852826
     223A      2.855378   224A      2.861360   225A      2.881641
     226A      2.903281   227A      2.940735   228A      2.992445
     229A      3.011760   230A      3.017354   231A      3.038299
     232A      3.044334   233A      3.103978   234A      3.154729
     235A      3.185205   236A      3.225822   237A      3.272163
     238A      3.335433   239A      3.508855   240A      3.519669
     241A      3.873281   242A      3.908423   243A      3.998777

    Final Occupation by Irrep:
              A
    DOCC [    45 ]

  @RHF Final Energy:  -516.77803846299685

   => Energetics <=

    Nuclear Repulsion Energy =            652.3396352542243903
    One-Electron Energy =               -1995.5373181568754717
    Two-Electron Energy =                 826.4196444396543484
    Total Energy =                       -516.7780384629968466

Computation Completed

Properties will be evaluated at   0.000000,   0.000000,   0.000000 [a0]

Properties computed using the SCF density matrix

  Nuclear Dipole Moment: [e a0]
     X:     0.3473      Y:    -3.0660      Z:     7.9832

  Electronic Dipole Moment: [e a0]
     X:     0.7199      Y:     3.8044      Z:    -7.0067

  Dipole Moment: [e a0]
     X:     1.0671      Y:     0.7384      Z:     0.9764     Total:     1.6240

  Dipole Moment: [D]
     X:     2.7124      Y:     1.8769      Z:     2.4819     Total:     4.1279

*** tstop() called on ds3 at Tue Apr 28 14:06:56 2020
Module time:
	user time   =     164.77 seconds =       2.75 minutes
	system time =      65.81 seconds =       1.10 minutes
	total time  =        307 seconds =       5.12 minutes
Total time:
	user time   =     164.77 seconds =       2.75 minutes
	system time =      65.81 seconds =       1.10 minutes
	total time  =        307 seconds =       5.12 minutes
                                     G D M A

                                 by Anthony Stone

                           version 2.2.06, 22 June 2011

               Distributed Multipoles from Gaussian wavefunctions

Starting at 14:6:56 on 28 Apr 2020

Using SCF density matrix from file ./SSI/SSI-062GLN-112PHE-1-dimer.test.18266.fchk

                         Distributed Multipole Analysis

Standard DMA

Positions and radii in angstrom
Multipole moments in atomic units, ea_0^k for rank k

C          x = -0.878181  y =  1.412994  z =  2.228081 angstrom
           Maximum rank =  0   Radius =  0.650 angstrom
                   Q00  =  -0.153425

C          x = -2.094181  y =  0.670994  z =  2.747081 angstrom
           Maximum rank =  0   Radius =  0.650 angstrom
                   Q00  =  -0.204917

C          x = -1.246181  y =  2.327994  z =  1.076081 angstrom
           Maximum rank =  0   Radius =  0.650 angstrom
                   Q00  =   0.835475

O          x = -2.099181  y =  2.005994  z =  0.248081 angstrom
           Maximum rank =  0   Radius =  0.650 angstrom
                   Q00  =  -0.803232

N          x = -0.592181  y =  3.473994  z =  0.995081 angstrom
           Maximum rank =  0   Radius =  0.650 angstrom
                   Q00  =  -0.529841

H          x = -0.452181  y =  2.003994  z =  3.040081 angstrom
           Maximum rank =  0   Radius =  0.325 angstrom
                   Q00  =   0.055629

H          x = -0.106181  y =  0.726994  z =  1.901081 angstrom
           Maximum rank =  0   Radius =  0.325 angstrom
                   Q00  =   0.107774

H          x = -2.835181  y =  0.509994  z =  1.982081 angstrom
           Maximum rank =  0   Radius =  0.325 angstrom
                   Q00  =   0.114356

H          x = -2.645181  y =  1.440994  z =  3.290081 angstrom
           Maximum rank =  0   Radius =  0.325 angstrom
                   Q00  =   0.069189

H          x = -0.785181  y =  4.069994  z =  0.203081 angstrom
           Maximum rank =  0   Radius =  0.325 angstrom
                   Q00  =   0.215076

H          x =  0.108819  y =  3.758994  z =  1.673081 angstrom
           Maximum rank =  0   Radius =  0.325 angstrom
                   Q00  =   0.214137

H          x = -1.890380  y = -0.119266  z =  3.484611 angstrom
           Maximum rank =  0   Radius =  0.325 angstrom
                   Q00  =   0.082762

C          x =  1.217819  y = -3.470006  z =  0.385081 angstrom
           Maximum rank =  0   Radius =  0.650 angstrom
                   Q00  =  -0.210955

C          x =  0.439819  y = -0.057006  z = -1.081919 angstrom
           Maximum rank =  0   Radius =  0.650 angstrom
                   Q00  =  -0.053525

C          x =  0.499819  y = -1.115006  z = -0.183919 angstrom
           Maximum rank =  0   Radius =  0.650 angstrom
                   Q00  =  -0.093464

C          x =  1.007819  y = -0.176006  z = -2.340919 angstrom
           Maximum rank =  0   Radius =  0.650 angstrom
                   Q00  =  -0.085300

C          x =  1.149819  y = -2.293006  z = -0.536919 angstrom
           Maximum rank =  0   Radius =  0.650 angstrom
                   Q00  =  -0.082732

C          x =  1.653819  y = -1.349006  z = -2.696919 angstrom
           Maximum rank =  0   Radius =  0.650 angstrom
                   Q00  =  -0.066622

C          x =  1.706819  y = -2.405006  z = -1.802919 angstrom
           Maximum rank =  0   Radius =  0.650 angstrom
                   Q00  =   0.002063

H          x = -0.048181  y =  0.865994  z = -0.813919 angstrom
           Maximum rank =  0   Radius =  0.325 angstrom
                   Q00  =   0.076224

H          x =  0.090819  y = -1.017006  z =  0.803081 angstrom
           Maximum rank =  0   Radius =  0.325 angstrom
                   Q00  =   0.044692

H          x =  0.956819  y =  0.646994  z = -3.040919 angstrom
           Maximum rank =  0   Radius =  0.325 angstrom
                   Q00  =   0.055908

H          x =  2.102819  y = -1.445006  z = -3.675920 angstrom
           Maximum rank =  0   Radius =  0.325 angstrom
                   Q00  =   0.061558

H          x =  2.010819  y = -4.132006  z =  0.033081 angstrom
           Maximum rank =  0   Radius =  0.325 angstrom
                   Q00  =   0.093958

H          x =  0.276819  y = -4.017006  z =  0.299081 angstrom
           Maximum rank =  0   Radius =  0.325 angstrom
                   Q00  =   0.104500

H          x =  2.193819  y = -3.320006  z = -2.106919 angstrom
           Maximum rank =  0   Radius =  0.325 angstrom
                   Q00  =   0.052619

H          x =  1.401077  y = -3.243629  z =  1.445821 angstrom
           Maximum rank =  0   Radius =  0.325 angstrom
                   Q00  =   0.098092

Total multipoles referred to origin at
           x =   0.000000,  y =    0.000000,  z =    0.000000 angstrom
                   Q00  =  -0.000000

Finished at 14:6:56 on 28 Apr 2020

  DMA results are available in the Python driver through the
	  variable('DMA DISTRIBUTED MULTIPOLES')
  and
	  variable('DMA TOTAL MULTIPOLES')
  commands.

    Psi4 stopped on: Tuesday, 28 April 2020 02:06PM
    Psi4 wall time for execution: 0:05:06.89

*** Psi4 exiting successfully. Buy a developer a beer!
