                               Psi4 1.3.2 release

  ==> Input File <==

--------------------------------------------------------------------------
import numpy as np
set {scf_type pk
basis cc-pvdz
d_convergence 10
gdma_switch   0
gdma_limit    0
gdma_origin   [ 0.0,  0.0,  0.0 ]
}
molecule test {
    units Angstrom
    0 1
    --
    0 1
    C                3.810603286671546     3.581894536214664    -0.409609283581775
    C                2.903603286671546     2.362894536214664    -0.371609283581775
    O                3.285603286671546     1.308894536214664     0.139390716418225
    N                1.707603286671545     2.490894536214664    -0.918609283581775
    H                1.071603286671546     1.702894536214664    -0.898609283581775
    H                1.441603286671546     3.358894536214664    -1.357609283581775
    H                3.463603286671546     4.301894536214665     0.332390716418225
    H                3.725603286671546     4.049894536214665    -1.391609283581775
    H                4.865503286671546     3.325184536214664    -0.232714283581775
    C               -2.359396713328454    -3.808105463785336     1.591390716418225
    C               -1.230396713328455    -0.169105463785336    -0.423609283581775
    C               -2.151396713328455    -1.043105463785336    -0.995609283581775
    C               -0.699396713328455    -0.470105463785336     0.821390716418225
    C               -2.496396713328454    -2.218105463785336    -0.338609283581775
    C               -1.026396713328455    -1.661105463785336     1.471390716418225
    C               -1.919396713328454    -2.556105463785336     0.880390716418225
    O               -0.865396713328454     0.988894536214664    -1.055609283581775
    H               -1.305396713328455     1.078894536214664    -1.909609283581775
    H               -2.596396713328454    -0.811105463785336    -1.952609283581775
    H               -0.061396713328454     0.251894536214664     1.284390716418225
    H               -3.213396713328454    -2.885105463785335    -0.793609283581775
    H               -0.601396713328454    -1.881105463785335     2.442390716418225
    H               -1.715396713328454    -3.998105463785336     2.452390716418225
    H               -2.267396713328454    -4.650105463785335     0.904390716418225
    H               -3.402329713328454    -3.706828463785336     1.926106016418225

}
e, wfn = energy('scf', return_wfn=True)
gdma(wfn)
dmavals = variable('DMA DISTRIBUTED MULTIPOLES')
charges = np.array(dmavals)
print(charges)
np.save('SSI-010ASN-088TYR-1-dimer.npy', np.array(charges))--------------------------------------------------------------------------

*** tstart() called on ds3
*** at Tue Apr 28 16:51:31 2020

   => Loading Basis Set <=

    Name: CC-PVDZ
    Role: ORBITAL
    Keyword: BASIS
    atoms 1-2, 10-16 entry C          line   138 file /theoryfs2/ds/metcalf/miniconda2/envs/tf2gpu/share/psi4/basis/cc-pvdz.gbs
    atoms 3, 17      entry O          line   198 file /theoryfs2/ds/metcalf/miniconda2/envs/tf2gpu/share/psi4/basis/cc-pvdz.gbs
    atoms 4          entry N          line   168 file /theoryfs2/ds/metcalf/miniconda2/envs/tf2gpu/share/psi4/basis/cc-pvdz.gbs
    atoms 5-9, 18-25 entry H          line    22 file /theoryfs2/ds/metcalf/miniconda2/envs/tf2gpu/share/psi4/basis/cc-pvdz.gbs

         ---------------------------------------------------------
                                   SCF
               by Justin Turney, Rob Parrish, Andy Simmonett
                          and Daniel G. A. Smith
                              RHF Reference
                        1 Threads,    500 MiB Core
         ---------------------------------------------------------

  ==> Geometry <==

    Molecular point group: c1
    Full point group: C1

    Geometry (in Angstrom), charge = 0, multiplicity = 1:

       Center              X                  Y                   Z               Mass
    ------------   -----------------  -----------------  -----------------  -----------------
         C            3.810603286672     3.581894536215    -0.409609283582    12.000000000000
         C            2.903603286672     2.362894536215    -0.371609283582    12.000000000000
         O            3.285603286672     1.308894536215     0.139390716418    15.994914619570
         N            1.707603286672     2.490894536215    -0.918609283582    14.003074004430
         H            1.071603286672     1.702894536215    -0.898609283582     1.007825032230
         H            1.441603286672     3.358894536215    -1.357609283582     1.007825032230
         H            3.463603286672     4.301894536215     0.332390716418     1.007825032230
         H            3.725603286672     4.049894536215    -1.391609283582     1.007825032230
         H            4.865503286672     3.325184536215    -0.232714283582     1.007825032230
         C           -2.359396713328    -3.808105463785     1.591390716418    12.000000000000
         C           -1.230396713328    -0.169105463785    -0.423609283582    12.000000000000
         C           -2.151396713328    -1.043105463785    -0.995609283582    12.000000000000
         C           -0.699396713328    -0.470105463785     0.821390716418    12.000000000000
         C           -2.496396713328    -2.218105463785    -0.338609283582    12.000000000000
         C           -1.026396713328    -1.661105463785     1.471390716418    12.000000000000
         C           -1.919396713328    -2.556105463785     0.880390716418    12.000000000000
         O           -0.865396713328     0.988894536215    -1.055609283582    15.994914619570
         H           -1.305396713328     1.078894536215    -1.909609283582     1.007825032230
         H           -2.596396713328    -0.811105463785    -1.952609283582     1.007825032230
         H           -0.061396713328     0.251894536215     1.284390716418     1.007825032230
         H           -3.213396713328    -2.885105463785    -0.793609283582     1.007825032230
         H           -0.601396713328    -1.881105463785     2.442390716418     1.007825032230
         H           -1.715396713328    -3.998105463785     2.452390716418     1.007825032230
         H           -2.267396713328    -4.650105463785     0.904390716418     1.007825032230
         H           -3.402329713328    -3.706828463785     1.926106016418     1.007825032230

  Running in c1 symmetry.

  Rotational constants: A =      0.07236  B =      0.01019  C =      0.00917 [cm^-1]
  Rotational constants: A =   2169.17506  B =    305.46012  C =    274.88430 [MHz]
  Nuclear repulsion =  637.140576918912416

  Charge       = 0
  Multiplicity = 1
  Electrons    = 90
  Nalpha       = 45
  Nbeta        = 45

  ==> Algorithm <==

  SCF Algorithm Type is PK.
  DIIS enabled.
  MOM disabled.
  Fractional occupation disabled.
  Guess Type is SAD.
  Energy threshold   = 1.00e-06
  Density threshold  = 1.00e-10
  Integral threshold = 0.00e+00

  ==> Primary Basis <==

  Basis Set: CC-PVDZ
    Blend: CC-PVDZ
    Number of shells: 111
    Number of basis function: 233
    Number of Cartesian functions: 245
    Spherical Harmonics?: true
    Max angular momentum: 2

  ==> Pre-Iterations <==

   -------------------------------------------------------
    Irrep   Nso     Nmo     Nalpha   Nbeta   Ndocc  Nsocc
   -------------------------------------------------------
     A        233     233       0       0       0       0
   -------------------------------------------------------
    Total     233     233      45      45      45       0
   -------------------------------------------------------

  ==> Integral Setup <==

  Using integral reordering PK algorithm.
  Sizing the integral batches needed.
  Building batch lookup table.
   Calculation information:
      Number of atoms:                  25
      Number of AO shells:             111
      Number of primitives:            329
      Number of atomic orbitals:       245
      Number of basis functions:       233

      Integral cutoff                 1.00e-12
      Number of threads:                 1

	Batch   1 pq = [       0,    9405] index = [             0,44231715] size =     44231715
	Batch   2 pq = [    9405,   13301] index = [      44231715,88464951] size =     44233236
	Batch   3 pq = [   13301,   16290] index = [      88464951,132690195] size =     44225244
	Batch   4 pq = [   16290,   18810] index = [     132690195,176917455] size =     44227260
	Batch   5 pq = [   18810,   21030] index = [     176917455,221140965] size =     44223510
	Batch   6 pq = [   21030,   23037] index = [     221140965,265363203] size =     44222238
	Batch   7 pq = [   23037,   24883] index = [     265363203,309594286] size =     44231083
	Batch   8 pq = [   24883,   26601] index = [     309594286,353819901] size =     44225615
	Batch   9 pq = [   26601,   27261] index = [     353819901,371594691] size =     17774790
  Task number: 34
  Buffer size: 11059200
  Buffer per thread: 2
  We computed 14007308 shell quartets total.
  Whereas there are 19322436 unique shell quartets.

  ==> DiskJK: Disk-Based J/K Matrices <==

    J tasked:                  Yes
    K tasked:                  Yes
    wK tasked:                  No
    Memory [MiB]:              375
    Schwarz Cutoff:          1E-12

    OpenMP threads:              1

  Minimum eigenvalue in the overlap matrix is 3.2170014361E-04.
  Using Symmetric Orthogonalization.

  SCF Guess: Superposition of Atomic Densities via on-the-fly atomic UHF.

  ==> Iterations <==

                        Total Energy        Delta E     RMS |[F,P]|

   @RHF iter SAD:  -551.29276210486637   -5.51293e+02   0.00000e+00
   @RHF iter   1:  -552.29609174287759   -1.00333e+00   3.22420e-03 DIIS
   @RHF iter   2:  -552.55278961533304   -2.56698e-01   1.70259e-03 DIIS
   @RHF iter   3:  -552.61493225346965   -6.21426e-02   3.94895e-04 DIIS
   @RHF iter   4:  -552.61977760538332   -4.84535e-03   1.54688e-04 DIIS
   @RHF iter   5:  -552.62055780673745   -7.80201e-04   2.32701e-05 DIIS
   @RHF iter   6:  -552.62059361000229   -3.58033e-05   1.07369e-05 DIIS
   @RHF iter   7:  -552.62059955307780   -5.94308e-06   3.91875e-06 DIIS
   @RHF iter   8:  -552.62060076579439   -1.21272e-06   1.56162e-06 DIIS
   @RHF iter   9:  -552.62060092272043   -1.56926e-07   5.88088e-07 DIIS
   @RHF iter  10:  -552.62060094451545   -2.17950e-08   2.04422e-07 DIIS
   @RHF iter  11:  -552.62060094720459   -2.68915e-09   5.91142e-08 DIIS
   @RHF iter  12:  -552.62060094740343   -1.98838e-10   2.05918e-08 DIIS
   @RHF iter  13:  -552.62060094743015   -2.67164e-11   7.14447e-09 DIIS
   @RHF iter  14:  -552.62060094743708   -6.93490e-12   3.33955e-09 DIIS
   @RHF iter  15:  -552.62060094743424    2.84217e-12   1.59809e-09 DIIS
   @RHF iter  16:  -552.62060094743447   -2.27374e-13   6.77650e-10 DIIS
   @RHF iter  17:  -552.62060094743686   -2.38742e-12   2.93862e-10 DIIS
   @RHF iter  18:  -552.62060094743299    3.86535e-12   7.80759e-11 DIIS
  Energy and wave function converged.

  ==> Post-Iterations <==

    Orbital Energies [Eh]
    ---------------------

    Doubly Occupied:

       1A    -20.602261     2A    -20.488450     3A    -15.568113
       4A    -11.333020     5A    -11.303826     6A    -11.240150
       7A    -11.239962     8A    -11.238912     9A    -11.235876
      10A    -11.232828    11A    -11.231428    12A    -11.229459
      13A     -1.414933    14A     -1.350776    15A     -1.200543
      16A     -1.155198    17A     -1.042833    18A     -1.020527
      19A     -0.987768    20A     -0.930378    21A     -0.849856
      22A     -0.806668    23A     -0.784059    24A     -0.740759
      25A     -0.713338    26A     -0.674667    27A     -0.644968
      28A     -0.639696    29A     -0.612061    30A     -0.601522
      31A     -0.599155    32A     -0.588450    33A     -0.580422
      34A     -0.576272    35A     -0.551623    36A     -0.547139
      37A     -0.531153    38A     -0.509219    39A     -0.500629
      40A     -0.487398    41A     -0.473184    42A     -0.394541
      43A     -0.386837    44A     -0.340322    45A     -0.307905

    Virtual:

      46A      0.127909    47A      0.152754    48A      0.163102
      49A      0.182469    50A      0.186551    51A      0.210732
      52A      0.216377    53A      0.220976    54A      0.238599
      55A      0.256115    56A      0.263193    57A      0.268323
      58A      0.274225    59A      0.287774    60A      0.289761
      61A      0.338437    62A      0.366544    63A      0.373522
      64A      0.390871    65A      0.438225    66A      0.452975
      67A      0.474756    68A      0.481798    69A      0.495655
      70A      0.504990    71A      0.564575    72A      0.605593
      73A      0.629909    74A      0.638371    75A      0.647901
      76A      0.651818    77A      0.666579    78A      0.684451
      79A      0.689386    80A      0.708590    81A      0.715690
      82A      0.730885    83A      0.733439    84A      0.737868
      85A      0.746402    86A      0.749364    87A      0.756354
      88A      0.774502    89A      0.778264    90A      0.787296
      91A      0.793486    92A      0.826654    93A      0.847642
      94A      0.852481    95A      0.861223    96A      0.871578
      97A      0.873153    98A      0.883779    99A      0.890115
     100A      0.898626   101A      0.900299   102A      0.915360
     103A      0.928457   104A      0.934922   105A      0.943520
     106A      0.948574   107A      0.972211   108A      1.003015
     109A      1.021231   110A      1.028419   111A      1.044435
     112A      1.054303   113A      1.109229   114A      1.124943
     115A      1.134262   116A      1.145016   117A      1.157787
     118A      1.161826   119A      1.165100   120A      1.208228
     121A      1.230691   122A      1.243215   123A      1.265773
     124A      1.281302   125A      1.299873   126A      1.307431
     127A      1.321809   128A      1.345541   129A      1.346980
     130A      1.354539   131A      1.370096   132A      1.380180
     133A      1.401819   134A      1.413480   135A      1.441082
     136A      1.486387   137A      1.498877   138A      1.501561
     139A      1.513086   140A      1.553760   141A      1.564327
     142A      1.619763   143A      1.637732   144A      1.661247
     145A      1.668085   146A      1.668567   147A      1.687281
     148A      1.726358   149A      1.731279   150A      1.745019
     151A      1.785143   152A      1.804549   153A      1.806761
     154A      1.846459   155A      1.859657   156A      1.872595
     157A      1.881385   158A      1.892409   159A      1.894983
     160A      1.902474   161A      1.906210   162A      1.918753
     163A      1.923894   164A      1.931523   165A      1.941694
     166A      1.955790   167A      1.964908   168A      1.978335
     169A      1.993508   170A      1.998497   171A      2.020864
     172A      2.046215   173A      2.056072   174A      2.062037
     175A      2.080650   176A      2.091969   177A      2.124473
     178A      2.130336   179A      2.147555   180A      2.175732
     181A      2.184262   182A      2.197247   183A      2.219930
     184A      2.234216   185A      2.256375   186A      2.273559
     187A      2.289419   188A      2.299328   189A      2.346655
     190A      2.366298   191A      2.396303   192A      2.442293
     193A      2.451206   194A      2.465476   195A      2.473097
     196A      2.503023   197A      2.507958   198A      2.524657
     199A      2.549578   200A      2.570731   201A      2.598863
     202A      2.614738   203A      2.626042   204A      2.643975
     205A      2.736370   206A      2.745844   207A      2.748507
     208A      2.770859   209A      2.795842   210A      2.803977
     211A      2.814453   212A      2.832754   213A      2.889057
     214A      2.895862   215A      2.962345   216A      3.009601
     217A      3.019113   218A      3.081378   219A      3.109812
     220A      3.114316   221A      3.152588   222A      3.229927
     223A      3.291607   224A      3.319915   225A      3.324858
     226A      3.524419   227A      3.549456   228A      3.586094
     229A      3.673216   230A      3.873976   231A      3.915347
     232A      3.959658   233A      4.179068

    Final Occupation by Irrep:
              A
    DOCC [    45 ]

  @RHF Final Energy:  -552.62060094743299

   => Energetics <=

    Nuclear Repulsion Energy =            637.1405769189124157
    One-Electron Energy =               -2016.5441860882297078
    Two-Electron Energy =                 826.7830082218844154
    Total Energy =                       -552.6206009474329903

Computation Completed

Properties will be evaluated at   0.000000,   0.000000,   0.000000 [a0]

Properties computed using the SCF density matrix

  Nuclear Dipole Moment: [e a0]
     X:    -0.5513      Y:     0.1324      Z:     0.7536

  Electronic Dipole Moment: [e a0]
     X:    -0.8653      Y:     0.6587      Z:    -1.7408

  Dipole Moment: [e a0]
     X:    -1.4166      Y:     0.7911      Z:    -0.9872     Total:     1.8993

  Dipole Moment: [D]
     X:    -3.6007      Y:     2.0109      Z:    -2.5093     Total:     4.8276

*** tstop() called on ds3 at Tue Apr 28 16:55:32 2020
Module time:
	user time   =     113.21 seconds =       1.89 minutes
	system time =      56.68 seconds =       0.94 minutes
	total time  =        241 seconds =       4.02 minutes
Total time:
	user time   =     113.21 seconds =       1.89 minutes
	system time =      56.68 seconds =       0.94 minutes
	total time  =        241 seconds =       4.02 minutes
                                     G D M A

                                 by Anthony Stone

                           version 2.2.06, 22 June 2011

               Distributed Multipoles from Gaussian wavefunctions

Starting at 16:55:32 on 28 Apr 2020

Using SCF density matrix from file ./SSI/SSI-010ASN-088TYR-1-dimer.test.21656.fchk

                         Distributed Multipole Analysis

Standard DMA

Positions and radii in angstrom
Multipole moments in atomic units, ea_0^k for rank k

C          x =  3.810603  y =  3.581895  z = -0.409609 angstrom
           Maximum rank =  0   Radius =  0.650 angstrom
                   Q00  =  -0.261009

C          x =  2.903603  y =  2.362895  z = -0.371609 angstrom
           Maximum rank =  0   Radius =  0.650 angstrom
                   Q00  =   0.821249

O          x =  3.285603  y =  1.308895  z =  0.139391 angstrom
           Maximum rank =  0   Radius =  0.650 angstrom
                   Q00  =  -0.802415

N          x =  1.707603  y =  2.490895  z = -0.918609 angstrom
           Maximum rank =  0   Radius =  0.650 angstrom
                   Q00  =  -0.551364

H          x =  1.071603  y =  1.702895  z = -0.898609 angstrom
           Maximum rank =  0   Radius =  0.325 angstrom
                   Q00  =   0.254704

H          x =  1.441603  y =  3.358895  z = -1.357609 angstrom
           Maximum rank =  0   Radius =  0.325 angstrom
                   Q00  =   0.193799

H          x =  3.463603  y =  4.301895  z =  0.332391 angstrom
           Maximum rank =  0   Radius =  0.325 angstrom
                   Q00  =   0.116834

H          x =  3.725603  y =  4.049895  z = -1.391609 angstrom
           Maximum rank =  0   Radius =  0.325 angstrom
                   Q00  =   0.083337

H          x =  4.865503  y =  3.325185  z = -0.232714 angstrom
           Maximum rank =  0   Radius =  0.325 angstrom
                   Q00  =   0.128613

C          x = -2.359397  y = -3.808105  z =  1.591391 angstrom
           Maximum rank =  0   Radius =  0.650 angstrom
                   Q00  =  -0.196610

C          x = -1.230397  y = -0.169105  z = -0.423609 angstrom
           Maximum rank =  0   Radius =  0.650 angstrom
                   Q00  =   0.274391

C          x = -2.151397  y = -1.043105  z = -0.995609 angstrom
           Maximum rank =  0   Radius =  0.650 angstrom
                   Q00  =  -0.176924

C          x = -0.699397  y = -0.470105  z =  0.821391 angstrom
           Maximum rank =  0   Radius =  0.650 angstrom
                   Q00  =  -0.076932

C          x = -2.496397  y = -2.218105  z = -0.338609 angstrom
           Maximum rank =  0   Radius =  0.650 angstrom
                   Q00  =   0.042374

C          x = -1.026397  y = -1.661105  z =  1.471391 angstrom
           Maximum rank =  0   Radius =  0.650 angstrom
                   Q00  =  -0.047354

C          x = -1.919397  y = -2.556105  z =  0.880391 angstrom
           Maximum rank =  0   Radius =  0.650 angstrom
                   Q00  =  -0.131045

O          x = -0.865397  y =  0.988895  z = -1.055609 angstrom
           Maximum rank =  0   Radius =  0.650 angstrom
                   Q00  =  -0.678142

H          x = -1.305397  y =  1.078895  z = -1.909609 angstrom
           Maximum rank =  0   Radius =  0.325 angstrom
                   Q00  =   0.411051

H          x = -2.596397  y = -0.811105  z = -1.952609 angstrom
           Maximum rank =  0   Radius =  0.325 angstrom
                   Q00  =   0.071206

H          x = -0.061397  y =  0.251895  z =  1.284391 angstrom
           Maximum rank =  0   Radius =  0.325 angstrom
                   Q00  =   0.091664

H          x = -3.213397  y = -2.885105  z = -0.793609 angstrom
           Maximum rank =  0   Radius =  0.325 angstrom
                   Q00  =   0.065289

H          x = -0.601397  y = -1.881105  z =  2.442391 angstrom
           Maximum rank =  0   Radius =  0.325 angstrom
                   Q00  =   0.071057

H          x = -1.715397  y = -3.998105  z =  2.452391 angstrom
           Maximum rank =  0   Radius =  0.325 angstrom
                   Q00  =   0.099747

H          x = -2.267397  y = -4.650105  z =  0.904391 angstrom
           Maximum rank =  0   Radius =  0.325 angstrom
                   Q00  =   0.097970

H          x = -3.402330  y = -3.706828  z =  1.926106 angstrom
           Maximum rank =  0   Radius =  0.325 angstrom
                   Q00  =   0.098510

Total multipoles referred to origin at
           x =   0.000000,  y =    0.000000,  z =    0.000000 angstrom
                   Q00  =  -0.000000

Finished at 16:55:32 on 28 Apr 2020

  DMA results are available in the Python driver through the
	  variable('DMA DISTRIBUTED MULTIPOLES')
  and
	  variable('DMA TOTAL MULTIPOLES')
  commands.

    Psi4 stopped on: Tuesday, 28 April 2020 04:55PM
    Psi4 wall time for execution: 0:04:01.02

*** Psi4 exiting successfully. Buy a developer a beer!
