                               Psi4 1.3.2 release

  ==> Input File <==

--------------------------------------------------------------------------
import numpy as np
set {scf_type pk
basis cc-pvdz
d_convergence 10
gdma_switch   0
gdma_limit    0
gdma_origin   [ 0.0,  0.0,  0.0 ]
}
molecule test {
    units Angstrom
    1 1
    --
    1 1
    C                0.528633880905868     3.246607420672049    -0.534581073837961
    O                1.375633880905868     2.105607420672049    -0.415581073837961
    H                2.239633880905868     2.426607420672049    -0.121581073837961
    H                0.626633880905868     3.853607420672049     0.365418926162039
    H                0.820173880905868     3.842487420672049    -1.412041073837961
    H               -0.512676119094132     2.899987420672049    -0.608961073837961
    C               -0.101366119094132    -0.918392579327951    -1.741581073837961
    C               -0.512366119094132    -1.224392579327951     0.675418926162039
    N                0.372633880905868    -0.290392579327951     0.964418926162039
    N               -0.757366119094132    -1.538392579327951    -0.585581073837961
    N               -1.152366119094132    -1.842392579327951     1.647418926162039
    H                0.784633880905868     0.268607420672049     0.226418926162039
    H                0.573633880905868    -0.061392579327951     1.923418926162039
    H               -1.476366119094132    -2.243392579327951    -0.761581073837961
    H               -1.756366119094132    -2.630392579327951     1.398418926162039
    H               -0.968366119094132    -1.631392579327951     2.612418926162039
    H                0.977633880905868    -1.075392579327951    -1.682581073837961
    H               -0.300366119094132     0.152607420672049    -1.755581073837961
    H               -0.470276119094132    -1.353852579327951    -2.681941073837961

}
e, wfn = energy('scf', return_wfn=True)
gdma(wfn)
dmavals = variable('DMA DISTRIBUTED MULTIPOLES')
charges = np.array(dmavals)
print(charges)
np.save('SSI-060THR-176ARG-1-dimer.npy', np.array(charges))--------------------------------------------------------------------------

*** tstart() called on ds3
*** at Tue Apr 28 12:31:51 2020

   => Loading Basis Set <=

    Name: CC-PVDZ
    Role: ORBITAL
    Keyword: BASIS
    atoms 1, 7-8     entry C          line   138 file /theoryfs2/ds/metcalf/miniconda2/envs/tf2gpu/share/psi4/basis/cc-pvdz.gbs
    atoms 2          entry O          line   198 file /theoryfs2/ds/metcalf/miniconda2/envs/tf2gpu/share/psi4/basis/cc-pvdz.gbs
    atoms 3-6, 12-19 entry H          line    22 file /theoryfs2/ds/metcalf/miniconda2/envs/tf2gpu/share/psi4/basis/cc-pvdz.gbs
    atoms 9-11       entry N          line   168 file /theoryfs2/ds/metcalf/miniconda2/envs/tf2gpu/share/psi4/basis/cc-pvdz.gbs

         ---------------------------------------------------------
                                   SCF
               by Justin Turney, Rob Parrish, Andy Simmonett
                          and Daniel G. A. Smith
                              RHF Reference
                        1 Threads,    500 MiB Core
         ---------------------------------------------------------

  ==> Geometry <==

    Molecular point group: c1
    Full point group: C1

    Geometry (in Angstrom), charge = 1, multiplicity = 1:

       Center              X                  Y                   Z               Mass
    ------------   -----------------  -----------------  -----------------  -----------------
         C            0.528633880906     3.246607420672    -0.534581073838    12.000000000000
         O            1.375633880906     2.105607420672    -0.415581073838    15.994914619570
         H            2.239633880906     2.426607420672    -0.121581073838     1.007825032230
         H            0.626633880906     3.853607420672     0.365418926162     1.007825032230
         H            0.820173880906     3.842487420672    -1.412041073838     1.007825032230
         H           -0.512676119094     2.899987420672    -0.608961073838     1.007825032230
         C           -0.101366119094    -0.918392579328    -1.741581073838    12.000000000000
         C           -0.512366119094    -1.224392579328     0.675418926162    12.000000000000
         N            0.372633880906    -0.290392579328     0.964418926162    14.003074004430
         N           -0.757366119094    -1.538392579328    -0.585581073838    14.003074004430
         N           -1.152366119094    -1.842392579328     1.647418926162    14.003074004430
         H            0.784633880906     0.268607420672     0.226418926162     1.007825032230
         H            0.573633880906    -0.061392579328     1.923418926162     1.007825032230
         H           -1.476366119094    -2.243392579328    -0.761581073838     1.007825032230
         H           -1.756366119094    -2.630392579328     1.398418926162     1.007825032230
         H           -0.968366119094    -1.631392579328     2.612418926162     1.007825032230
         H            0.977633880906    -1.075392579328    -1.682581073838     1.007825032230
         H           -0.300366119094     0.152607420672    -1.755581073838     1.007825032230
         H           -0.470276119094    -1.353852579328    -2.681941073838     1.007825032230

  Running in c1 symmetry.

  Rotational constants: A =      0.12088  B =      0.03608  C =      0.03017 [cm^-1]
  Rotational constants: A =   3623.87140  B =   1081.76020  C =    904.62343 [MHz]
  Nuclear repulsion =  326.302168497724892

  Charge       = 1
  Multiplicity = 1
  Electrons    = 58
  Nalpha       = 29
  Nbeta        = 29

  ==> Algorithm <==

  SCF Algorithm Type is PK.
  DIIS enabled.
  MOM disabled.
  Fractional occupation disabled.
  Guess Type is SAD.
  Energy threshold   = 1.00e-06
  Density threshold  = 1.00e-10
  Integral threshold = 0.00e+00

  ==> Primary Basis <==

  Basis Set: CC-PVDZ
    Blend: CC-PVDZ
    Number of shells: 78
    Number of basis function: 158
    Number of Cartesian functions: 165
    Spherical Harmonics?: true
    Max angular momentum: 2

  ==> Pre-Iterations <==

   -------------------------------------------------------
    Irrep   Nso     Nmo     Nalpha   Nbeta   Ndocc  Nsocc
   -------------------------------------------------------
     A        158     158       0       0       0       0
   -------------------------------------------------------
    Total     158     158      29      29      29       0
   -------------------------------------------------------

  ==> Integral Setup <==

  Using integral reordering PK algorithm.
  Sizing the integral batches needed.
  Building batch lookup table.
   Calculation information:
      Number of atoms:                  19
      Number of AO shells:              78
      Number of primitives:            214
      Number of atomic orbitals:       165
      Number of basis functions:       158

      Integral cutoff                 1.00e-12
      Number of threads:                 1

	Batch   1 pq = [       0,    9405] index = [             0,44231715] size =     44231715
	Batch   2 pq = [    9405,   12561] index = [      44231715,78895641] size =     34663926
  Task number: 8
  Buffer size: 11059200
  Buffer per thread: 2
  We computed 4354175 shell quartets total.
  Whereas there are 4747821 unique shell quartets.

  ==> DiskJK: Disk-Based J/K Matrices <==

    J tasked:                  Yes
    K tasked:                  Yes
    wK tasked:                  No
    Memory [MiB]:              375
    Schwarz Cutoff:          1E-12

    OpenMP threads:              1

  Minimum eigenvalue in the overlap matrix is 3.9301677780E-03.
  Using Symmetric Orthogonalization.

  SCF Guess: Superposition of Atomic Densities via on-the-fly atomic UHF.

  ==> Iterations <==

                        Total Energy        Delta E     RMS |[F,P]|

   @RHF iter SAD:  -357.86186771580719   -3.57862e+02   0.00000e+00
   @RHF iter   1:  -358.47434367946119   -6.12476e-01   3.58276e-03 DIIS
   @RHF iter   2:  -358.62446874742938   -1.50125e-01   1.52212e-03 DIIS
   @RHF iter   3:  -358.64838670490394   -2.39180e-02   3.76869e-04 DIIS
   @RHF iter   4:  -358.65070977985840   -2.32307e-03   9.30621e-05 DIIS
   @RHF iter   5:  -358.65083265248018   -1.22873e-04   2.44843e-05 DIIS
   @RHF iter   6:  -358.65084523146135   -1.25790e-05   6.72734e-06 DIIS
   @RHF iter   7:  -358.65084628113777   -1.04968e-06   1.83845e-06 DIIS
   @RHF iter   8:  -358.65084637053678   -8.93990e-08   5.79096e-07 DIIS
   @RHF iter   9:  -358.65084637738209   -6.84531e-09   9.34275e-08 DIIS
   @RHF iter  10:  -358.65084637760674   -2.24645e-10   3.79015e-08 DIIS
   @RHF iter  11:  -358.65084637763096   -2.42153e-11   8.42641e-09 DIIS
   @RHF iter  12:  -358.65084637763340   -2.44427e-12   3.24271e-09 DIIS
   @RHF iter  13:  -358.65084637763317    2.27374e-13   1.05430e-09 DIIS
   @RHF iter  14:  -358.65084637763425   -1.08002e-12   3.11261e-10 DIIS
   @RHF iter  15:  -358.65084637763408    1.70530e-13   9.83361e-11 DIIS
  Energy and wave function converged.

  ==> Post-Iterations <==

    Orbital Energies [Eh]
    ---------------------

    Doubly Occupied:

       1A    -20.691211     2A    -15.776281     3A    -15.773132
       4A    -15.763316     5A    -11.572106     6A    -11.426787
       7A    -11.397040     8A     -1.530636     9A     -1.487142
      10A     -1.387429    11A     -1.372835    12A     -1.126980
      13A     -1.042402    14A     -1.019255    15A     -0.959020
      16A     -0.928812    17A     -0.843432    18A     -0.840405
      19A     -0.811106    20A     -0.809595    21A     -0.781248
      22A     -0.741712    23A     -0.728252    24A     -0.716755
      25A     -0.706744    26A     -0.628694    27A     -0.600027
      28A     -0.575719    29A     -0.571773

    Virtual:

      30A      0.000215    31A      0.037333    32A      0.041481
      33A      0.043017    34A      0.071243    35A      0.086356
      36A      0.096920    37A      0.112635    38A      0.132285
      39A      0.140068    40A      0.161238    41A      0.175377
      42A      0.200121    43A      0.219857    44A      0.263138
      45A      0.293735    46A      0.345950    47A      0.352443
      48A      0.473377    49A      0.477391    50A      0.508350
      51A      0.518539    52A      0.526869    53A      0.537907
      54A      0.542797    55A      0.554849    56A      0.564825
      57A      0.581122    58A      0.604182    59A      0.690439
      60A      0.703402    61A      0.715181    62A      0.720866
      63A      0.735010    64A      0.746996    65A      0.760224
      66A      0.776860    67A      0.787192    68A      0.796875
      69A      0.818474    70A      0.833109    71A      0.847952
      72A      0.879433    73A      0.923073    74A      0.933481
      75A      0.985366    76A      0.999289    77A      1.030257
      78A      1.031714    79A      1.057322    80A      1.071686
      81A      1.107635    82A      1.132031    83A      1.164419
      84A      1.190012    85A      1.216011    86A      1.230457
      87A      1.233877    88A      1.260628    89A      1.301676
      90A      1.385123    91A      1.423469    92A      1.482948
      93A      1.506623    94A      1.521174    95A      1.536443
      96A      1.542338    97A      1.553948    98A      1.561918
      99A      1.593401   100A      1.631088   101A      1.657674
     102A      1.705671   103A      1.725845   104A      1.727951
     105A      1.751668   106A      1.772497   107A      1.775758
     108A      1.794354   109A      1.801750   110A      1.812464
     111A      1.822366   112A      1.842575   113A      1.860900
     114A      1.909967   115A      1.910866   116A      1.951155
     117A      2.017646   118A      2.036523   119A      2.051332
     120A      2.090588   121A      2.105936   122A      2.143027
     123A      2.154349   124A      2.223488   125A      2.247559
     126A      2.259481   127A      2.270016   128A      2.276195
     129A      2.290081   130A      2.327342   131A      2.362549
     132A      2.368131   133A      2.379952   134A      2.463989
     135A      2.482451   136A      2.582916   137A      2.603524
     138A      2.622055   139A      2.632814   140A      2.643945
     141A      2.653518   142A      2.670464   143A      2.716034
     144A      2.775043   145A      2.805958   146A      2.818062
     147A      2.860611   148A      2.895153   149A      3.085058
     150A      3.107556   151A      3.156842   152A      3.165856
     153A      3.236270   154A      3.324482   155A      3.441447
     156A      3.572177   157A      3.662857   158A      3.956686

    Final Occupation by Irrep:
              A
    DOCC [    29 ]

  @RHF Final Energy:  -358.65084637763408

   => Energetics <=

    Nuclear Repulsion Energy =            326.3021684977248924
    One-Electron Energy =               -1124.6863397405750220
    Two-Electron Energy =                 439.7333248652160478
    Total Energy =                       -358.6508463776340818

Computation Completed

Properties will be evaluated at   0.000000,   0.000000,   0.000000 [a0]

Properties computed using the SCF density matrix

  Nuclear Dipole Moment: [e a0]
     X:     0.5154      Y:     4.1907      Z:    -2.3498

  Electronic Dipole Moment: [e a0]
     X:    -1.0966      Y:    -5.2836      Z:     3.3085

  Dipole Moment: [e a0]
     X:    -0.5813      Y:    -1.0929      Z:     0.9586     Total:     1.5657

  Dipole Moment: [D]
     X:    -1.4775      Y:    -2.7779      Z:     2.4366     Total:     3.9796

*** tstop() called on ds3 at Tue Apr 28 12:32:29 2020
Module time:
	user time   =      27.97 seconds =       0.47 minutes
	system time =      10.68 seconds =       0.18 minutes
	total time  =         38 seconds =       0.63 minutes
Total time:
	user time   =      27.97 seconds =       0.47 minutes
	system time =      10.68 seconds =       0.18 minutes
	total time  =         38 seconds =       0.63 minutes
                                     G D M A

                                 by Anthony Stone

                           version 2.2.06, 22 June 2011

               Distributed Multipoles from Gaussian wavefunctions

Starting at 12:32:29 on 28 Apr 2020

Using SCF density matrix from file ./SSI/SSI-060THR-176ARG-1-dimer.test.15029.fchk

                         Distributed Multipole Analysis

Standard DMA

Positions and radii in angstrom
Multipole moments in atomic units, ea_0^k for rank k

C          x =  0.528634  y =  3.246607  z = -0.534581 angstrom
           Maximum rank =  0   Radius =  0.650 angstrom
                   Q00  =  -0.070379

O          x =  1.375634  y =  2.105607  z = -0.415581 angstrom
           Maximum rank =  0   Radius =  0.650 angstrom
                   Q00  =  -0.634969

H          x =  2.239634  y =  2.426607  z = -0.121581 angstrom
           Maximum rank =  0   Radius =  0.325 angstrom
                   Q00  =   0.413327

H          x =  0.626634  y =  3.853607  z =  0.365419 angstrom
           Maximum rank =  0   Radius =  0.325 angstrom
                   Q00  =   0.096056

H          x =  0.820174  y =  3.842487  z = -1.412041 angstrom
           Maximum rank =  0   Radius =  0.325 angstrom
                   Q00  =   0.110447

H          x = -0.512676  y =  2.899987  z = -0.608961 angstrom
           Maximum rank =  0   Radius =  0.325 angstrom
                   Q00  =   0.108963

C          x = -0.101366  y = -0.918393  z = -1.741581 angstrom
           Maximum rank =  0   Radius =  0.650 angstrom
                   Q00  =  -0.121581

C          x = -0.512366  y = -1.224393  z =  0.675419 angstrom
           Maximum rank =  0   Radius =  0.650 angstrom
                   Q00  =   1.087030

N          x =  0.372634  y = -0.290393  z =  0.964419 angstrom
           Maximum rank =  0   Radius =  0.650 angstrom
                   Q00  =  -0.596977

N          x = -0.757366  y = -1.538393  z = -0.585581 angstrom
           Maximum rank =  0   Radius =  0.650 angstrom
                   Q00  =  -0.499557

N          x = -1.152366  y = -1.842393  z =  1.647419 angstrom
           Maximum rank =  0   Radius =  0.650 angstrom
                   Q00  =  -0.602392

H          x =  0.784634  y =  0.268607  z =  0.226419 angstrom
           Maximum rank =  0   Radius =  0.325 angstrom
                   Q00  =   0.295551

H          x =  0.573634  y = -0.061393  z =  1.923419 angstrom
           Maximum rank =  0   Radius =  0.325 angstrom
                   Q00  =   0.255388

H          x = -1.476366  y = -2.243393  z = -0.761581 angstrom
           Maximum rank =  0   Radius =  0.325 angstrom
                   Q00  =   0.231091

H          x = -1.756366  y = -2.630393  z =  1.398419 angstrom
           Maximum rank =  0   Radius =  0.325 angstrom
                   Q00  =   0.261807

H          x = -0.968366  y = -1.631393  z =  2.612419 angstrom
           Maximum rank =  0   Radius =  0.325 angstrom
                   Q00  =   0.266921

H          x =  0.977634  y = -1.075393  z = -1.682581 angstrom
           Maximum rank =  0   Radius =  0.325 angstrom
                   Q00  =   0.121614

H          x = -0.300366  y =  0.152607  z = -1.755581 angstrom
           Maximum rank =  0   Radius =  0.325 angstrom
                   Q00  =   0.118252

H          x = -0.470276  y = -1.353853  z = -2.681941 angstrom
           Maximum rank =  0   Radius =  0.325 angstrom
                   Q00  =   0.159407

Total multipoles referred to origin at
           x =   0.000000,  y =    0.000000,  z =    0.000000 angstrom
                   Q00  =   1.000000

Finished at 12:32:29 on 28 Apr 2020

  DMA results are available in the Python driver through the
	  variable('DMA DISTRIBUTED MULTIPOLES')
  and
	  variable('DMA TOTAL MULTIPOLES')
  commands.

    Psi4 stopped on: Tuesday, 28 April 2020 12:32PM
    Psi4 wall time for execution: 0:00:38.18

*** Psi4 exiting successfully. Buy a developer a beer!
