                               Psi4 1.3.2 release

  ==> Input File <==

--------------------------------------------------------------------------
import numpy as np
set {scf_type pk
basis cc-pvdz
d_convergence 10
gdma_switch   0
gdma_limit    0
gdma_origin   [ 0.0,  0.0,  0.0 ]
}
molecule test {
    units Angstrom
    0 1
    --
    0 1
    C                1.331037662878554    -0.701990038855252    -0.459835020410811
    C                2.060037662878553    -0.355990038855252     0.818164979589189
    C                0.268037662878554    -1.750990038855252     1.452164979589189
    C               -1.062962337121446    -1.298990038855252    -2.077835020410811
    C               -0.965962337121446    -1.716990038855252    -0.618835020410811
    O               -1.893962337121446    -2.310990038855252    -0.072835020410811
    N                0.146037662878554    -1.399990038855252     0.045164979589189
    H                1.061037662878553     0.195009961144748    -1.016835020410811
    H                1.927037662878554    -1.358990038855252    -1.095835020410811
    H                1.687037662878554     0.588009961144748     1.211164979589189
    H                3.129037662878553    -0.299990038855252     0.648164979589189
    H                0.041037662878554    -2.809990038855253     1.579164979589189
    H               -0.565962337121446    -0.326990038855252    -2.121835020410811
    H                1.818507662878554    -1.173690038855252     1.513214979589189
    H                1.325257662878554    -1.543190038855252     1.673714979589189
    H               -0.433082337121446    -1.157390038855252     2.057214979589189
    H               -0.540662337121447    -2.040890038855252    -2.699805020410811
    H               -2.116592337121447    -1.187390038855252    -2.373455020410811
    C               -0.217962337121446     2.766009961144748    -0.114835020410811
    C               -0.922962337121446     3.495009961144747     1.014164979589189
    C                1.209037662878554     3.079009961144748    -0.133835020410811
    H               -0.308962337121446     1.675009961144748     0.087164979589189
    H               -0.723962337121446     2.980009961144748    -1.043835020410811
    H               -0.593962337121446     4.534009961144748     0.985164979589189
    H                1.689037662878554     2.911009961144748     0.737164979589189
    H                1.748037662878554     2.611009961144748    -0.966835020410811
    H               -0.643432337121446     3.034209961144748     1.973084979589189
    H               -2.015042337121446     3.474909961144748     0.883944979589189
    H                1.323707662878554     4.170909961144748    -0.065405020410811

}
e, wfn = energy('scf', return_wfn=True)
gdma(wfn)
dmavals = variable('DMA DISTRIBUTED MULTIPOLES')
charges = np.array(dmavals)
print(charges)
np.save('SSI-245PRO-248GLU-1-dimer.npy', np.array(charges))--------------------------------------------------------------------------

*** tstart() called on ds3
*** at Mon Apr 27 23:16:40 2020

   => Loading Basis Set <=

    Name: CC-PVDZ
    Role: ORBITAL
    Keyword: BASIS
    atoms 1-5, 19-21  entry C          line   138 file /theoryfs2/ds/metcalf/miniconda2/envs/tf2gpu/share/psi4/basis/cc-pvdz.gbs
    atoms 6           entry O          line   198 file /theoryfs2/ds/metcalf/miniconda2/envs/tf2gpu/share/psi4/basis/cc-pvdz.gbs
    atoms 7           entry N          line   168 file /theoryfs2/ds/metcalf/miniconda2/envs/tf2gpu/share/psi4/basis/cc-pvdz.gbs
    atoms 8-18, 22-29 entry H          line    22 file /theoryfs2/ds/metcalf/miniconda2/envs/tf2gpu/share/psi4/basis/cc-pvdz.gbs

         ---------------------------------------------------------
                                   SCF
               by Justin Turney, Rob Parrish, Andy Simmonett
                          and Daniel G. A. Smith
                              RHF Reference
                        1 Threads,    500 MiB Core
         ---------------------------------------------------------

  ==> Geometry <==

    Molecular point group: c1
    Full point group: C1

    Geometry (in Angstrom), charge = 0, multiplicity = 1:

       Center              X                  Y                   Z               Mass
    ------------   -----------------  -----------------  -----------------  -----------------
         C            1.331037662879    -0.701990038855    -0.459835020411    12.000000000000
         C            2.060037662879    -0.355990038855     0.818164979589    12.000000000000
         C            0.268037662879    -1.750990038855     1.452164979589    12.000000000000
         C           -1.062962337121    -1.298990038855    -2.077835020411    12.000000000000
         C           -0.965962337121    -1.716990038855    -0.618835020411    12.000000000000
         O           -1.893962337121    -2.310990038855    -0.072835020411    15.994914619570
         N            0.146037662879    -1.399990038855     0.045164979589    14.003074004430
         H            1.061037662879     0.195009961145    -1.016835020411     1.007825032230
         H            1.927037662879    -1.358990038855    -1.095835020411     1.007825032230
         H            1.687037662879     0.588009961145     1.211164979589     1.007825032230
         H            3.129037662879    -0.299990038855     0.648164979589     1.007825032230
         H            0.041037662879    -2.809990038855     1.579164979589     1.007825032230
         H           -0.565962337121    -0.326990038855    -2.121835020411     1.007825032230
         H            1.818507662879    -1.173690038855     1.513214979589     1.007825032230
         H            1.325257662879    -1.543190038855     1.673714979589     1.007825032230
         H           -0.433082337121    -1.157390038855     2.057214979589     1.007825032230
         H           -0.540662337121    -2.040890038855    -2.699805020411     1.007825032230
         H           -2.116592337121    -1.187390038855    -2.373455020411     1.007825032230
         C           -0.217962337121     2.766009961145    -0.114835020411    12.000000000000
         C           -0.922962337121     3.495009961145     1.014164979589    12.000000000000
         C            1.209037662879     3.079009961145    -0.133835020411    12.000000000000
         H           -0.308962337121     1.675009961145     0.087164979589     1.007825032230
         H           -0.723962337121     2.980009961145    -1.043835020411     1.007825032230
         H           -0.593962337121     4.534009961145     0.985164979589     1.007825032230
         H            1.689037662879     2.911009961145     0.737164979589     1.007825032230
         H            1.748037662879     2.611009961145    -0.966835020411     1.007825032230
         H           -0.643432337121     3.034209961145     1.973084979589     1.007825032230
         H           -2.015042337121     3.474909961145     0.883944979589     1.007825032230
         H            1.323707662879     4.170909961145    -0.065405020411     1.007825032230

  Running in c1 symmetry.

  Rotational constants: A =      0.04796  B =      0.02068  C =      0.01826 [cm^-1]
  Rotational constants: A =   1437.91599  B =    619.92511  C =    547.35097 [MHz]
  Nuclear repulsion =  574.068800120566834

  Charge       = 0
  Multiplicity = 1
  Electrons    = 82
  Nalpha       = 41
  Nbeta        = 41

  ==> Algorithm <==

  SCF Algorithm Type is PK.
  DIIS enabled.
  MOM disabled.
  Fractional occupation disabled.
  Guess Type is SAD.
  Energy threshold   = 1.00e-06
  Density threshold  = 1.00e-10
  Integral threshold = 0.00e+00

  ==> Primary Basis <==

  Basis Set: CC-PVDZ
    Blend: CC-PVDZ
    Number of shells: 117
    Number of basis function: 235
    Number of Cartesian functions: 245
    Spherical Harmonics?: true
    Max angular momentum: 2

  ==> Pre-Iterations <==

   -------------------------------------------------------
    Irrep   Nso     Nmo     Nalpha   Nbeta   Ndocc  Nsocc
   -------------------------------------------------------
     A        235     235       0       0       0       0
   -------------------------------------------------------
    Total     235     235      41      41      41       0
   -------------------------------------------------------

  ==> Integral Setup <==

  Using integral reordering PK algorithm.
  Sizing the integral batches needed.
  Building batch lookup table.
   Calculation information:
      Number of atoms:                  29
      Number of AO shells:             117
      Number of primitives:            315
      Number of atomic orbitals:       245
      Number of basis functions:       235

      Integral cutoff                 1.00e-12
      Number of threads:                 1

	Batch   1 pq = [       0,    9405] index = [             0,44231715] size =     44231715
	Batch   2 pq = [    9405,   13301] index = [      44231715,88464951] size =     44233236
	Batch   3 pq = [   13301,   16290] index = [      88464951,132690195] size =     44225244
	Batch   4 pq = [   16290,   18810] index = [     132690195,176917455] size =     44227260
	Batch   5 pq = [   18810,   21030] index = [     176917455,221140965] size =     44223510
	Batch   6 pq = [   21030,   23037] index = [     221140965,265363203] size =     44222238
	Batch   7 pq = [   23037,   24883] index = [     265363203,309594286] size =     44231083
	Batch   8 pq = [   24883,   26601] index = [     309594286,353819901] size =     44225615
	Batch   9 pq = [   26601,   27730] index = [     353819901,384490315] size =     30670414
  Task number: 35
  Buffer size: 11059200
  Buffer per thread: 2
  We computed 23823657 shell quartets total.
  Whereas there are 23829156 unique shell quartets.

  ==> DiskJK: Disk-Based J/K Matrices <==

    J tasked:                  Yes
    K tasked:                  Yes
    wK tasked:                  No
    Memory [MiB]:              375
    Schwarz Cutoff:          1E-12

    OpenMP threads:              1

  Minimum eigenvalue in the overlap matrix is 1.3748545251E-03.
  Using Symmetric Orthogonalization.

  SCF Guess: Superposition of Atomic Densities via on-the-fly atomic UHF.

  ==> Iterations <==

                        Total Energy        Delta E     RMS |[F,P]|

   @RHF iter SAD:  -442.71580089182169   -4.42716e+02   0.00000e+00
   @RHF iter   1:  -442.77934083187154   -6.35399e-02   3.17134e-03 DIIS
   @RHF iter   2:  -443.04122310378210   -2.61882e-01   1.72347e-03 DIIS
   @RHF iter   3:  -443.10761086724654   -6.63878e-02   4.10389e-04 DIIS
   @RHF iter   4:  -443.11326751825311   -5.65665e-03   1.67407e-04 DIIS
   @RHF iter   5:  -443.11419360451441   -9.26086e-04   2.87522e-05 DIIS
   @RHF iter   6:  -443.11424903785809   -5.54333e-05   1.39699e-05 DIIS
   @RHF iter   7:  -443.11425996623427   -1.09284e-05   5.08203e-06 DIIS
   @RHF iter   8:  -443.11426207146542   -2.10523e-06   2.09174e-06 DIIS
   @RHF iter   9:  -443.11426241499385   -3.43528e-07   5.95931e-07 DIIS
   @RHF iter  10:  -443.11426243842413   -2.34303e-08   1.57165e-07 DIIS
   @RHF iter  11:  -443.11426244025620   -1.83206e-09   4.33754e-08 DIIS
   @RHF iter  12:  -443.11426244037335   -1.17154e-10   1.28826e-08 DIIS
   @RHF iter  13:  -443.11426244039069   -1.73372e-11   4.37136e-09 DIIS
   @RHF iter  14:  -443.11426244038972    9.66338e-13   1.19533e-09 DIIS
   @RHF iter  15:  -443.11426244038853    1.19371e-12   3.02556e-10 DIIS
   @RHF iter  16:  -443.11426244038859   -5.68434e-14   1.13601e-10 DIIS
   @RHF iter  17:  -443.11426244038978   -1.19371e-12   3.79895e-11 DIIS
  Energy and wave function converged.

  ==> Post-Iterations <==

    Orbital Energies [Eh]
    ---------------------

    Doubly Occupied:

       1A    -20.493546     2A    -15.579959     3A    -11.335047
       4A    -11.278744     5A    -11.240272     6A    -11.236282
       7A    -11.223693     8A    -11.222245     9A    -11.220720
      10A    -11.212777    11A     -1.362163    12A     -1.256315
      13A     -1.081330    14A     -1.074949    15A     -1.007327
      16A     -0.972353    17A     -0.938449    18A     -0.854948
      19A     -0.811580    20A     -0.760161    21A     -0.729077
      22A     -0.677306    23A     -0.650152    24A     -0.637462
      25A     -0.618368    26A     -0.613419    27A     -0.597187
      28A     -0.576691    29A     -0.575304    30A     -0.550460
      31A     -0.536674    32A     -0.532530    33A     -0.527329
      34A     -0.521474    35A     -0.494508    36A     -0.483798
      37A     -0.479997    38A     -0.460630    39A     -0.398147
      40A     -0.387744    41A     -0.358857

    Virtual:

      42A      0.154250    43A      0.178990    44A      0.195295
      45A      0.196381    46A      0.207361    47A      0.219534
      48A      0.229029    49A      0.238787    50A      0.247563
      51A      0.255044    52A      0.261758    53A      0.268655
      54A      0.276615    55A      0.288140    56A      0.298482
      57A      0.303568    58A      0.310206    59A      0.320367
      60A      0.335753    61A      0.352171    62A      0.363824
      63A      0.375886    64A      0.402278    65A      0.410030
      66A      0.436599    67A      0.456622    68A      0.488076
      69A      0.528083    70A      0.535761    71A      0.572493
      72A      0.576312    73A      0.594053    74A      0.610193
      75A      0.617472    76A      0.636576    77A      0.655403
      78A      0.665661    79A      0.686157    80A      0.699504
      81A      0.715748    82A      0.734036    83A      0.751274
      84A      0.756075    85A      0.787882    86A      0.790391
      87A      0.805903    88A      0.830878    89A      0.847879
      90A      0.855014    91A      0.871505    92A      0.874614
      93A      0.884276    94A      0.885032    95A      0.886750
      96A      0.893457    97A      0.898658    98A      0.902470
      99A      0.910657   100A      0.917116   101A      0.931023
     102A      0.936482   103A      0.938642   104A      0.950724
     105A      0.953518   106A      0.977319   107A      0.983490
     108A      0.991089   109A      1.017726   110A      1.031678
     111A      1.049010   112A      1.055195   113A      1.083021
     114A      1.104419   115A      1.127928   116A      1.129678
     117A      1.141903   118A      1.207534   119A      1.216321
     120A      1.223644   121A      1.238687   122A      1.280375
     123A      1.354407   124A      1.367129   125A      1.394352
     126A      1.400928   127A      1.425833   128A      1.440019
     129A      1.464603   130A      1.479220   131A      1.489353
     132A      1.507414   133A      1.559558   134A      1.561528
     135A      1.567668   136A      1.599016   137A      1.611609
     138A      1.631982   139A      1.635610   140A      1.652615
     141A      1.664314   142A      1.686896   143A      1.690600
     144A      1.705159   145A      1.720524   146A      1.741376
     147A      1.779793   148A      1.830798   149A      1.841801
     150A      1.846612   151A      1.852358   152A      1.860189
     153A      1.878387   154A      1.882980   155A      1.893380
     156A      1.903446   157A      1.924324   158A      1.929733
     159A      1.935991   160A      1.944156   161A      1.954861
     162A      1.965776   163A      1.975689   164A      1.984188
     165A      1.995505   166A      2.000944   167A      2.007613
     168A      2.019677   169A      2.021573   170A      2.033198
     171A      2.040744   172A      2.061422   173A      2.084170
     174A      2.105562   175A      2.113336   176A      2.131907
     177A      2.137892   178A      2.149166   179A      2.156040
     180A      2.165621   181A      2.181573   182A      2.190121
     183A      2.236363   184A      2.268313   185A      2.285085
     186A      2.296897   187A      2.304574   188A      2.309110
     189A      2.326854   190A      2.344607   191A      2.378466
     192A      2.391047   193A      2.419005   194A      2.453164
     195A      2.487434   196A      2.506492   197A      2.513789
     198A      2.526480   199A      2.539683   200A      2.571544
     201A      2.590839   202A      2.610545   203A      2.636455
     204A      2.650698   205A      2.674060   206A      2.718752
     207A      2.751342   208A      2.758214   209A      2.773077
     210A      2.775804   211A      2.789816   212A      2.803373
     213A      2.808783   214A      2.814815   215A      2.826338
     216A      2.842510   217A      2.851874   218A      2.875641
     219A      2.932498   220A      2.940938   221A      2.971279
     222A      3.005848   223A      3.047422   224A      3.089388
     225A      3.108690   226A      3.138012   227A      3.144264
     228A      3.187365   229A      3.242319   230A      3.351115
     231A      3.376960   232A      3.524822   233A      3.843524
     234A      3.911740   235A      5.266717

    Final Occupation by Irrep:
              A
    DOCC [    41 ]

  @RHF Final Energy:  -443.11426244038978

   => Energetics <=

    Nuclear Repulsion Energy =            574.0688001205668343
    One-Electron Energy =               -1739.2261814595890428
    Two-Electron Energy =                 722.0431188986325424
    Total Energy =                       -443.1142624403897798

Computation Completed

Properties will be evaluated at   0.000000,   0.000000,   0.000000 [a0]

Properties computed using the SCF density matrix

  Nuclear Dipole Moment: [e a0]
     X:     7.3103      Y:    13.3759      Z:     1.8420

  Electronic Dipole Moment: [e a0]
     X:    -5.7928      Y:   -12.5334      Z:    -2.0856

  Dipole Moment: [e a0]
     X:     1.5175      Y:     0.8425      Z:    -0.2437     Total:     1.7527

  Dipole Moment: [D]
     X:     3.8571      Y:     2.1415      Z:    -0.6194     Total:     4.4550

*** tstop() called on ds3 at Mon Apr 27 23:21:13 2020
Module time:
	user time   =     184.34 seconds =       3.07 minutes
	system time =      69.27 seconds =       1.15 minutes
	total time  =        273 seconds =       4.55 minutes
Total time:
	user time   =     184.34 seconds =       3.07 minutes
	system time =      69.27 seconds =       1.15 minutes
	total time  =        273 seconds =       4.55 minutes
                                     G D M A

                                 by Anthony Stone

                           version 2.2.06, 22 June 2011

               Distributed Multipoles from Gaussian wavefunctions

Starting at 23:21:13 on 27 Apr 2020

Using SCF density matrix from file ./SSI/SSI-245PRO-248GLU-1-dimer.test.2050.fchk

                         Distributed Multipole Analysis

Standard DMA

Positions and radii in angstrom
Multipole moments in atomic units, ea_0^k for rank k

C          x =  1.331038  y = -0.701990  z = -0.459835 angstrom
           Maximum rank =  0   Radius =  0.650 angstrom
                   Q00  =   0.013175

C          x =  2.060038  y = -0.355990  z =  0.818165 angstrom
           Maximum rank =  0   Radius =  0.650 angstrom
                   Q00  =  -0.248145

C          x =  0.268038  y = -1.750990  z =  1.452165 angstrom
           Maximum rank =  0   Radius =  0.650 angstrom
                   Q00  =  -0.103587

C          x = -1.062962  y = -1.298990  z = -2.077835 angstrom
           Maximum rank =  0   Radius =  0.650 angstrom
                   Q00  =  -0.251197

C          x = -0.965962  y = -1.716990  z = -0.618835 angstrom
           Maximum rank =  0   Radius =  0.650 angstrom
                   Q00  =   0.748348

O          x = -1.893962  y = -2.310990  z = -0.072835 angstrom
           Maximum rank =  0   Radius =  0.650 angstrom
                   Q00  =  -0.791093

N          x =  0.146038  y = -1.399990  z =  0.045165 angstrom
           Maximum rank =  0   Radius =  0.650 angstrom
                   Q00  =  -0.438094

H          x =  1.061038  y =  0.195010  z = -1.016835 angstrom
           Maximum rank =  0   Radius =  0.325 angstrom
                   Q00  =   0.066864

H          x =  1.927038  y = -1.358990  z = -1.095835 angstrom
           Maximum rank =  0   Radius =  0.325 angstrom
                   Q00  =   0.065901

H          x =  1.687038  y =  0.588010  z =  1.211165 angstrom
           Maximum rank =  0   Radius =  0.325 angstrom
                   Q00  =   0.102195

H          x =  3.129038  y = -0.299990  z =  0.648165 angstrom
           Maximum rank =  0   Radius =  0.325 angstrom
                   Q00  =   0.087794

H          x =  0.041038  y = -2.809990  z =  1.579165 angstrom
           Maximum rank =  0   Radius =  0.325 angstrom
                   Q00  =   0.104943

H          x = -0.565962  y = -0.326990  z = -2.121835 angstrom
           Maximum rank =  0   Radius =  0.325 angstrom
                   Q00  =   0.084542

H          x =  1.818508  y = -1.173690  z =  1.513215 angstrom
           Maximum rank =  0   Radius =  0.325 angstrom
                   Q00  =   0.114805

H          x =  1.325258  y = -1.543190  z =  1.673715 angstrom
           Maximum rank =  0   Radius =  0.325 angstrom
                   Q00  =   0.101133

H          x = -0.433082  y = -1.157390  z =  2.057215 angstrom
           Maximum rank =  0   Radius =  0.325 angstrom
                   Q00  =   0.099716

H          x = -0.540662  y = -2.040890  z = -2.699805 angstrom
           Maximum rank =  0   Radius =  0.325 angstrom
                   Q00  =   0.122486

H          x = -2.116592  y = -1.187390  z = -2.373455 angstrom
           Maximum rank =  0   Radius =  0.325 angstrom
                   Q00  =   0.130684

C          x = -0.217962  y =  2.766010  z = -0.114835 angstrom
           Maximum rank =  0   Radius =  0.650 angstrom
                   Q00  =  -0.092332

C          x = -0.922962  y =  3.495010  z =  1.014165 angstrom
           Maximum rank =  0   Radius =  0.650 angstrom
                   Q00  =  -0.217324

C          x =  1.209038  y =  3.079010  z = -0.133835 angstrom
           Maximum rank =  0   Radius =  0.650 angstrom
                   Q00  =  -0.195612

H          x = -0.308962  y =  1.675010  z =  0.087165 angstrom
           Maximum rank =  0   Radius =  0.325 angstrom
                   Q00  =   0.018222

H          x = -0.723962  y =  2.980010  z = -1.043835 angstrom
           Maximum rank =  0   Radius =  0.325 angstrom
                   Q00  =   0.056094

H          x = -0.593962  y =  4.534010  z =  0.985165 angstrom
           Maximum rank =  0   Radius =  0.325 angstrom
                   Q00  =   0.068826

H          x =  1.689038  y =  2.911010  z =  0.737165 angstrom
           Maximum rank =  0   Radius =  0.325 angstrom
                   Q00  =   0.066871

H          x =  1.748038  y =  2.611010  z = -0.966835 angstrom
           Maximum rank =  0   Radius =  0.325 angstrom
                   Q00  =   0.069399

H          x = -0.643432  y =  3.034210  z =  1.973085 angstrom
           Maximum rank =  0   Radius =  0.325 angstrom
                   Q00  =   0.075019

H          x = -2.015042  y =  3.474910  z =  0.883945 angstrom
           Maximum rank =  0   Radius =  0.325 angstrom
                   Q00  =   0.090245

H          x =  1.323708  y =  4.170910  z = -0.065405 angstrom
           Maximum rank =  0   Radius =  0.325 angstrom
                   Q00  =   0.050123

Total multipoles referred to origin at
           x =   0.000000,  y =    0.000000,  z =    0.000000 angstrom
                   Q00  =  -0.000000

Finished at 23:21:13 on 27 Apr 2020

  DMA results are available in the Python driver through the
	  variable('DMA DISTRIBUTED MULTIPOLES')
  and
	  variable('DMA TOTAL MULTIPOLES')
  commands.

    Psi4 stopped on: Monday, 27 April 2020 11:21PM
    Psi4 wall time for execution: 0:04:33.99

*** Psi4 exiting successfully. Buy a developer a beer!
