                               Psi4 1.3.2 release

  ==> Input File <==

--------------------------------------------------------------------------
import numpy as np
set {scf_type pk
basis cc-pvdz
d_convergence 10
gdma_switch   0
gdma_limit    0
gdma_origin   [ 0.0,  0.0,  0.0 ]
}
molecule test {
    units Angstrom
    0 1
    --
    0 1
    C                0.164872848320998     1.656904381304316    -0.608363439608312
    C                0.996872848320998     2.889904381304317    -0.928363439608312
    H               -0.853127151679002     1.752904381304317    -0.991363439608312
    H                0.634872848320998     0.777904381305317    -1.052363439608312
    H                0.123872848320998     1.499904381304316     0.470636560391688
    H                1.931872848320999     2.800904381304317    -0.371363439608312
    H                0.500672848320998     3.819026381305317    -0.611310439608312
    H                1.249762848320999     2.933823381304317    -1.997998539608312
    C               -0.177127151679002    -1.649095618695683     0.620636560391688
    C               -0.995127151679002    -2.895095618694683     0.908636560391688
    H               -0.512127151679002    -0.825095618695683     1.249636560391688
    H                0.873872848320999    -1.839095618695683     0.841636560391688
    H               -0.278127151679002    -1.373095618694684    -0.428363439608312
    H               -0.917127151679002    -3.107095618694683     1.974636560391688
    H               -2.050067151679001    -2.721415618695683     0.649905560391688
    H               -0.579227151679002    -3.749835618695683     0.355061560391688

}
e, wfn = energy('scf', return_wfn=True)
gdma(wfn)
dmavals = variable('DMA DISTRIBUTED MULTIPOLES')
charges = np.array(dmavals)
print(charges)
np.save('SSI-020ILE-023VAL-1-dimer.npy', np.array(charges))--------------------------------------------------------------------------

*** tstart() called on ds3
*** at Tue Apr 28 00:45:51 2020

   => Loading Basis Set <=

    Name: CC-PVDZ
    Role: ORBITAL
    Keyword: BASIS
    atoms 1-2, 9-10  entry C          line   138 file /theoryfs2/ds/metcalf/miniconda2/envs/tf2gpu/share/psi4/basis/cc-pvdz.gbs
    atoms 3-8, 11-16 entry H          line    22 file /theoryfs2/ds/metcalf/miniconda2/envs/tf2gpu/share/psi4/basis/cc-pvdz.gbs

         ---------------------------------------------------------
                                   SCF
               by Justin Turney, Rob Parrish, Andy Simmonett
                          and Daniel G. A. Smith
                              RHF Reference
                        1 Threads,    500 MiB Core
         ---------------------------------------------------------

  ==> Geometry <==

    Molecular point group: c1
    Full point group: C1

    Geometry (in Angstrom), charge = 0, multiplicity = 1:

       Center              X                  Y                   Z               Mass
    ------------   -----------------  -----------------  -----------------  -----------------
         C            0.164872848321     1.656904381304    -0.608363439608    12.000000000000
         C            0.996872848321     2.889904381304    -0.928363439608    12.000000000000
         H           -0.853127151679     1.752904381304    -0.991363439608     1.007825032230
         H            0.634872848321     0.777904381305    -1.052363439608     1.007825032230
         H            0.123872848321     1.499904381304     0.470636560392     1.007825032230
         H            1.931872848321     2.800904381304    -0.371363439608     1.007825032230
         H            0.500672848321     3.819026381305    -0.611310439608     1.007825032230
         H            1.249762848321     2.933823381304    -1.997998539608     1.007825032230
         C           -0.177127151679    -1.649095618696     0.620636560392    12.000000000000
         C           -0.995127151679    -2.895095618695     0.908636560392    12.000000000000
         H           -0.512127151679    -0.825095618696     1.249636560392     1.007825032230
         H            0.873872848321    -1.839095618696     0.841636560392     1.007825032230
         H           -0.278127151679    -1.373095618695    -0.428363439608     1.007825032230
         H           -0.917127151679    -3.107095618695     1.974636560392     1.007825032230
         H           -2.050067151679    -2.721415618696     0.649905560392     1.007825032230
         H           -0.579227151679    -3.749835618696     0.355061560392     1.007825032230

  Running in c1 symmetry.

  Rotational constants: A =      1.01419  B =      0.04095  C =      0.04057 [cm^-1]
  Rotational constants: A =  30404.50475  B =   1227.59507  C =   1216.24140 [MHz]
  Nuclear repulsion =  121.037505104983296

  Charge       = 0
  Multiplicity = 1
  Electrons    = 36
  Nalpha       = 18
  Nbeta        = 18

  ==> Algorithm <==

  SCF Algorithm Type is PK.
  DIIS enabled.
  MOM disabled.
  Fractional occupation disabled.
  Guess Type is SAD.
  Energy threshold   = 1.00e-06
  Density threshold  = 1.00e-10
  Integral threshold = 0.00e+00

  ==> Primary Basis <==

  Basis Set: CC-PVDZ
    Blend: CC-PVDZ
    Number of shells: 60
    Number of basis function: 116
    Number of Cartesian functions: 120
    Spherical Harmonics?: true
    Max angular momentum: 2

  ==> Pre-Iterations <==

   -------------------------------------------------------
    Irrep   Nso     Nmo     Nalpha   Nbeta   Ndocc  Nsocc
   -------------------------------------------------------
     A        116     116       0       0       0       0
   -------------------------------------------------------
    Total     116     116      18      18      18       0
   -------------------------------------------------------

  ==> Integral Setup <==

  Using integral reordering PK algorithm.
  Sizing the integral batches needed.
  Building batch lookup table.
   Calculation information:
      Number of atoms:                  16
      Number of AO shells:              60
      Number of primitives:            148
      Number of atomic orbitals:       120
      Number of basis functions:       116

      Integral cutoff                 1.00e-12
      Number of threads:                 1

	Batch   1 pq = [       0,    6786] index = [             0,23028291] size =     23028291
  Task number: 3
  Buffer size: 11059200
  Buffer per thread: 2
  We computed 1369936 shell quartets total.
  Whereas there are 1675365 unique shell quartets.

  ==> DiskJK: Disk-Based J/K Matrices <==

    J tasked:                  Yes
    K tasked:                  Yes
    wK tasked:                  No
    Memory [MiB]:              375
    Schwarz Cutoff:          1E-12

    OpenMP threads:              1

  Minimum eigenvalue in the overlap matrix is 6.0399240583E-03.
  Using Symmetric Orthogonalization.

  SCF Guess: Superposition of Atomic Densities via on-the-fly atomic UHF.

  ==> Iterations <==

                        Total Energy        Delta E     RMS |[F,P]|

   @RHF iter SAD:  -157.38124958049318   -1.57381e+02   0.00000e+00
   @RHF iter   1:  -158.30454754445392   -9.23298e-01   4.24079e-03 DIIS
   @RHF iter   2:  -158.43953568523551   -1.34988e-01   1.81169e-03 DIIS
   @RHF iter   3:  -158.46332632551994   -2.37906e-02   3.52164e-04 DIIS
   @RHF iter   4:  -158.46518037365917   -1.85405e-03   3.90980e-05 DIIS
   @RHF iter   5:  -158.46520420491669   -2.38313e-05   6.83067e-06 DIIS
   @RHF iter   6:  -158.46520487323497   -6.68318e-07   1.21396e-06 DIIS
   @RHF iter   7:  -158.46520488688532   -1.36504e-08   3.15028e-07 DIIS
   @RHF iter   8:  -158.46520488777628   -8.90964e-10   3.57666e-08 DIIS
   @RHF iter   9:  -158.46520488779427   -1.79909e-11   6.33838e-09 DIIS
   @RHF iter  10:  -158.46520488779470   -4.26326e-13   1.52614e-09 DIIS
   @RHF iter  11:  -158.46520488779453    1.70530e-13   4.82341e-10 DIIS
   @RHF iter  12:  -158.46520488779490   -3.69482e-13   1.25419e-10 DIIS
   @RHF iter  13:  -158.46520488779481    8.52651e-14   1.65954e-11 DIIS
  Energy and wave function converged.

  ==> Post-Iterations <==

    Orbital Energies [Eh]
    ---------------------

    Doubly Occupied:

       1A    -11.218046     2A    -11.217622     3A    -11.215473
       4A    -11.214368     5A     -1.021141     6A     -1.017793
       7A     -0.839156     8A     -0.830366     9A     -0.601232
      10A     -0.599873    11A     -0.596519    12A     -0.594598
      13A     -0.509270    14A     -0.495344    15A     -0.489203
      16A     -0.484390    17A     -0.480180    18A     -0.477928

    Virtual:

      19A      0.178533    20A      0.193462    21A      0.224053
      22A      0.233406    23A      0.245996    24A      0.257610
      25A      0.267403    26A      0.280320    27A      0.282778
      28A      0.285652    29A      0.311640    30A      0.335732
      31A      0.388213    32A      0.408475    33A      0.567263
      34A      0.591372    35A      0.591880    36A      0.605670
      37A      0.609085    38A      0.636699    39A      0.678936
      40A      0.700517    41A      0.709216    42A      0.752501
      43A      0.854879    44A      0.888352    45A      0.889499
      46A      0.893161    47A      0.894467    48A      0.900235
      49A      0.903518    50A      0.913718    51A      0.917711
      52A      0.919905    53A      0.925029    54A      0.941351
      55A      0.956102    56A      0.997822    57A      1.125258
      58A      1.129430    59A      1.133570    60A      1.152154
      61A      1.213672    62A      1.264110    63A      1.467257
      64A      1.477389    65A      1.485569    66A      1.492536
      67A      1.579735    68A      1.591109    69A      1.676799
      70A      1.683515    71A      1.693571    72A      1.695902
      73A      1.849766    74A      1.856751    75A      1.866342
      76A      1.876603    77A      1.896344    78A      1.929005
      79A      1.933944    80A      1.942326    81A      1.945014
      82A      1.950572    83A      1.952403    84A      1.955660
      85A      1.965952    86A      1.977364    87A      2.005443
      88A      2.058783    89A      2.100174    90A      2.103662
      91A      2.120170    92A      2.128914    93A      2.299385
      94A      2.315313    95A      2.321629    96A      2.323059
      97A      2.448262    98A      2.450184    99A      2.467096
     100A      2.481388   101A      2.556823   102A      2.568204
     103A      2.578644   104A      2.583018   105A      2.757450
     106A      2.762542   107A      2.780435   108A      2.791272
     109A      2.845096   110A      2.846999   111A      2.854216
     112A      2.870689   113A      2.947605   114A      2.952528
     115A      2.956852   116A      2.965790

    Final Occupation by Irrep:
              A
    DOCC [    18 ]

  @RHF Final Energy:  -158.46520488779481

   => Energetics <=

    Nuclear Repulsion Energy =            121.0375051049832962
    One-Electron Energy =                -451.2004176923632031
    Two-Electron Energy =                 171.6977076995850666
    Total Energy =                       -158.4652048877948118

Computation Completed

Properties will be evaluated at   0.000000,   0.000000,   0.000000 [a0]

Properties computed using the SCF density matrix

  Nuclear Dipole Moment: [e a0]
     X:     0.1173      Y:    -0.0292      Z:     0.0832

  Electronic Dipole Moment: [e a0]
     X:    -0.1027      Y:     0.0219      Z:    -0.0685

  Dipole Moment: [e a0]
     X:     0.0146      Y:    -0.0073      Z:     0.0147     Total:     0.0220

  Dipole Moment: [D]
     X:     0.0371      Y:    -0.0186      Z:     0.0373     Total:     0.0558

*** tstop() called on ds3 at Tue Apr 28 00:46:01 2020
Module time:
	user time   =       7.24 seconds =       0.12 minutes
	system time =       2.87 seconds =       0.05 minutes
	total time  =         10 seconds =       0.17 minutes
Total time:
	user time   =       7.24 seconds =       0.12 minutes
	system time =       2.87 seconds =       0.05 minutes
	total time  =         10 seconds =       0.17 minutes
                                     G D M A

                                 by Anthony Stone

                           version 2.2.06, 22 June 2011

               Distributed Multipoles from Gaussian wavefunctions

Starting at 0:46:1 on 28 Apr 2020

Using SCF density matrix from file ./SSI/SSI-020ILE-023VAL-1-dimer.test.27592.fchk

                         Distributed Multipole Analysis

Standard DMA

Positions and radii in angstrom
Multipole moments in atomic units, ea_0^k for rank k

C          x =  0.164873  y =  1.656904  z = -0.608363 angstrom
           Maximum rank =  0   Radius =  0.650 angstrom
                   Q00  =  -0.233623

C          x =  0.996873  y =  2.889904  z = -0.928363 angstrom
           Maximum rank =  0   Radius =  0.650 angstrom
                   Q00  =  -0.233491

H          x = -0.853127  y =  1.752904  z = -0.991363 angstrom
           Maximum rank =  0   Radius =  0.325 angstrom
                   Q00  =   0.078014

H          x =  0.634873  y =  0.777904  z = -1.052363 angstrom
           Maximum rank =  0   Radius =  0.325 angstrom
                   Q00  =   0.078308

H          x =  0.123873  y =  1.499904  z =  0.470637 angstrom
           Maximum rank =  0   Radius =  0.325 angstrom
                   Q00  =   0.077657

H          x =  1.931873  y =  2.800904  z = -0.371363 angstrom
           Maximum rank =  0   Radius =  0.325 angstrom
                   Q00  =   0.074948

H          x =  0.500673  y =  3.819026  z = -0.611310 angstrom
           Maximum rank =  0   Radius =  0.325 angstrom
                   Q00  =   0.079974

H          x =  1.249763  y =  2.933823  z = -1.997999 angstrom
           Maximum rank =  0   Radius =  0.325 angstrom
                   Q00  =   0.078779

C          x = -0.177127  y = -1.649096  z =  0.620637 angstrom
           Maximum rank =  0   Radius =  0.650 angstrom
                   Q00  =  -0.245719

C          x = -0.995127  y = -2.895096  z =  0.908637 angstrom
           Maximum rank =  0   Radius =  0.650 angstrom
                   Q00  =  -0.219690

H          x = -0.512127  y = -0.825096  z =  1.249637 angstrom
           Maximum rank =  0   Radius =  0.325 angstrom
                   Q00  =   0.077857

H          x =  0.873873  y = -1.839096  z =  0.841637 angstrom
           Maximum rank =  0   Radius =  0.325 angstrom
                   Q00  =   0.076441

H          x = -0.278127  y = -1.373096  z = -0.428363 angstrom
           Maximum rank =  0   Radius =  0.325 angstrom
                   Q00  =   0.077346

H          x = -0.917127  y = -3.107096  z =  1.974637 angstrom
           Maximum rank =  0   Radius =  0.325 angstrom
                   Q00  =   0.076300

H          x = -2.050067  y = -2.721416  z =  0.649906 angstrom
           Maximum rank =  0   Radius =  0.325 angstrom
                   Q00  =   0.078811

H          x = -0.579227  y = -3.749836  z =  0.355062 angstrom
           Maximum rank =  0   Radius =  0.325 angstrom
                   Q00  =   0.078088

Total multipoles referred to origin at
           x =   0.000000,  y =    0.000000,  z =    0.000000 angstrom
                   Q00  =  -0.000000

Finished at 0:46:1 on 28 Apr 2020

  DMA results are available in the Python driver through the
	  variable('DMA DISTRIBUTED MULTIPOLES')
  and
	  variable('DMA TOTAL MULTIPOLES')
  commands.

    Psi4 stopped on: Tuesday, 28 April 2020 12:46AM
    Psi4 wall time for execution: 0:00:10.74

*** Psi4 exiting successfully. Buy a developer a beer!
