                               Psi4 1.3.2 release

  ==> Input File <==

--------------------------------------------------------------------------
import numpy as np
set {scf_type pk
basis cc-pvdz
d_convergence 10
gdma_switch   0
gdma_limit    0
gdma_origin   [ 0.0,  0.0,  0.0 ]
}
molecule test {
    units Angstrom
    0 1
    --
    0 1
    C               -0.889094887610087     0.677613860777324    -2.071915282223789
    C               -1.483094887610087     0.130613860777324    -3.369915282223789
    C               -1.733094887610087     0.494613860777324    -0.817915282223788
    C               -1.788094887610087     1.498613860777324     0.148084717776212
    C               -2.436094887610087    -0.685386139222676    -0.595915282223788
    C               -2.541094887610087     1.345613860777324     1.304084717776212
    C               -3.185094887610087    -0.854386139222676     0.565084717776212
    C               -3.231094887610087     0.163613860777324     1.516084717776212
    O               -3.967094887610087     0.005613860777324     2.652084717776212
    H                0.073905112389913     0.194613860777324    -1.908915282223788
    H               -0.703094887610087     1.735613860777323    -2.207915282223789
    H               -1.598094887610087    -0.948386139222676    -3.262915282223788
    H               -1.242094887610087     2.414613860777324    -0.008915282223788
    H               -2.393094887610087    -1.496386139222676    -1.306915282223788
    H               -2.576094887610087     2.139613860777323     2.038084717776211
    H               -3.736094887610087    -1.767386139222676     0.734084717776212
    H               -3.917094887610087     0.778613860777324     3.226084717776212
    H               -0.807525887610087     0.354293860777324    -4.208705282223788
    H               -2.470361887610087     0.579173860777324    -3.554575282223789
    C                5.392905112389912     0.557613860777324    -0.016915282223788
    C                1.454905112389913    -1.134386139222676     0.165084717776212
    C                1.651905112389913     0.202613860777324     0.478084717776212
    C                2.537905112389913    -1.927386139222677    -0.197915282223788
    C                2.930905112389913     0.752613860777324     0.407084717776212
    C                3.813905112389913    -1.380386139222676    -0.245915282223788
    C                4.015905112389913    -0.033386139222676     0.030084717776212
    H                0.460905112389913    -1.560386139222676     0.212084717776212
    H                0.814905112389913     0.817613860777324     0.777084717776212
    H                2.391905112389913    -2.973386139222677    -0.431915282223788
    H                3.076905112389913     1.796613860777324     0.647084717776212
    H                4.653905112389912    -2.008386139222676    -0.497915282223788
    H                5.322905112389912     1.562613860777323    -0.433915282223788
    H                6.014905112389912    -0.030386139222676    -0.691915282223788
    H                5.875415112389913     0.605863860777324     0.970434717776212

}
e, wfn = energy('scf', return_wfn=True)
gdma(wfn)
dmavals = variable('DMA DISTRIBUTED MULTIPOLES')
charges = np.array(dmavals)
print(charges)
np.save('SSI-064TYR-164PHE-1-dimer.npy', np.array(charges))--------------------------------------------------------------------------

*** tstart() called on ds3
*** at Mon Apr 27 23:41:28 2020

   => Loading Basis Set <=

    Name: CC-PVDZ
    Role: ORBITAL
    Keyword: BASIS
    atoms 1-8, 20-26   entry C          line   138 file /theoryfs2/ds/metcalf/miniconda2/envs/tf2gpu/share/psi4/basis/cc-pvdz.gbs
    atoms 9            entry O          line   198 file /theoryfs2/ds/metcalf/miniconda2/envs/tf2gpu/share/psi4/basis/cc-pvdz.gbs
    atoms 10-19, 27-34 entry H          line    22 file /theoryfs2/ds/metcalf/miniconda2/envs/tf2gpu/share/psi4/basis/cc-pvdz.gbs

         ---------------------------------------------------------
                                   SCF
               by Justin Turney, Rob Parrish, Andy Simmonett
                          and Daniel G. A. Smith
                              RHF Reference
                        1 Threads,    500 MiB Core
         ---------------------------------------------------------

  ==> Geometry <==

    Molecular point group: c1
    Full point group: C1

    Geometry (in Angstrom), charge = 0, multiplicity = 1:

       Center              X                  Y                   Z               Mass
    ------------   -----------------  -----------------  -----------------  -----------------
         C           -0.889094887610     0.677613860777    -2.071915282224    12.000000000000
         C           -1.483094887610     0.130613860777    -3.369915282224    12.000000000000
         C           -1.733094887610     0.494613860777    -0.817915282224    12.000000000000
         C           -1.788094887610     1.498613860777     0.148084717776    12.000000000000
         C           -2.436094887610    -0.685386139223    -0.595915282224    12.000000000000
         C           -2.541094887610     1.345613860777     1.304084717776    12.000000000000
         C           -3.185094887610    -0.854386139223     0.565084717776    12.000000000000
         C           -3.231094887610     0.163613860777     1.516084717776    12.000000000000
         O           -3.967094887610     0.005613860777     2.652084717776    15.994914619570
         H            0.073905112390     0.194613860777    -1.908915282224     1.007825032230
         H           -0.703094887610     1.735613860777    -2.207915282224     1.007825032230
         H           -1.598094887610    -0.948386139223    -3.262915282224     1.007825032230
         H           -1.242094887610     2.414613860777    -0.008915282224     1.007825032230
         H           -2.393094887610    -1.496386139223    -1.306915282224     1.007825032230
         H           -2.576094887610     2.139613860777     2.038084717776     1.007825032230
         H           -3.736094887610    -1.767386139223     0.734084717776     1.007825032230
         H           -3.917094887610     0.778613860777     3.226084717776     1.007825032230
         H           -0.807525887610     0.354293860777    -4.208705282224     1.007825032230
         H           -2.470361887610     0.579173860777    -3.554575282224     1.007825032230
         C            5.392905112390     0.557613860777    -0.016915282224    12.000000000000
         C            1.454905112390    -1.134386139223     0.165084717776    12.000000000000
         C            1.651905112390     0.202613860777     0.478084717776    12.000000000000
         C            2.537905112390    -1.927386139223    -0.197915282224    12.000000000000
         C            2.930905112390     0.752613860777     0.407084717776    12.000000000000
         C            3.813905112390    -1.380386139223    -0.245915282224    12.000000000000
         C            4.015905112390    -0.033386139223     0.030084717776    12.000000000000
         H            0.460905112390    -1.560386139223     0.212084717776     1.007825032230
         H            0.814905112390     0.817613860777     0.777084717776     1.007825032230
         H            2.391905112390    -2.973386139223    -0.431915282224     1.007825032230
         H            3.076905112390     1.796613860777     0.647084717776     1.007825032230
         H            4.653905112390    -2.008386139223    -0.497915282224     1.007825032230
         H            5.322905112390     1.562613860777    -0.433915282224     1.007825032230
         H            6.014905112390    -0.030386139223    -0.691915282224     1.007825032230
         H            5.875415112390     0.605863860777     0.970434717776     1.007825032230

  Running in c1 symmetry.

  Rotational constants: A =      0.02709  B =      0.00791  C =      0.00716 [cm^-1]
  Rotational constants: A =    812.24297  B =    237.02975  C =    214.60870 [MHz]
  Nuclear repulsion =  993.816067358528244

  Charge       = 0
  Multiplicity = 1
  Electrons    = 116
  Nalpha       = 58
  Nbeta        = 58

  ==> Algorithm <==

  SCF Algorithm Type is PK.
  DIIS enabled.
  MOM disabled.
  Fractional occupation disabled.
  Guess Type is SAD.
  Energy threshold   = 1.00e-06
  Density threshold  = 1.00e-10
  Integral threshold = 0.00e+00

  ==> Primary Basis <==

  Basis Set: CC-PVDZ
    Blend: CC-PVDZ
    Number of shells: 150
    Number of basis function: 314
    Number of Cartesian functions: 330
    Spherical Harmonics?: true
    Max angular momentum: 2

  ==> Pre-Iterations <==

   -------------------------------------------------------
    Irrep   Nso     Nmo     Nalpha   Nbeta   Ndocc  Nsocc
   -------------------------------------------------------
     A        314     314       0       0       0       0
   -------------------------------------------------------
    Total     314     314      58      58      58       0
   -------------------------------------------------------

  ==> Integral Setup <==

  Using integral reordering PK algorithm.
  Sizing the integral batches needed.
  Building batch lookup table.
   Calculation information:
      Number of atoms:                  34
      Number of AO shells:             150
      Number of primitives:            442
      Number of atomic orbitals:       330
      Number of basis functions:       314

      Integral cutoff                 1.00e-12
      Number of threads:                 1

	Batch   1 pq = [       0,    9405] index = [             0,44231715] size =     44231715
	Batch   2 pq = [    9405,   13301] index = [      44231715,88464951] size =     44233236
	Batch   3 pq = [   13301,   16290] index = [      88464951,132690195] size =     44225244
	Batch   4 pq = [   16290,   18810] index = [     132690195,176917455] size =     44227260
	Batch   5 pq = [   18810,   21030] index = [     176917455,221140965] size =     44223510
	Batch   6 pq = [   21030,   23037] index = [     221140965,265363203] size =     44222238
	Batch   7 pq = [   23037,   24883] index = [     265363203,309594286] size =     44231083
	Batch   8 pq = [   24883,   26601] index = [     309594286,353819901] size =     44225615
	Batch   9 pq = [   26601,   28214] index = [     353819901,398029005] size =     44209104
	Batch  10 pq = [   28214,   29740] index = [     398029005,442248670] size =     44219665
	Batch  11 pq = [   29740,   31191] index = [     442248670,486454836] size =     44206166
	Batch  12 pq = [   31191,   32578] index = [     486454836,530679331] size =     44224495
	Batch  13 pq = [   32578,   33908] index = [     530679331,574893186] size =     44213855
	Batch  14 pq = [   33908,   35188] index = [     574893186,619115266] size =     44222080
	Batch  15 pq = [   35188,   36423] index = [     619115266,663335676] size =     44220410
	Batch  16 pq = [   36423,   37617] index = [     663335676,707538153] size =     44202477
	Batch  17 pq = [   37617,   38775] index = [     707538153,751769700] size =     44231547
	Batch  18 pq = [   38775,   39899] index = [     751769700,795985050] size =     44215350
	Batch  19 pq = [   39899,   40992] index = [     795985050,840192528] size =     44207478
	Batch  20 pq = [   40992,   42057] index = [     840192528,884416653] size =     44224125
	Batch  21 pq = [   42057,   43095] index = [     884416653,928611060] size =     44194407
	Batch  22 pq = [   43095,   44109] index = [     928611060,972823995] size =     44212935
	Batch  23 pq = [   44109,   45100] index = [     972823995,1017027550] size =     44203555
	Batch  24 pq = [   45100,   46070] index = [    1017027550,1061245485] size =     44217935
	Batch  25 pq = [   46070,   47020] index = [    1061245485,1105463710] size =     44218225
	Batch  26 pq = [   47020,   47951] index = [    1105463710,1149673176] size =     44209466
	Batch  27 pq = [   47951,   48864] index = [    1149673176,1193869680] size =     44196504
	Batch  28 pq = [   48864,   49455] index = [    1193869680,1222923240] size =     29053560
  Task number: 111
  Buffer size: 11059200
  Buffer per thread: 2
  We computed 64394603 shell quartets total.
  Whereas there are 64133475 unique shell quartets.
     0.41 percent of shell quartets recomputed by reordering.

  ==> DiskJK: Disk-Based J/K Matrices <==

    J tasked:                  Yes
    K tasked:                  Yes
    wK tasked:                  No
    Memory [MiB]:              375
    Schwarz Cutoff:          1E-12

    OpenMP threads:              1

  Minimum eigenvalue in the overlap matrix is 2.9651389701E-04.
  Using Symmetric Orthogonalization.

  SCF Guess: Superposition of Atomic Densities via on-the-fly atomic UHF.

  ==> Iterations <==

                        Total Energy        Delta E     RMS |[F,P]|

   @RHF iter SAD:  -652.29403511381940   -6.52294e+02   0.00000e+00
   @RHF iter   1:  -653.06818496371341   -7.74150e-01   2.28201e-03 DIIS
   @RHF iter   2:  -653.36790240345056   -2.99717e-01   9.43740e-04 DIIS
   @RHF iter   3:  -653.41306363206047   -4.51612e-02   2.26142e-04 DIIS
   @RHF iter   4:  -653.41699304076133   -3.92941e-03   8.84687e-05 DIIS
   @RHF iter   5:  -653.41744013258653   -4.47092e-04   1.67105e-05 DIIS
   @RHF iter   6:  -653.41746331905995   -2.31865e-05   5.27584e-06 DIIS
   @RHF iter   7:  -653.41746557673764   -2.25768e-06   1.62452e-06 DIIS
   @RHF iter   8:  -653.41746586746342   -2.90726e-07   6.32611e-07 DIIS
   @RHF iter   9:  -653.41746591357901   -4.61156e-08   2.33794e-07 DIIS
   @RHF iter  10:  -653.41746592151821   -7.93921e-09   9.12239e-08 DIIS
   @RHF iter  11:  -653.41746592353570   -2.01749e-09   4.31348e-08 DIIS
   @RHF iter  12:  -653.41746592403729   -5.01586e-10   2.20263e-08 DIIS
   @RHF iter  13:  -653.41746592416155   -1.24260e-10   6.72355e-09 DIIS
   @RHF iter  14:  -653.41746592416689   -5.34328e-12   2.02097e-09 DIIS
   @RHF iter  15:  -653.41746592416348    3.41061e-12   5.97573e-10 DIIS
   @RHF iter  16:  -653.41746592416337    1.13687e-13   2.82777e-10 DIIS
   @RHF iter  17:  -653.41746592416177    1.59162e-12   1.31082e-10 DIIS
   @RHF iter  18:  -653.41746592416757   -5.79803e-12   6.03677e-11 DIIS
  Energy and wave function converged.

  ==> Post-Iterations <==

    Orbital Energies [Eh]
    ---------------------

    Doubly Occupied:

       1A    -20.582968     2A    -11.299632     3A    -11.238778
       4A    -11.238119     5A    -11.236130     6A    -11.233582
       7A    -11.231910     8A    -11.231609     9A    -11.231578
      10A    -11.229524    11A    -11.226907    12A    -11.226654
      13A    -11.226141    14A    -11.225266    15A    -11.222648
      16A    -11.220803    17A     -1.399771    18A     -1.153987
      19A     -1.150746    20A     -1.055733    21A     -1.042668
      22A     -1.020556    23A     -1.008619    24A     -0.976890
      25A     -0.928701    26A     -0.865346    27A     -0.837480
      28A     -0.822124    29A     -0.793644    30A     -0.791919
      31A     -0.733505    32A     -0.687851    33A     -0.665931
      34A     -0.646756    35A     -0.629096    36A     -0.626468
      37A     -0.617238    38A     -0.604807    39A     -0.589992
      40A     -0.583780    41A     -0.579162    42A     -0.576259
      43A     -0.559623    44A     -0.558366    45A     -0.551571
      46A     -0.532717    47A     -0.511711    48A     -0.501033
      49A     -0.485173    50A     -0.481041    51A     -0.478564
      52A     -0.475690    53A     -0.472039    54A     -0.462415
      55A     -0.340900    56A     -0.329039    57A     -0.318704
      58A     -0.302180

    Virtual:

      59A      0.126471    60A      0.138809    61A      0.145378
      62A      0.153803    63A      0.177435    64A      0.183241
      65A      0.193818    66A      0.204561    67A      0.211419
      68A      0.215396    69A      0.232957    70A      0.250832
      71A      0.252563    72A      0.258317    73A      0.263810
      74A      0.269320    75A      0.272609    76A      0.290028
      77A      0.293870    78A      0.297296    79A      0.314574
      80A      0.333920    81A      0.361931    82A      0.369606
      83A      0.380460    84A      0.389674    85A      0.405827
      86A      0.429184    87A      0.457386    88A      0.461591
      89A      0.469463    90A      0.481499    91A      0.489683
      92A      0.493450    93A      0.503238    94A      0.519775
      95A      0.560371    96A      0.597345    97A      0.602791
      98A      0.614346    99A      0.626355   100A      0.640191
     101A      0.647073   102A      0.669114   103A      0.675387
     104A      0.681648   105A      0.684907   106A      0.697790
     107A      0.703919   108A      0.716046   109A      0.721315
     110A      0.725757   111A      0.734253   112A      0.738575
     113A      0.742823   114A      0.746125   115A      0.752546
     116A      0.755929   117A      0.763242   118A      0.769293
     119A      0.778502   120A      0.781523   121A      0.794403
     122A      0.818091   123A      0.823355   124A      0.832101
     125A      0.850281   126A      0.855481   127A      0.862200
     128A      0.872092   129A      0.874140   130A      0.878701
     131A      0.881367   132A      0.887739   133A      0.891519
     134A      0.895712   135A      0.902358   136A      0.908035
     137A      0.923040   138A      0.927184   139A      0.929178
     140A      0.931442   141A      0.936664   142A      0.941039
     143A      0.946716   144A      0.953042   145A      0.977828
     146A      0.987219   147A      0.992669   148A      1.002320
     149A      1.017325   150A      1.030703   151A      1.043912
     152A      1.058202   153A      1.074157   154A      1.098716
     155A      1.110251   156A      1.137182   157A      1.146748
     158A      1.152181   159A      1.160049   160A      1.172335
     161A      1.181424   162A      1.194682   163A      1.206117
     164A      1.218569   165A      1.237033   166A      1.237975
     167A      1.249021   168A      1.259902   169A      1.268139
     170A      1.270828   171A      1.275742   172A      1.285344
     173A      1.297285   174A      1.306175   175A      1.308307
     176A      1.321070   177A      1.330853   178A      1.338700
     179A      1.347056   180A      1.350059   181A      1.363422
     182A      1.372049   183A      1.417310   184A      1.436421
     185A      1.475097   186A      1.499102   187A      1.507806
     188A      1.524188   189A      1.529120   190A      1.558530
     191A      1.567583   192A      1.576838   193A      1.609166
     194A      1.621606   195A      1.627313   196A      1.670587
     197A      1.681279   198A      1.697249   199A      1.703066
     200A      1.737443   201A      1.739505   202A      1.751713
     203A      1.755085   204A      1.774062   205A      1.782193
     206A      1.794164   207A      1.797506   208A      1.807041
     209A      1.819071   210A      1.828072   211A      1.861132
     212A      1.876099   213A      1.884515   214A      1.890137
     215A      1.898302   216A      1.900137   217A      1.906205
     218A      1.908531   219A      1.918409   220A      1.922803
     221A      1.930454   222A      1.937960   223A      1.938701
     224A      1.946621   225A      1.949564   226A      1.960060
     227A      1.961283   228A      1.971212   229A      1.985500
     230A      1.992215   231A      2.006536   232A      2.011232
     233A      2.020350   234A      2.028811   235A      2.038946
     236A      2.054872   237A      2.063630   238A      2.070087
     239A      2.072590   240A      2.075417   241A      2.088426
     242A      2.092145   243A      2.115011   244A      2.116408
     245A      2.127389   246A      2.146928   247A      2.155441
     248A      2.164336   249A      2.175359   250A      2.184833
     251A      2.189686   252A      2.209777   253A      2.223464
     254A      2.233002   255A      2.255621   256A      2.267244
     257A      2.270845   258A      2.288640   259A      2.297920
     260A      2.305351   261A      2.307968   262A      2.320810
     263A      2.324798   264A      2.333332   265A      2.365910
     266A      2.373578   267A      2.412092   268A      2.453763
     269A      2.471486   270A      2.471930   271A      2.479643
     272A      2.481776   273A      2.503559   274A      2.520636
     275A      2.544635   276A      2.551431   277A      2.555535
     278A      2.609015   279A      2.632073   280A      2.643241
     281A      2.655071   282A      2.746122   283A      2.749932
     284A      2.764367   285A      2.770381   286A      2.773129
     287A      2.786621   288A      2.799125   289A      2.813748
     290A      2.821663   291A      2.851049   292A      2.857774
     293A      2.883031   294A      2.888609   295A      2.941270
     296A      2.965293   297A      2.980568   298A      2.991624
     299A      3.027277   300A      3.028931   301A      3.052577
     302A      3.101410   303A      3.162499   304A      3.164112
     305A      3.213654   306A      3.249529   307A      3.289074
     308A      3.312442   309A      3.346676   310A      3.576429
     311A      3.674175   312A      3.981840   313A      3.984669
     314A      4.190266

    Final Occupation by Irrep:
              A
    DOCC [    58 ]

  @RHF Final Energy:  -653.41746592416757

   => Energetics <=

    Nuclear Repulsion Energy =            993.8160673585282439
    One-Electron Energy =               -2858.7629756376181831
    Two-Electron Energy =                1211.5294423549223666
    Total Energy =                       -653.4174659241675727

Computation Completed

Properties will be evaluated at   0.000000,   0.000000,   0.000000 [a0]

Properties computed using the SCF density matrix

  Nuclear Dipole Moment: [e a0]
     X:     8.6451      Y:     2.0573      Z:    -9.2772

  Electronic Dipole Moment: [e a0]
     X:    -8.3301      Y:    -1.5125      Z:     9.3097

  Dipole Moment: [e a0]
     X:     0.3151      Y:     0.5448      Z:     0.0325     Total:     0.6302

  Dipole Moment: [D]
     X:     0.8008      Y:     1.3848      Z:     0.0826     Total:     1.6018

*** tstop() called on ds3 at Mon Apr 27 23:55:31 2020
Module time:
	user time   =     645.23 seconds =      10.75 minutes
	system time =     196.91 seconds =       3.28 minutes
	total time  =        843 seconds =      14.05 minutes
Total time:
	user time   =     645.23 seconds =      10.75 minutes
	system time =     196.91 seconds =       3.28 minutes
	total time  =        843 seconds =      14.05 minutes
                                     G D M A

                                 by Anthony Stone

                           version 2.2.06, 22 June 2011

               Distributed Multipoles from Gaussian wavefunctions

Starting at 23:55:31 on 27 Apr 2020

Using SCF density matrix from file ./SSI/SSI-064TYR-164PHE-1-dimer.test.3720.fchk

                         Distributed Multipole Analysis

Standard DMA

Positions and radii in angstrom
Multipole moments in atomic units, ea_0^k for rank k

C          x = -0.889095  y =  0.677614  z = -2.071915 angstrom
           Maximum rank =  0   Radius =  0.650 angstrom
                   Q00  =  -0.042024

C          x = -1.483095  y =  0.130614  z = -3.369915 angstrom
           Maximum rank =  0   Radius =  0.650 angstrom
                   Q00  =  -0.237437

C          x = -1.733095  y =  0.494614  z = -0.817915 angstrom
           Maximum rank =  0   Radius =  0.650 angstrom
                   Q00  =  -0.143289

C          x = -1.788095  y =  1.498614  z =  0.148085 angstrom
           Maximum rank =  0   Radius =  0.650 angstrom
                   Q00  =   0.053098

C          x = -2.436095  y = -0.685386  z = -0.595915 angstrom
           Maximum rank =  0   Radius =  0.650 angstrom
                   Q00  =  -0.079767

C          x = -2.541095  y =  1.345614  z =  1.304085 angstrom
           Maximum rank =  0   Radius =  0.650 angstrom
                   Q00  =  -0.178906

C          x = -3.185095  y = -0.854386  z =  0.565085 angstrom
           Maximum rank =  0   Radius =  0.650 angstrom
                   Q00  =  -0.089077

C          x = -3.231095  y =  0.163614  z =  1.516085 angstrom
           Maximum rank =  0   Radius =  0.650 angstrom
                   Q00  =   0.310108

O          x = -3.967095  y =  0.005614  z =  2.652085 angstrom
           Maximum rank =  0   Radius =  0.650 angstrom
                   Q00  =  -0.677357

H          x =  0.073905  y =  0.194614  z = -1.908915 angstrom
           Maximum rank =  0   Radius =  0.325 angstrom
                   Q00  =   0.087306

H          x = -0.703095  y =  1.735614  z = -2.207915 angstrom
           Maximum rank =  0   Radius =  0.325 angstrom
                   Q00  =   0.059095

H          x = -1.598095  y = -0.948386  z = -3.262915 angstrom
           Maximum rank =  0   Radius =  0.325 angstrom
                   Q00  =   0.077911

H          x = -1.242095  y =  2.414614  z = -0.008915 angstrom
           Maximum rank =  0   Radius =  0.325 angstrom
                   Q00  =   0.069629

H          x = -2.393095  y = -1.496386  z = -1.306915 angstrom
           Maximum rank =  0   Radius =  0.325 angstrom
                   Q00  =   0.064173

H          x = -2.576095  y =  2.139614  z =  2.038085 angstrom
           Maximum rank =  0   Radius =  0.325 angstrom
                   Q00  =   0.071350

H          x = -3.736095  y = -1.767386  z =  0.734085 angstrom
           Maximum rank =  0   Radius =  0.325 angstrom
                   Q00  =   0.080980

H          x = -3.917095  y =  0.778614  z =  3.226085 angstrom
           Maximum rank =  0   Radius =  0.325 angstrom
                   Q00  =   0.406977

H          x = -0.807526  y =  0.354294  z = -4.208705 angstrom
           Maximum rank =  0   Radius =  0.325 angstrom
                   Q00  =   0.091478

H          x = -2.470362  y =  0.579174  z = -3.554575 angstrom
           Maximum rank =  0   Radius =  0.325 angstrom
                   Q00  =   0.079239

C          x =  5.392905  y =  0.557614  z = -0.016915 angstrom
           Maximum rank =  0   Radius =  0.650 angstrom
                   Q00  =  -0.197787

C          x =  1.454905  y = -1.134386  z =  0.165085 angstrom
           Maximum rank =  0   Radius =  0.650 angstrom
                   Q00  =  -0.102588

C          x =  1.651905  y =  0.202614  z =  0.478085 angstrom
           Maximum rank =  0   Radius =  0.650 angstrom
                   Q00  =  -0.064357

C          x =  2.537905  y = -1.927386  z = -0.197915 angstrom
           Maximum rank =  0   Radius =  0.650 angstrom
                   Q00  =  -0.070330

C          x =  2.930905  y =  0.752614  z =  0.407085 angstrom
           Maximum rank =  0   Radius =  0.650 angstrom
                   Q00  =  -0.062124

C          x =  3.813905  y = -1.380386  z = -0.245915 angstrom
           Maximum rank =  0   Radius =  0.650 angstrom
                   Q00  =  -0.008738

C          x =  4.015905  y = -0.033386  z =  0.030085 angstrom
           Maximum rank =  0   Radius =  0.650 angstrom
                   Q00  =  -0.099501

H          x =  0.460905  y = -1.560386  z =  0.212085 angstrom
           Maximum rank =  0   Radius =  0.325 angstrom
                   Q00  =   0.066850

H          x =  0.814905  y =  0.817614  z =  0.777085 angstrom
           Maximum rank =  0   Radius =  0.325 angstrom
                   Q00  =   0.069845

H          x =  2.391905  y = -2.973386  z = -0.431915 angstrom
           Maximum rank =  0   Radius =  0.325 angstrom
                   Q00  =   0.062094

H          x =  3.076905  y =  1.796614  z =  0.647085 angstrom
           Maximum rank =  0   Radius =  0.325 angstrom
                   Q00  =   0.050928

H          x =  4.653905  y = -2.008386  z = -0.497915 angstrom
           Maximum rank =  0   Radius =  0.325 angstrom
                   Q00  =   0.054667

H          x =  5.322905  y =  1.562614  z = -0.433915 angstrom
           Maximum rank =  0   Radius =  0.325 angstrom
                   Q00  =   0.096690

H          x =  6.014905  y = -0.030386  z = -0.691915 angstrom
           Maximum rank =  0   Radius =  0.325 angstrom
                   Q00  =   0.096527

H          x =  5.875415  y =  0.605864  z =  0.970435 angstrom
           Maximum rank =  0   Radius =  0.325 angstrom
                   Q00  =   0.104339

Total multipoles referred to origin at
           x =   0.000000,  y =    0.000000,  z =    0.000000 angstrom
                   Q00  =  -0.000000

Finished at 23:55:31 on 27 Apr 2020

  DMA results are available in the Python driver through the
	  variable('DMA DISTRIBUTED MULTIPOLES')
  and
	  variable('DMA TOTAL MULTIPOLES')
  commands.

    Psi4 stopped on: Monday, 27 April 2020 11:55PM
    Psi4 wall time for execution: 0:14:03.08

*** Psi4 exiting successfully. Buy a developer a beer!
