                               Psi4 1.3.2 release

  ==> Input File <==

--------------------------------------------------------------------------
import numpy as np
set {scf_type pk
basis cc-pvdz
d_convergence 10
gdma_switch   0
gdma_limit    0
gdma_origin   [ 0.0,  0.0,  0.0 ]
}
molecule test {
    units Angstrom
    0 1
    --
    0 1
    C                1.877749200722291     2.332804105971162    -1.298816810554301
    C                2.073749200722291     1.028804105971161    -2.100816810554301
    H                2.721749200722290     3.004804105971161    -1.454816810554301
    H                0.965749200722291     2.830804105971161    -1.627816810554301
    H                1.795749200722291     2.102804105971161    -0.235816810554301
    H                1.191749200722291     0.401804105971161    -1.950816810554301
    H                2.960049200722291     0.478534105971161    -1.752006810554301
    H                2.155229200722291     1.242964105971161    -3.176686810554301
    C               -1.479250799277709     1.338804105971161     0.328183189445699
    C               -1.955250799277709     1.792804105971161     1.713183189445699
    C               -0.784250799277709     0.001804105971161     0.311183189445699
    C                0.400749200722291    -0.195195894028839     1.023183189445699
    C               -1.295250799277709    -1.041195894028839    -0.453816810554301
    C                1.043749200722291    -1.428195894028839     0.989183189445699
    C               -0.653250799277709    -2.276195894028838    -0.480816810554301
    C                0.511749200722291    -2.467195894028839     0.240183189445699
    H               -2.324250799277710     1.333804105971161    -0.362816810554301
    H               -0.764250799277709     2.070804105971161    -0.046816810554301
    H               -1.201250799277709     1.535804105971161     2.458183189445699
    H                0.830749200722291     0.614804105971161     1.596183189445699
    H               -2.194250799277710    -0.896195894028839    -1.033816810554301
    H                1.968749200722291    -1.565195894028839     1.518183189445699
    H               -1.059250799277709    -3.088195894028839    -1.065816810554301
    H                1.010749200722290    -3.426195894028839     0.208183189445699
    H               -2.917770799277709     1.340564105971161     1.994323189445699
    H               -2.049580799277710     2.888734105971162     1.707423189445699

}
e, wfn = energy('scf', return_wfn=True)
gdma(wfn)
dmavals = variable('DMA DISTRIBUTED MULTIPOLES')
charges = np.array(dmavals)
print(charges)
np.save('SSI-039ALA-095PHE-1-dimer.npy', np.array(charges))--------------------------------------------------------------------------

*** tstart() called on ds3
*** at Tue Apr 28 03:32:03 2020

   => Loading Basis Set <=

    Name: CC-PVDZ
    Role: ORBITAL
    Keyword: BASIS
    atoms 1-2, 9-16  entry C          line   138 file /theoryfs2/ds/metcalf/miniconda2/envs/tf2gpu/share/psi4/basis/cc-pvdz.gbs
    atoms 3-8, 17-26 entry H          line    22 file /theoryfs2/ds/metcalf/miniconda2/envs/tf2gpu/share/psi4/basis/cc-pvdz.gbs

         ---------------------------------------------------------
                                   SCF
               by Justin Turney, Rob Parrish, Andy Simmonett
                          and Daniel G. A. Smith
                              RHF Reference
                        1 Threads,    500 MiB Core
         ---------------------------------------------------------

  ==> Geometry <==

    Molecular point group: c1
    Full point group: C1

    Geometry (in Angstrom), charge = 0, multiplicity = 1:

       Center              X                  Y                   Z               Mass
    ------------   -----------------  -----------------  -----------------  -----------------
         C            1.877749200722     2.332804105971    -1.298816810554    12.000000000000
         C            2.073749200722     1.028804105971    -2.100816810554    12.000000000000
         H            2.721749200722     3.004804105971    -1.454816810554     1.007825032230
         H            0.965749200722     2.830804105971    -1.627816810554     1.007825032230
         H            1.795749200722     2.102804105971    -0.235816810554     1.007825032230
         H            1.191749200722     0.401804105971    -1.950816810554     1.007825032230
         H            2.960049200722     0.478534105971    -1.752006810554     1.007825032230
         H            2.155229200722     1.242964105971    -3.176686810554     1.007825032230
         C           -1.479250799278     1.338804105971     0.328183189446    12.000000000000
         C           -1.955250799278     1.792804105971     1.713183189446    12.000000000000
         C           -0.784250799278     0.001804105971     0.311183189446    12.000000000000
         C            0.400749200722    -0.195195894029     1.023183189446    12.000000000000
         C           -1.295250799278    -1.041195894029    -0.453816810554    12.000000000000
         C            1.043749200722    -1.428195894029     0.989183189446    12.000000000000
         C           -0.653250799278    -2.276195894029    -0.480816810554    12.000000000000
         C            0.511749200722    -2.467195894029     0.240183189446    12.000000000000
         H           -2.324250799278     1.333804105971    -0.362816810554     1.007825032230
         H           -0.764250799278     2.070804105971    -0.046816810554     1.007825032230
         H           -1.201250799278     1.535804105971     2.458183189446     1.007825032230
         H            0.830749200722     0.614804105971     1.596183189446     1.007825032230
         H           -2.194250799278    -0.896195894029    -1.033816810554     1.007825032230
         H            1.968749200722    -1.565195894029     1.518183189446     1.007825032230
         H           -1.059250799278    -3.088195894029    -1.065816810554     1.007825032230
         H            1.010749200722    -3.426195894029     0.208183189446     1.007825032230
         H           -2.917770799278     1.340564105971     1.994323189446     1.007825032230
         H           -2.049580799278     2.888734105971     1.707423189446     1.007825032230

  Running in c1 symmetry.

  Rotational constants: A =      0.03865  B =      0.03395  C =      0.02272 [cm^-1]
  Rotational constants: A =   1158.69579  B =   1017.66205  C =    681.09217 [MHz]
  Nuclear repulsion =  507.308503210277422

  Charge       = 0
  Multiplicity = 1
  Electrons    = 76
  Nalpha       = 38
  Nbeta        = 38

  ==> Algorithm <==

  SCF Algorithm Type is PK.
  DIIS enabled.
  MOM disabled.
  Fractional occupation disabled.
  Guess Type is SAD.
  Energy threshold   = 1.00e-06
  Density threshold  = 1.00e-10
  Integral threshold = 0.00e+00

  ==> Primary Basis <==

  Basis Set: CC-PVDZ
    Blend: CC-PVDZ
    Number of shells: 108
    Number of basis function: 220
    Number of Cartesian functions: 230
    Spherical Harmonics?: true
    Max angular momentum: 2

  ==> Pre-Iterations <==

   -------------------------------------------------------
    Irrep   Nso     Nmo     Nalpha   Nbeta   Ndocc  Nsocc
   -------------------------------------------------------
     A        220     220       0       0       0       0
   -------------------------------------------------------
    Total     220     220      38      38      38       0
   -------------------------------------------------------

  ==> Integral Setup <==

  Using integral reordering PK algorithm.
  Sizing the integral batches needed.
  Building batch lookup table.
   Calculation information:
      Number of atoms:                  26
      Number of AO shells:             108
      Number of primitives:            300
      Number of atomic orbitals:       230
      Number of basis functions:       220

      Integral cutoff                 1.00e-12
      Number of threads:                 1

	Batch   1 pq = [       0,    9405] index = [             0,44231715] size =     44231715
	Batch   2 pq = [    9405,   13301] index = [      44231715,88464951] size =     44233236
	Batch   3 pq = [   13301,   16290] index = [      88464951,132690195] size =     44225244
	Batch   4 pq = [   16290,   18810] index = [     132690195,176917455] size =     44227260
	Batch   5 pq = [   18810,   21030] index = [     176917455,221140965] size =     44223510
	Batch   6 pq = [   21030,   23037] index = [     221140965,265363203] size =     44222238
	Batch   7 pq = [   23037,   24310] index = [     265363203,295500205] size =     30137002
  Task number: 27
  Buffer size: 11059200
  Buffer per thread: 2
  We computed 17476396 shell quartets total.
  Whereas there are 17325441 unique shell quartets.
     0.87 percent of shell quartets recomputed by reordering.

  ==> DiskJK: Disk-Based J/K Matrices <==

    J tasked:                  Yes
    K tasked:                  Yes
    wK tasked:                  No
    Memory [MiB]:              375
    Schwarz Cutoff:          1E-12

    OpenMP threads:              1

  Minimum eigenvalue in the overlap matrix is 3.0332545339E-04.
  Using Symmetric Orthogonalization.

  SCF Guess: Superposition of Atomic Densities via on-the-fly atomic UHF.

  ==> Iterations <==

                        Total Energy        Delta E     RMS |[F,P]|

   @RHF iter SAD:  -386.89974065918818   -3.86900e+02   0.00000e+00
   @RHF iter   1:  -387.77601340695225   -8.76273e-01   2.71997e-03 DIIS
   @RHF iter   2:  -387.99005846322495   -2.14045e-01   1.13401e-03 DIIS
   @RHF iter   3:  -388.02409351160264   -3.40350e-02   2.47623e-04 DIIS
   @RHF iter   4:  -388.02692139133740   -2.82788e-03   5.72140e-05 DIIS
   @RHF iter   5:  -388.02702127468922   -9.98834e-05   2.12206e-05 DIIS
   @RHF iter   6:  -388.02703538020472   -1.41055e-05   3.98984e-06 DIIS
   @RHF iter   7:  -388.02703605396522   -6.73760e-07   1.23916e-06 DIIS
   @RHF iter   8:  -388.02703612259694   -6.86317e-08   3.44618e-07 DIIS
   @RHF iter   9:  -388.02703613501535   -1.24184e-08   1.45791e-07 DIIS
   @RHF iter  10:  -388.02703613808944   -3.07409e-09   7.26729e-08 DIIS
   @RHF iter  11:  -388.02703613889804   -8.08598e-10   2.64065e-08 DIIS
   @RHF iter  12:  -388.02703613899183   -9.37916e-11   1.13745e-08 DIIS
   @RHF iter  13:  -388.02703613900258   -1.07434e-11   4.38275e-09 DIIS
   @RHF iter  14:  -388.02703613900360   -1.02318e-12   1.09359e-09 DIIS
   @RHF iter  15:  -388.02703613900434   -7.38964e-13   3.73032e-10 DIIS
   @RHF iter  16:  -388.02703613900496   -6.25278e-13   1.66693e-10 DIIS
   @RHF iter  17:  -388.02703613900275    2.21689e-12   7.34873e-11 DIIS
  Energy and wave function converged.

  ==> Post-Iterations <==

    Orbital Energies [Eh]
    ---------------------

    Doubly Occupied:

       1A    -11.238033     2A    -11.234966     3A    -11.234156
       4A    -11.231258     5A    -11.230016     6A    -11.229755
       7A    -11.228696     8A    -11.223644     9A    -11.214301
      10A    -11.211898    11A     -1.155846    12A     -1.063371
      13A     -1.013224    14A     -1.008223    15A     -0.982120
      16A     -0.863548    17A     -0.832245    18A     -0.826008
      19A     -0.785319    20A     -0.693066    21A     -0.640134
      22A     -0.633306    23A     -0.598136    24A     -0.592141
      25A     -0.588209    26A     -0.586846    27A     -0.577560
      28A     -0.538209    29A     -0.516669    30A     -0.502996
      31A     -0.491308    32A     -0.487722    33A     -0.483447
      34A     -0.477974    35A     -0.473433    36A     -0.464944
      37A     -0.332875    38A     -0.322284

    Virtual:

      39A      0.133209    40A      0.141129    41A      0.177176
      42A      0.198486    43A      0.201541    44A      0.207743
      45A      0.233333    46A      0.237517    47A      0.242726
      48A      0.255494    49A      0.264299    50A      0.269882
      51A      0.278939    52A      0.288024    53A      0.295342
      54A      0.298589    55A      0.336337    56A      0.345585
      57A      0.360639    58A      0.391041    59A      0.400070
      60A      0.415065    61A      0.452722    62A      0.471470
      63A      0.493108    64A      0.504025    65A      0.573089
      66A      0.581199    67A      0.593695    68A      0.605934
      69A      0.612002    70A      0.614081    71A      0.632310
      72A      0.652689    73A      0.672884    74A      0.691597
      75A      0.705027    76A      0.728581    77A      0.739276
      78A      0.744090    79A      0.747975    80A      0.749695
      81A      0.765513    82A      0.775612    83A      0.798257
      84A      0.822705    85A      0.828494    86A      0.840550
      87A      0.847342    88A      0.856557    89A      0.868164
      90A      0.879022    91A      0.882091    92A      0.890786
      93A      0.898260    94A      0.902673    95A      0.911105
      96A      0.921369    97A      0.924034    98A      0.932997
      99A      0.935717   100A      0.958680   101A      0.963175
     102A      0.975263   103A      0.991797   104A      1.000172
     105A      1.009267   106A      1.035154   107A      1.056381
     108A      1.086406   109A      1.123460   110A      1.133727
     111A      1.142641   112A      1.151165   113A      1.158194
     114A      1.186607   115A      1.198471   116A      1.222219
     117A      1.236597   118A      1.244845   119A      1.248731
     120A      1.285234   121A      1.301555   122A      1.308741
     123A      1.313520   124A      1.332858   125A      1.394531
     126A      1.431881   127A      1.439766   128A      1.472154
     129A      1.482476   130A      1.507852   131A      1.535921
     132A      1.581388   133A      1.598357   134A      1.620995
     135A      1.665871   136A      1.686706   137A      1.692655
     138A      1.702389   139A      1.735024   140A      1.754721
     141A      1.764951   142A      1.773355   143A      1.816920
     144A      1.853392   145A      1.865031   146A      1.877094
     147A      1.880350   148A      1.884385   149A      1.892217
     150A      1.894283   151A      1.912169   152A      1.916718
     153A      1.924819   154A      1.936677   155A      1.939992
     156A      1.945561   157A      1.954033   158A      1.959340
     159A      1.967355   160A      1.968827   161A      1.971584
     162A      1.973241   163A      1.985467   164A      1.993758
     165A      2.012643   166A      2.031935   167A      2.045977
     168A      2.077247   169A      2.085776   170A      2.086433
     171A      2.109823   172A      2.127596   173A      2.128202
     174A      2.164756   175A      2.170943   176A      2.176366
     177A      2.184085   178A      2.219404   179A      2.236714
     180A      2.269567   181A      2.275838   182A      2.308854
     183A      2.309703   184A      2.322860   185A      2.327535
     186A      2.331964   187A      2.379648   188A      2.437230
     189A      2.460023   190A      2.463490   191A      2.475979
     192A      2.492402   193A      2.529973   194A      2.558310
     195A      2.572592   196A      2.583876   197A      2.604369
     198A      2.645956   199A      2.748194   200A      2.768742
     201A      2.769871   202A      2.775654   203A      2.793026
     204A      2.800631   205A      2.813008   206A      2.836551
     207A      2.856476   208A      2.866468   209A      2.868021
     210A      2.917519   211A      2.953124   212A      2.964399
     213A      2.983636   214A      3.000334   215A      3.034871
     216A      3.065195   217A      3.187111   218A      3.210801
     219A      3.313802   220A      3.984275

    Final Occupation by Irrep:
              A
    DOCC [    38 ]

  @RHF Final Energy:  -388.02703613900275

   => Energetics <=

    Nuclear Repulsion Energy =            507.3085032102774221
    One-Electron Energy =               -1529.0553081617788393
    Two-Electron Energy =                 633.7197688124987280
    Total Energy =                       -388.0270361390026892

Computation Completed

Properties will be evaluated at   0.000000,   0.000000,   0.000000 [a0]

Properties computed using the SCF density matrix

  Nuclear Dipole Moment: [e a0]
     X:     2.8967      Y:    10.1907      Z:    -3.0231

  Electronic Dipole Moment: [e a0]
     X:    -2.9626      Y:   -10.1322      Z:     3.0344

  Dipole Moment: [e a0]
     X:    -0.0659      Y:     0.0586      Z:     0.0113     Total:     0.0889

  Dipole Moment: [D]
     X:    -0.1676      Y:     0.1488      Z:     0.0286     Total:     0.2260

*** tstop() called on ds3 at Tue Apr 28 03:34:50 2020
Module time:
	user time   =     120.23 seconds =       2.00 minutes
	system time =      46.04 seconds =       0.77 minutes
	total time  =        167 seconds =       2.78 minutes
Total time:
	user time   =     120.23 seconds =       2.00 minutes
	system time =      46.04 seconds =       0.77 minutes
	total time  =        167 seconds =       2.78 minutes
                                     G D M A

                                 by Anthony Stone

                           version 2.2.06, 22 June 2011

               Distributed Multipoles from Gaussian wavefunctions

Starting at 3:34:50 on 28 Apr 2020

Using SCF density matrix from file ./SSI/SSI-039ALA-095PHE-1-dimer.test.17913.fchk

                         Distributed Multipole Analysis

Standard DMA

Positions and radii in angstrom
Multipole moments in atomic units, ea_0^k for rank k

C          x =  1.877749  y =  2.332804  z = -1.298817 angstrom
           Maximum rank =  0   Radius =  0.650 angstrom
                   Q00  =  -0.241185

C          x =  2.073749  y =  1.028804  z = -2.100817 angstrom
           Maximum rank =  0   Radius =  0.650 angstrom
                   Q00  =  -0.239705

H          x =  2.721749  y =  3.004804  z = -1.454817 angstrom
           Maximum rank =  0   Radius =  0.325 angstrom
                   Q00  =   0.077456

H          x =  0.965749  y =  2.830804  z = -1.627817 angstrom
           Maximum rank =  0   Radius =  0.325 angstrom
                   Q00  =   0.077516

H          x =  1.795749  y =  2.102804  z = -0.235817 angstrom
           Maximum rank =  0   Radius =  0.325 angstrom
                   Q00  =   0.077373

H          x =  1.191749  y =  0.401804  z = -1.950817 angstrom
           Maximum rank =  0   Radius =  0.325 angstrom
                   Q00  =   0.091813

H          x =  2.960049  y =  0.478534  z = -1.752007 angstrom
           Maximum rank =  0   Radius =  0.325 angstrom
                   Q00  =   0.079855

H          x =  2.155229  y =  1.242964  z = -3.176687 angstrom
           Maximum rank =  0   Radius =  0.325 angstrom
                   Q00  =   0.074399

C          x = -1.479251  y =  1.338804  z =  0.328183 angstrom
           Maximum rank =  0   Radius =  0.650 angstrom
                   Q00  =  -0.054141

C          x = -1.955251  y =  1.792804  z =  1.713183 angstrom
           Maximum rank =  0   Radius =  0.650 angstrom
                   Q00  =  -0.239670

C          x = -0.784251  y =  0.001804  z =  0.311183 angstrom
           Maximum rank =  0   Radius =  0.650 angstrom
                   Q00  =  -0.095243

C          x =  0.400749  y = -0.195196  z =  1.023183 angstrom
           Maximum rank =  0   Radius =  0.650 angstrom
                   Q00  =  -0.115472

C          x = -1.295251  y = -1.041196  z = -0.453817 angstrom
           Maximum rank =  0   Radius =  0.650 angstrom
                   Q00  =  -0.043989

C          x =  1.043749  y = -1.428196  z =  0.989183 angstrom
           Maximum rank =  0   Radius =  0.650 angstrom
                   Q00  =  -0.034628

C          x = -0.653251  y = -2.276196  z = -0.480817 angstrom
           Maximum rank =  0   Radius =  0.650 angstrom
                   Q00  =  -0.040393

C          x =  0.511749  y = -2.467196  z =  0.240183 angstrom
           Maximum rank =  0   Radius =  0.650 angstrom
                   Q00  =  -0.077907

H          x = -2.324251  y =  1.333804  z = -0.362817 angstrom
           Maximum rank =  0   Radius =  0.325 angstrom
                   Q00  =   0.065520

H          x = -0.764251  y =  2.070804  z = -0.046817 angstrom
           Maximum rank =  0   Radius =  0.325 angstrom
                   Q00  =   0.076362

H          x = -1.201251  y =  1.535804  z =  2.458183 angstrom
           Maximum rank =  0   Radius =  0.325 angstrom
                   Q00  =   0.084300

H          x =  0.830749  y =  0.614804  z =  1.596183 angstrom
           Maximum rank =  0   Radius =  0.325 angstrom
                   Q00  =   0.060409

H          x = -2.194251  y = -0.896196  z = -1.033817 angstrom
           Maximum rank =  0   Radius =  0.325 angstrom
                   Q00  =   0.057711

H          x =  1.968749  y = -1.565196  z =  1.518183 angstrom
           Maximum rank =  0   Radius =  0.325 angstrom
                   Q00  =   0.064322

H          x = -1.059251  y = -3.088196  z = -1.065817 angstrom
           Maximum rank =  0   Radius =  0.325 angstrom
                   Q00  =   0.063633

H          x =  1.010749  y = -3.426196  z =  0.208183 angstrom
           Maximum rank =  0   Radius =  0.325 angstrom
                   Q00  =   0.060078

H          x = -2.917771  y =  1.340564  z =  1.994323 angstrom
           Maximum rank =  0   Radius =  0.325 angstrom
                   Q00  =   0.085198

H          x = -2.049581  y =  2.888734  z =  1.707423 angstrom
           Maximum rank =  0   Radius =  0.325 angstrom
                   Q00  =   0.086387

Total multipoles referred to origin at
           x =   0.000000,  y =    0.000000,  z =    0.000000 angstrom
                   Q00  =  -0.000000

Finished at 3:34:50 on 28 Apr 2020

  DMA results are available in the Python driver through the
	  variable('DMA DISTRIBUTED MULTIPOLES')
  and
	  variable('DMA TOTAL MULTIPOLES')
  commands.

    Psi4 stopped on: Tuesday, 28 April 2020 03:34AM
    Psi4 wall time for execution: 0:02:47.02

*** Psi4 exiting successfully. Buy a developer a beer!
