                               Psi4 1.3.2 release

  ==> Input File <==

--------------------------------------------------------------------------
import numpy as np
set {scf_type pk
basis cc-pvdz
d_convergence 10
gdma_switch   0
gdma_limit    0
gdma_origin   [ 0.0,  0.0,  0.0 ]
}
molecule test {
    units Angstrom
    0 1
    --
    0 1
    C                0.028125688825883     2.418421455431137    -1.263988574555800
    C                0.148125688825883     0.113421455431137    -0.258988574555800
    C                0.158125688825883     1.495421455431137    -0.083988574555800
    C                0.305125688825883    -0.743578544568863     0.833011425444199
    C                0.325125688825883     2.013421455431137     1.204011425444200
    C                0.478125688825883    -0.216578544568863     2.113011425444200
    C                0.486125688825883     1.165421455431137     2.302011425444200
    O                0.650125688825883    -1.050578544568863     3.178011425444200
    H                0.022125688825883    -0.293578544568863    -1.245988574555800
    H                0.266125688825883    -1.812578544568863     0.710011425444200
    H               -0.660874311174117     3.210421455431137    -0.987988574555800
    H               -0.387874311174117     1.882421455431137    -2.117988574555800
    H                0.333125688825883     3.086421455431137     1.353011425444200
    H                0.619125688825883     1.579421455431137     3.291011425444200
    H                0.765125688825883    -0.564578544568863     4.001011425444200
    H                0.984765688825883     2.886991455431137    -1.538348574555800
    C               -1.169874311174117    -1.772578544568863    -3.160988574555800
    C               -1.200874311174117    -2.763578544568863    -4.328988574555801
    H               -1.926874311174117    -2.012578544568863    -2.415988574555800
    H               -0.190874311174117    -1.863578544568863    -2.688988574555800
    H               -1.298874311174117    -0.747578544568863    -3.491988574555800
    H               -0.324874311174117    -2.602578544568863    -4.948988574555801
    H               -2.112744311174117    -2.645938544568863    -4.932858574555800
    H               -1.144114311174117    -3.787458544568863    -3.930928574555800

}
e, wfn = energy('scf', return_wfn=True)
gdma(wfn)
dmavals = variable('DMA DISTRIBUTED MULTIPOLES')
charges = np.array(dmavals)
print(charges)
np.save('SSI-005TYR-168VAL-1-dimer.npy', np.array(charges))--------------------------------------------------------------------------

*** tstart() called on ds3
*** at Tue Apr 28 11:23:16 2020

   => Loading Basis Set <=

    Name: CC-PVDZ
    Role: ORBITAL
    Keyword: BASIS
    atoms 1-7, 17-18  entry C          line   138 file /theoryfs2/ds/metcalf/miniconda2/envs/tf2gpu/share/psi4/basis/cc-pvdz.gbs
    atoms 8           entry O          line   198 file /theoryfs2/ds/metcalf/miniconda2/envs/tf2gpu/share/psi4/basis/cc-pvdz.gbs
    atoms 9-16, 19-24 entry H          line    22 file /theoryfs2/ds/metcalf/miniconda2/envs/tf2gpu/share/psi4/basis/cc-pvdz.gbs

         ---------------------------------------------------------
                                   SCF
               by Justin Turney, Rob Parrish, Andy Simmonett
                          and Daniel G. A. Smith
                              RHF Reference
                        1 Threads,    500 MiB Core
         ---------------------------------------------------------

  ==> Geometry <==

    Molecular point group: c1
    Full point group: C1

    Geometry (in Angstrom), charge = 0, multiplicity = 1:

       Center              X                  Y                   Z               Mass
    ------------   -----------------  -----------------  -----------------  -----------------
         C            0.028125688826     2.418421455431    -1.263988574556    12.000000000000
         C            0.148125688826     0.113421455431    -0.258988574556    12.000000000000
         C            0.158125688826     1.495421455431    -0.083988574556    12.000000000000
         C            0.305125688826    -0.743578544569     0.833011425444    12.000000000000
         C            0.325125688826     2.013421455431     1.204011425444    12.000000000000
         C            0.478125688826    -0.216578544569     2.113011425444    12.000000000000
         C            0.486125688826     1.165421455431     2.302011425444    12.000000000000
         O            0.650125688826    -1.050578544569     3.178011425444    15.994914619570
         H            0.022125688826    -0.293578544569    -1.245988574556     1.007825032230
         H            0.266125688826    -1.812578544569     0.710011425444     1.007825032230
         H           -0.660874311174     3.210421455431    -0.987988574556     1.007825032230
         H           -0.387874311174     1.882421455431    -2.117988574556     1.007825032230
         H            0.333125688826     3.086421455431     1.353011425444     1.007825032230
         H            0.619125688826     1.579421455431     3.291011425444     1.007825032230
         H            0.765125688826    -0.564578544569     4.001011425444     1.007825032230
         H            0.984765688826     2.886991455431    -1.538348574556     1.007825032230
         C           -1.169874311174    -1.772578544569    -3.160988574556    12.000000000000
         C           -1.200874311174    -2.763578544569    -4.328988574556    12.000000000000
         H           -1.926874311174    -2.012578544569    -2.415988574556     1.007825032230
         H           -0.190874311174    -1.863578544569    -2.688988574556     1.007825032230
         H           -1.298874311174    -0.747578544569    -3.491988574556     1.007825032230
         H           -0.324874311174    -2.602578544569    -4.948988574556     1.007825032230
         H           -2.112744311174    -2.645938544569    -4.932858574556     1.007825032230
         H           -1.144114311174    -3.787458544569    -3.930928574556     1.007825032230

  Running in c1 symmetry.

  Rotational constants: A =      0.05512  B =      0.01766  C =      0.01354 [cm^-1]
  Rotational constants: A =   1652.32614  B =    529.55233  C =    405.97048 [MHz]
  Nuclear repulsion =  481.524151355621711

  Charge       = 0
  Multiplicity = 1
  Electrons    = 76
  Nalpha       = 38
  Nbeta        = 38

  ==> Algorithm <==

  SCF Algorithm Type is PK.
  DIIS enabled.
  MOM disabled.
  Fractional occupation disabled.
  Guess Type is SAD.
  Energy threshold   = 1.00e-06
  Density threshold  = 1.00e-10
  Integral threshold = 0.00e+00

  ==> Primary Basis <==

  Basis Set: CC-PVDZ
    Blend: CC-PVDZ
    Number of shells: 102
    Number of basis function: 210
    Number of Cartesian functions: 220
    Spherical Harmonics?: true
    Max angular momentum: 2

  ==> Pre-Iterations <==

   -------------------------------------------------------
    Irrep   Nso     Nmo     Nalpha   Nbeta   Ndocc  Nsocc
   -------------------------------------------------------
     A        210     210       0       0       0       0
   -------------------------------------------------------
    Total     210     210      38      38      38       0
   -------------------------------------------------------

  ==> Integral Setup <==

  Using integral reordering PK algorithm.
  Sizing the integral batches needed.
  Building batch lookup table.
   Calculation information:
      Number of atoms:                  24
      Number of AO shells:             102
      Number of primitives:            290
      Number of atomic orbitals:       220
      Number of basis functions:       210

      Integral cutoff                 1.00e-12
      Number of threads:                 1

	Batch   1 pq = [       0,    9405] index = [             0,44231715] size =     44231715
	Batch   2 pq = [    9405,   13301] index = [      44231715,88464951] size =     44233236
	Batch   3 pq = [   13301,   16290] index = [      88464951,132690195] size =     44225244
	Batch   4 pq = [   16290,   18810] index = [     132690195,176917455] size =     44227260
	Batch   5 pq = [   18810,   21030] index = [     176917455,221140965] size =     44223510
	Batch   6 pq = [   21030,   22155] index = [     221140965,245433090] size =     24292125
  Task number: 23
  Buffer size: 11059200
  Buffer per thread: 2
  We computed 10402754 shell quartets total.
  Whereas there are 13799631 unique shell quartets.

  ==> DiskJK: Disk-Based J/K Matrices <==

    J tasked:                  Yes
    K tasked:                  Yes
    wK tasked:                  No
    Memory [MiB]:              375
    Schwarz Cutoff:          1E-12

    OpenMP threads:              1

  Minimum eigenvalue in the overlap matrix is 3.1173954451E-04.
  Using Symmetric Orthogonalization.

  SCF Guess: Superposition of Atomic Densities via on-the-fly atomic UHF.

  ==> Iterations <==

                        Total Energy        Delta E     RMS |[F,P]|

   @RHF iter SAD:  -422.67644255783085   -4.22676e+02   0.00000e+00
   @RHF iter   1:  -423.60137455787230   -9.24932e-01   2.97545e-03 DIIS
   @RHF iter   2:  -423.81774927116282   -2.16375e-01   1.25214e-03 DIIS
   @RHF iter   3:  -423.85240833116256   -3.46591e-02   2.86081e-04 DIIS
   @RHF iter   4:  -423.85530644105319   -2.89811e-03   1.18151e-04 DIIS
   @RHF iter   5:  -423.85566639491526   -3.59954e-04   2.08430e-05 DIIS
   @RHF iter   6:  -423.85568408787924   -1.76930e-05   6.44596e-06 DIIS
   @RHF iter   7:  -423.85568575391375   -1.66603e-06   2.11162e-06 DIIS
   @RHF iter   8:  -423.85568598889131   -2.34978e-07   8.08025e-07 DIIS
   @RHF iter   9:  -423.85568603031106   -4.14198e-08   3.34727e-07 DIIS
   @RHF iter  10:  -423.85568603889834   -8.58728e-09   1.45876e-07 DIIS
   @RHF iter  11:  -423.85568604162268   -2.72433e-09   6.31758e-08 DIIS
   @RHF iter  12:  -423.85568604209095   -4.68276e-10   2.98048e-08 DIIS
   @RHF iter  13:  -423.85568604217008   -7.91260e-11   8.14466e-09 DIIS
   @RHF iter  14:  -423.85568604217463   -4.54747e-12   2.13797e-09 DIIS
   @RHF iter  15:  -423.85568604217394    6.82121e-13   6.74018e-10 DIIS
   @RHF iter  16:  -423.85568604217343    5.11591e-13   1.99840e-10 DIIS
   @RHF iter  17:  -423.85568604217457   -1.13687e-12   7.01229e-11 DIIS
  Energy and wave function converged.

  ==> Post-Iterations <==

    Orbital Energies [Eh]
    ---------------------

    Doubly Occupied:

       1A    -20.581753     2A    -11.298411     3A    -11.238383
       4A    -11.234416     5A    -11.233141     6A    -11.231049
       7A    -11.228525     8A    -11.226133     9A    -11.221244
      10A    -11.219968    11A     -1.398077    12A     -1.147482
      13A     -1.036022    14A     -1.021074    15A     -1.014693
      16A     -0.924710    17A     -0.844871    18A     -0.839634
      19A     -0.799824    20A     -0.730396    21A     -0.665611
      22A     -0.640520    23A     -0.607267    24A     -0.601138
      25A     -0.599972    26A     -0.585296    27A     -0.584060
      28A     -0.568693    29A     -0.566872    30A     -0.526562
      31A     -0.505593    32A     -0.496149    33A     -0.489591
      34A     -0.488873    35A     -0.479977    36A     -0.463945
      37A     -0.336176    38A     -0.299147

    Virtual:

      39A      0.130403    40A      0.157073    41A      0.173870
      42A      0.180767    43A      0.193126    44A      0.211305
      45A      0.216054    46A      0.239839    47A      0.251880
      48A      0.264569    49A      0.268638    50A      0.276167
      51A      0.283665    52A      0.290113    53A      0.321231
      54A      0.342482    55A      0.369849    56A      0.382353
      57A      0.414986    58A      0.427662    59A      0.457417
      60A      0.486484    61A      0.504172    62A      0.508363
      63A      0.592944    64A      0.595752    65A      0.606258
      66A      0.626933    67A      0.651598    68A      0.654952
      69A      0.663373    70A      0.686843    71A      0.689535
      72A      0.696883    73A      0.712335    74A      0.726846
      75A      0.731712    76A      0.737630    77A      0.749410
      78A      0.770578    79A      0.780251    80A      0.794312
      81A      0.794784    82A      0.819178    83A      0.847536
      84A      0.849210    85A      0.877678    86A      0.883654
      87A      0.887507    88A      0.892346    89A      0.896041
      90A      0.896822    91A      0.903227    92A      0.913245
      93A      0.915658    94A      0.923272    95A      0.938420
      96A      0.956472    97A      0.964669    98A      0.989438
      99A      0.992920   100A      1.025486   101A      1.055937
     102A      1.065323   103A      1.107149   104A      1.132936
     105A      1.144165   106A      1.146069   107A      1.166600
     108A      1.186120   109A      1.219590   110A      1.231970
     111A      1.251537   112A      1.253748   113A      1.278466
     114A      1.287523   115A      1.294433   116A      1.313734
     117A      1.350095   118A      1.362073   119A      1.362743
     120A      1.389705   121A      1.469201   122A      1.479245
     123A      1.495613   124A      1.509143   125A      1.530885
     126A      1.572499   127A      1.587613   128A      1.619587
     129A      1.625669   130A      1.680121   131A      1.684669
     132A      1.693553   133A      1.699130   134A      1.730228
     135A      1.744075   136A      1.783312   137A      1.802817
     138A      1.806339   139A      1.858430   140A      1.863904
     141A      1.878850   142A      1.889367   143A      1.897793
     144A      1.907595   145A      1.914246   146A      1.919972
     147A      1.926511   148A      1.936063   149A      1.945787
     150A      1.946162   151A      1.950386   152A      1.966243
     153A      1.970600   154A      1.975058   155A      1.977524
     156A      2.018593   157A      2.038500   158A      2.059105
     159A      2.063617   160A      2.071133   161A      2.076263
     162A      2.097588   163A      2.118008   164A      2.138735
     165A      2.151636   166A      2.170705   167A      2.199502
     168A      2.226229   169A      2.261364   170A      2.273524
     171A      2.298493   172A      2.304963   173A      2.339003
     174A      2.352980   175A      2.371859   176A      2.415921
     177A      2.456288   178A      2.458635   179A      2.463253
     180A      2.495232   181A      2.503472   182A      2.531492
     183A      2.540999   184A      2.564432   185A      2.579153
     186A      2.611971   187A      2.640637   188A      2.749588
     189A      2.762382   190A      2.776302   191A      2.788573
     192A      2.795972   193A      2.834734   194A      2.848641
     195A      2.854601   196A      2.860624   197A      2.902819
     198A      2.947418   199A      2.955851   200A      2.963184
     201A      3.008186   202A      3.091339   203A      3.120591
     204A      3.250412   205A      3.288284   206A      3.347480
     207A      3.574310   208A      3.673518   209A      3.969889
     210A      4.190629

    Final Occupation by Irrep:
              A
    DOCC [    38 ]

  @RHF Final Energy:  -423.85568604217457

   => Energetics <=

    Nuclear Repulsion Energy =            481.5241513556217114
    One-Electron Energy =               -1528.8091831182971418
    Two-Electron Energy =                 623.4293457205008053
    Total Energy =                       -423.8556860421745114

Computation Completed

Properties will be evaluated at   0.000000,   0.000000,   0.000000 [a0]

Properties computed using the SCF density matrix

  Nuclear Dipole Moment: [e a0]
     X:    -4.7374      Y:    -3.4594      Z:   -17.7451

  Electronic Dipole Moment: [e a0]
     X:     4.7509      Y:     3.9777      Z:    17.8966

  Dipole Moment: [e a0]
     X:     0.0135      Y:     0.5183      Z:     0.1515     Total:     0.5402

  Dipole Moment: [D]
     X:     0.0343      Y:     1.3175      Z:     0.3850     Total:     1.3730

*** tstop() called on ds3 at Tue Apr 28 11:25:12 2020
Module time:
	user time   =      81.00 seconds =       1.35 minutes
	system time =      39.74 seconds =       0.66 minutes
	total time  =        116 seconds =       1.93 minutes
Total time:
	user time   =      81.00 seconds =       1.35 minutes
	system time =      39.74 seconds =       0.66 minutes
	total time  =        116 seconds =       1.93 minutes
                                     G D M A

                                 by Anthony Stone

                           version 2.2.06, 22 June 2011

               Distributed Multipoles from Gaussian wavefunctions

Starting at 11:25:12 on 28 Apr 2020

Using SCF density matrix from file ./SSI/SSI-005TYR-168VAL-1-dimer.test.27541.fchk

                         Distributed Multipole Analysis

Standard DMA

Positions and radii in angstrom
Multipole moments in atomic units, ea_0^k for rank k

C          x =  0.028126  y =  2.418421  z = -1.263989 angstrom
           Maximum rank =  0   Radius =  0.650 angstrom
                   Q00  =  -0.190688

C          x =  0.148126  y =  0.113421  z = -0.258989 angstrom
           Maximum rank =  0   Radius =  0.650 angstrom
                   Q00  =  -0.006564

C          x =  0.158126  y =  1.495421  z = -0.083989 angstrom
           Maximum rank =  0   Radius =  0.650 angstrom
                   Q00  =  -0.139143

C          x =  0.305126  y = -0.743579  z =  0.833011 angstrom
           Maximum rank =  0   Radius =  0.650 angstrom
                   Q00  =  -0.116036

C          x =  0.325126  y =  2.013421  z =  1.204011 angstrom
           Maximum rank =  0   Radius =  0.650 angstrom
                   Q00  =   0.017617

C          x =  0.478126  y = -0.216579  z =  2.113011 angstrom
           Maximum rank =  0   Radius =  0.650 angstrom
                   Q00  =   0.306329

C          x =  0.486126  y =  1.165421  z =  2.302011 angstrom
           Maximum rank =  0   Radius =  0.650 angstrom
                   Q00  =  -0.179830

O          x =  0.650126  y = -1.050579  z =  3.178011 angstrom
           Maximum rank =  0   Radius =  0.650 angstrom
                   Q00  =  -0.674702

H          x =  0.022126  y = -0.293579  z = -1.245989 angstrom
           Maximum rank =  0   Radius =  0.325 angstrom
                   Q00  =   0.065494

H          x =  0.266126  y = -1.812579  z =  0.710011 angstrom
           Maximum rank =  0   Radius =  0.325 angstrom
                   Q00  =   0.077133

H          x = -0.660874  y =  3.210421  z = -0.987989 angstrom
           Maximum rank =  0   Radius =  0.325 angstrom
                   Q00  =   0.095943

H          x = -0.387874  y =  1.882421  z = -2.117989 angstrom
           Maximum rank =  0   Radius =  0.325 angstrom
                   Q00  =   0.098249

H          x =  0.333126  y =  3.086421  z =  1.353011 angstrom
           Maximum rank =  0   Radius =  0.325 angstrom
                   Q00  =   0.066815

H          x =  0.619126  y =  1.579421  z =  3.291011 angstrom
           Maximum rank =  0   Radius =  0.325 angstrom
                   Q00  =   0.071900

H          x =  0.765126  y = -0.564579  z =  4.001011 angstrom
           Maximum rank =  0   Radius =  0.325 angstrom
                   Q00  =   0.405871

H          x =  0.984766  y =  2.886991  z = -1.538349 angstrom
           Maximum rank =  0   Radius =  0.325 angstrom
                   Q00  =   0.098870

C          x = -1.169874  y = -1.772579  z = -3.160989 angstrom
           Maximum rank =  0   Radius =  0.650 angstrom
                   Q00  =  -0.251697

C          x = -1.200874  y = -2.763579  z = -4.328989 angstrom
           Maximum rank =  0   Radius =  0.650 angstrom
                   Q00  =  -0.224847

H          x = -1.926874  y = -2.012579  z = -2.415989 angstrom
           Maximum rank =  0   Radius =  0.325 angstrom
                   Q00  =   0.086119

H          x = -0.190874  y = -1.863579  z = -2.688989 angstrom
           Maximum rank =  0   Radius =  0.325 angstrom
                   Q00  =   0.068911

H          x = -1.298874  y = -0.747579  z = -3.491989 angstrom
           Maximum rank =  0   Radius =  0.325 angstrom
                   Q00  =   0.080412

H          x = -0.324874  y = -2.602579  z = -4.948989 angstrom
           Maximum rank =  0   Radius =  0.325 angstrom
                   Q00  =   0.080665

H          x = -2.112744  y = -2.645939  z = -4.932859 angstrom
           Maximum rank =  0   Radius =  0.325 angstrom
                   Q00  =   0.081957

H          x = -1.144114  y = -3.787459  z = -3.930929 angstrom
           Maximum rank =  0   Radius =  0.325 angstrom
                   Q00  =   0.081220

Total multipoles referred to origin at
           x =   0.000000,  y =    0.000000,  z =    0.000000 angstrom
                   Q00  =  -0.000000

Finished at 11:25:12 on 28 Apr 2020

  DMA results are available in the Python driver through the
	  variable('DMA DISTRIBUTED MULTIPOLES')
  and
	  variable('DMA TOTAL MULTIPOLES')
  commands.

    Psi4 stopped on: Tuesday, 28 April 2020 11:25AM
    Psi4 wall time for execution: 0:01:56.18

*** Psi4 exiting successfully. Buy a developer a beer!
