                               Psi4 1.3.2 release

  ==> Input File <==

--------------------------------------------------------------------------
import numpy as np
set {scf_type pk
basis cc-pvdz
d_convergence 10
gdma_switch   0
gdma_limit    0
gdma_origin   [ 0.0,  0.0,  0.0 ]
}
molecule test {
    units Angstrom
    0 1
    --
    0 1
    C                1.947076178149939    -2.444141875446817    -1.203378443029854
    C               -0.665923821850061     0.245858124553183    -0.329378443029854
    C               -1.465923821850061    -0.399141875446817     0.605621556970146
    C                0.451076178149939    -0.407141875446817    -0.952378443029854
    C                0.755076178149939    -1.719141875446817    -0.610378443029854
    C               -1.168923821850061    -1.713141875446817     0.932621556970146
    C               -0.063923821850061    -2.357141875446817     0.322621556970146
    H               -0.927923821850061     1.244858124553183    -0.560378443029854
    H               -2.300923821850061     0.113858124553183     1.064621556970146
    H                1.063076178149939     0.104858124553183    -1.686378443029854
    H               -1.784923821850061    -2.227141875446817     1.655621556970146
    H                2.541076178149939    -2.819141875446817    -0.368378443029854
    H                2.534076178149939    -1.708141875446817    -1.753378443029854
    H                0.178076178149939    -3.379141875446817     0.572621556970146
    H                1.681436178149939    -3.265341875446817    -1.885328443029854
    C               -0.114923821850061     3.489858124553183     1.232621556970146
    C                0.081076178149939     4.334858124553184    -0.046378443029854
    H               -0.300923821850061     4.133858124553184     2.088621556970145
    H               -0.970923821850061     2.829858124553183     1.103621556970146
    H                0.776076178149939     2.891858124553183     1.421621556970146
    H               -0.819923821850061     4.912858124553184    -0.238378443029854
    H                0.940326178149939     5.011058124553183     0.073971556970146
    H                0.312316178149939     3.696858124553183    -0.912118443029854

}
e, wfn = energy('scf', return_wfn=True)
gdma(wfn)
dmavals = variable('DMA DISTRIBUTED MULTIPOLES')
charges = np.array(dmavals)
print(charges)
np.save('SSI-078PHE-218LEU-1-dimer.npy', np.array(charges))--------------------------------------------------------------------------

*** tstart() called on ds3
*** at Tue Apr 28 14:24:44 2020

   => Loading Basis Set <=

    Name: CC-PVDZ
    Role: ORBITAL
    Keyword: BASIS
    atoms 1-7, 16-17  entry C          line   138 file /theoryfs2/ds/metcalf/miniconda2/envs/tf2gpu/share/psi4/basis/cc-pvdz.gbs
    atoms 8-15, 18-23 entry H          line    22 file /theoryfs2/ds/metcalf/miniconda2/envs/tf2gpu/share/psi4/basis/cc-pvdz.gbs

         ---------------------------------------------------------
                                   SCF
               by Justin Turney, Rob Parrish, Andy Simmonett
                          and Daniel G. A. Smith
                              RHF Reference
                        1 Threads,    500 MiB Core
         ---------------------------------------------------------

  ==> Geometry <==

    Molecular point group: c1
    Full point group: C1

    Geometry (in Angstrom), charge = 0, multiplicity = 1:

       Center              X                  Y                   Z               Mass
    ------------   -----------------  -----------------  -----------------  -----------------
         C            1.947076178150    -2.444141875447    -1.203378443030    12.000000000000
         C           -0.665923821850     0.245858124553    -0.329378443030    12.000000000000
         C           -1.465923821850    -0.399141875447     0.605621556970    12.000000000000
         C            0.451076178150    -0.407141875447    -0.952378443030    12.000000000000
         C            0.755076178150    -1.719141875447    -0.610378443030    12.000000000000
         C           -1.168923821850    -1.713141875447     0.932621556970    12.000000000000
         C           -0.063923821850    -2.357141875447     0.322621556970    12.000000000000
         H           -0.927923821850     1.244858124553    -0.560378443030     1.007825032230
         H           -2.300923821850     0.113858124553     1.064621556970     1.007825032230
         H            1.063076178150     0.104858124553    -1.686378443030     1.007825032230
         H           -1.784923821850    -2.227141875447     1.655621556970     1.007825032230
         H            2.541076178150    -2.819141875447    -0.368378443030     1.007825032230
         H            2.534076178150    -1.708141875447    -1.753378443030     1.007825032230
         H            0.178076178150    -3.379141875447     0.572621556970     1.007825032230
         H            1.681436178150    -3.265341875447    -1.885328443030     1.007825032230
         C           -0.114923821850     3.489858124553     1.232621556970    12.000000000000
         C            0.081076178150     4.334858124553    -0.046378443030    12.000000000000
         H           -0.300923821850     4.133858124553     2.088621556970     1.007825032230
         H           -0.970923821850     2.829858124553     1.103621556970     1.007825032230
         H            0.776076178150     2.891858124553     1.421621556970     1.007825032230
         H           -0.819923821850     4.912858124553    -0.238378443030     1.007825032230
         H            0.940326178150     5.011058124553     0.073971556970     1.007825032230
         H            0.312316178150     3.696858124553    -0.912118443030     1.007825032230

  Running in c1 symmetry.

  Rotational constants: A =      0.08255  B =      0.02186  C =      0.01840 [cm^-1]
  Rotational constants: A =   2474.81779  B =    655.26761  C =    551.75991 [MHz]
  Nuclear repulsion =  400.868161760403723

  Charge       = 0
  Multiplicity = 1
  Electrons    = 68
  Nalpha       = 34
  Nbeta        = 34

  ==> Algorithm <==

  SCF Algorithm Type is PK.
  DIIS enabled.
  MOM disabled.
  Fractional occupation disabled.
  Guess Type is SAD.
  Energy threshold   = 1.00e-06
  Density threshold  = 1.00e-10
  Integral threshold = 0.00e+00

  ==> Primary Basis <==

  Basis Set: CC-PVDZ
    Blend: CC-PVDZ
    Number of shells: 96
    Number of basis function: 196
    Number of Cartesian functions: 205
    Spherical Harmonics?: true
    Max angular momentum: 2

  ==> Pre-Iterations <==

   -------------------------------------------------------
    Irrep   Nso     Nmo     Nalpha   Nbeta   Ndocc  Nsocc
   -------------------------------------------------------
     A        196     196       0       0       0       0
   -------------------------------------------------------
    Total     196     196      34      34      34       0
   -------------------------------------------------------

  ==> Integral Setup <==

  Using integral reordering PK algorithm.
  Sizing the integral batches needed.
  Building batch lookup table.
   Calculation information:
      Number of atoms:                  23
      Number of AO shells:              96
      Number of primitives:            268
      Number of atomic orbitals:       205
      Number of basis functions:       196

      Integral cutoff                 1.00e-12
      Number of threads:                 1

	Batch   1 pq = [       0,    9405] index = [             0,44231715] size =     44231715
	Batch   2 pq = [    9405,   13301] index = [      44231715,88464951] size =     44233236
	Batch   3 pq = [   13301,   16290] index = [      88464951,132690195] size =     44225244
	Batch   4 pq = [   16290,   18810] index = [     132690195,176917455] size =     44227260
	Batch   5 pq = [   18810,   19306] index = [     176917455,186370471] size =      9453016
  Task number: 17
  Buffer size: 11059200
  Buffer per thread: 2
  We computed 8957628 shell quartets total.
  Whereas there are 10841496 unique shell quartets.

  ==> DiskJK: Disk-Based J/K Matrices <==

    J tasked:                  Yes
    K tasked:                  Yes
    wK tasked:                  No
    Memory [MiB]:              375
    Schwarz Cutoff:          1E-12

    OpenMP threads:              1

  Minimum eigenvalue in the overlap matrix is 3.2460352589E-04.
  Using Symmetric Orthogonalization.

  SCF Guess: Superposition of Atomic Densities via on-the-fly atomic UHF.

  ==> Iterations <==

                        Total Energy        Delta E     RMS |[F,P]|

   @RHF iter SAD:  -347.74251244580881   -3.47743e+02   0.00000e+00
   @RHF iter   1:  -348.76850231793668   -1.02599e+00   2.84389e-03 DIIS
   @RHF iter   2:  -348.95691662122550   -1.88414e-01   1.16210e-03 DIIS
   @RHF iter   3:  -348.98541139269548   -2.84948e-02   2.55037e-04 DIIS
   @RHF iter   4:  -348.98784420087298   -2.43281e-03   4.95045e-05 DIIS
   @RHF iter   5:  -348.98790983281475   -6.56319e-05   1.74988e-05 DIIS
   @RHF iter   6:  -348.98791745410563   -7.62129e-06   4.75943e-06 DIIS
   @RHF iter   7:  -348.98791817753556   -7.23430e-07   1.45679e-06 DIIS
   @RHF iter   8:  -348.98791827867888   -1.01143e-07   5.17610e-07 DIIS
   @RHF iter   9:  -348.98791830821756   -2.95387e-08   2.50989e-07 DIIS
   @RHF iter  10:  -348.98791831623873   -8.02117e-09   1.13135e-07 DIIS
   @RHF iter  11:  -348.98791831765908   -1.42035e-09   3.40690e-08 DIIS
   @RHF iter  12:  -348.98791831774179   -8.27072e-11   1.44432e-08 DIIS
   @RHF iter  13:  -348.98791831775071   -8.92442e-12   4.94184e-09 DIIS
   @RHF iter  14:  -348.98791831775208   -1.36424e-12   1.65500e-09 DIIS
   @RHF iter  15:  -348.98791831775202    5.68434e-14   8.33468e-10 DIIS
   @RHF iter  16:  -348.98791831775270   -6.82121e-13   3.77638e-10 DIIS
   @RHF iter  17:  -348.98791831775350   -7.95808e-13   1.04704e-10 DIIS
   @RHF iter  18:  -348.98791831775304    4.54747e-13   4.28201e-11 DIIS
  Energy and wave function converged.

  ==> Post-Iterations <==

    Orbital Energies [Eh]
    ---------------------

    Doubly Occupied:

       1A    -11.241339     2A    -11.238053     3A    -11.236873
       4A    -11.235891     5A    -11.232132     6A    -11.231835
       7A    -11.230909     8A    -11.220430     9A    -11.216238
      10A     -1.146783    11A     -1.046678    12A     -1.013839
      13A     -0.999780    14A     -0.932595    15A     -0.838769
      16A     -0.829997    17A     -0.787791    18A     -0.689722
      19A     -0.633712    20A     -0.627881    21A     -0.598701
      22A     -0.593217    23A     -0.579248    24A     -0.572336
      25A     -0.564508    26A     -0.537119    27A     -0.497588
      28A     -0.489760    29A     -0.486719    30A     -0.483696
      31A     -0.480992    32A     -0.479800    33A     -0.327894
      34A     -0.321614

    Virtual:

      35A      0.130043    36A      0.143329    37A      0.171148
      38A      0.192840    39A      0.203860    40A      0.221447
      41A      0.226786    42A      0.245930    43A      0.255765
      44A      0.258531    45A      0.266421    46A      0.272299
      47A      0.276118    48A      0.293691    49A      0.313662
      50A      0.344036    51A      0.362868    52A      0.373203
      53A      0.392166    54A      0.448185    55A      0.462989
      56A      0.475393    57A      0.500024    58A      0.567172
      59A      0.585969    60A      0.600633    61A      0.606950
      62A      0.626613    63A      0.632344    64A      0.654732
      65A      0.666288    66A      0.693663    67A      0.697333
      68A      0.712245    69A      0.721359    70A      0.739169
      71A      0.745946    72A      0.751212    73A      0.755513
      74A      0.772391    75A      0.778215    76A      0.796519
      77A      0.831650    78A      0.845456    79A      0.860714
      80A      0.867233    81A      0.874564    82A      0.880506
      83A      0.884788    84A      0.898298    85A      0.899406
      86A      0.902221    87A      0.909873    88A      0.929843
      89A      0.931567    90A      0.938216    91A      0.942898
      92A      0.976499    93A      0.982569    94A      0.990186
      95A      1.035397    96A      1.062073    97A      1.108797
      98A      1.123141    99A      1.133250   100A      1.136861
     101A      1.155767   102A      1.157606   103A      1.192382
     104A      1.227035   105A      1.236231   106A      1.250499
     107A      1.255942   108A      1.260895   109A      1.294773
     110A      1.304291   111A      1.320526   112A      1.327179
     113A      1.415249   114A      1.473575   115A      1.480734
     116A      1.499662   117A      1.523367   118A      1.543826
     119A      1.596769   120A      1.615584   121A      1.675669
     122A      1.686313   123A      1.689271   124A      1.704666
     125A      1.723017   126A      1.740203   127A      1.768741
     128A      1.793324   129A      1.797509   130A      1.852361
     131A      1.863509   132A      1.879284   133A      1.882576
     134A      1.885226   135A      1.892900   136A      1.905047
     137A      1.921900   138A      1.932742   139A      1.935380
     140A      1.944750   141A      1.947740   142A      1.948600
     143A      1.955710   144A      1.958821   145A      1.960585
     146A      1.975034   147A      1.999785   148A      2.013582
     149A      2.030473   150A      2.042472   151A      2.071659
     152A      2.091816   153A      2.105995   154A      2.112468
     155A      2.125883   156A      2.154006   157A      2.157564
     158A      2.177787   159A      2.196077   160A      2.242157
     161A      2.266171   162A      2.285913   163A      2.296207
     164A      2.308319   165A      2.314203   166A      2.325827
     167A      2.341569   168A      2.442587   169A      2.455428
     170A      2.456999   171A      2.481521   172A      2.511038
     173A      2.527810   174A      2.556789   175A      2.577582
     176A      2.624087   177A      2.734151   178A      2.752104
     179A      2.763782   180A      2.773507   181A      2.774942
     182A      2.800120   183A      2.829908   184A      2.839806
     185A      2.846013   186A      2.858255   187A      2.875086
     188A      2.945497   189A      2.957968   190A      2.962278
     191A      2.985177   192A      3.049528   193A      3.129519
     194A      3.174589   195A      3.301287   196A      3.930840

    Final Occupation by Irrep:
              A
    DOCC [    34 ]

  @RHF Final Energy:  -348.98791831775304

   => Energetics <=

    Nuclear Repulsion Energy =            400.8681617604037228
    One-Electron Energy =               -1264.4232813420289858
    Two-Electron Energy =                 514.5672012638722208
    Total Energy =                       -348.9879183177530422

Computation Completed

Properties will be evaluated at   0.000000,   0.000000,   0.000000 [a0]

Properties computed using the SCF density matrix

  Nuclear Dipole Moment: [e a0]
     X:     2.7383      Y:    10.8193      Z:     0.5403

  Electronic Dipole Moment: [e a0]
     X:    -2.6292      Y:   -10.9002      Z:    -0.5578

  Dipole Moment: [e a0]
     X:     0.1091      Y:    -0.0809      Z:    -0.0175     Total:     0.1369

  Dipole Moment: [D]
     X:     0.2772      Y:    -0.2056      Z:    -0.0444     Total:     0.3480

*** tstop() called on ds3 at Tue Apr 28 14:26:24 2020
Module time:
	user time   =      66.38 seconds =       1.11 minutes
	system time =      30.96 seconds =       0.52 minutes
	total time  =        100 seconds =       1.67 minutes
Total time:
	user time   =      66.38 seconds =       1.11 minutes
	system time =      30.96 seconds =       0.52 minutes
	total time  =        100 seconds =       1.67 minutes
                                     G D M A

                                 by Anthony Stone

                           version 2.2.06, 22 June 2011

               Distributed Multipoles from Gaussian wavefunctions

Starting at 14:26:24 on 28 Apr 2020

Using SCF density matrix from file ./SSI/SSI-078PHE-218LEU-1-dimer.test.22499.fchk

                         Distributed Multipole Analysis

Standard DMA

Positions and radii in angstrom
Multipole moments in atomic units, ea_0^k for rank k

C          x =  1.947076  y = -2.444142  z = -1.203378 angstrom
           Maximum rank =  0   Radius =  0.650 angstrom
                   Q00  =  -0.203194

C          x = -0.665924  y =  0.245858  z = -0.329378 angstrom
           Maximum rank =  0   Radius =  0.650 angstrom
                   Q00  =  -0.047827

C          x = -1.465924  y = -0.399142  z =  0.605622 angstrom
           Maximum rank =  0   Radius =  0.650 angstrom
                   Q00  =  -0.089129

C          x =  0.451076  y = -0.407142  z = -0.952378 angstrom
           Maximum rank =  0   Radius =  0.650 angstrom
                   Q00  =  -0.096949

C          x =  0.755076  y = -1.719142  z = -0.610378 angstrom
           Maximum rank =  0   Radius =  0.650 angstrom
                   Q00  =  -0.101612

C          x = -1.168924  y = -1.713142  z =  0.932622 angstrom
           Maximum rank =  0   Radius =  0.650 angstrom
                   Q00  =  -0.081222

C          x = -0.063924  y = -2.357142  z =  0.322622 angstrom
           Maximum rank =  0   Radius =  0.650 angstrom
                   Q00  =   0.001902

H          x = -0.927924  y =  1.244858  z = -0.560378 angstrom
           Maximum rank =  0   Radius =  0.325 angstrom
                   Q00  =   0.064487

H          x = -2.300924  y =  0.113858  z =  1.064622 angstrom
           Maximum rank =  0   Radius =  0.325 angstrom
                   Q00  =   0.062941

H          x =  1.063076  y =  0.104858  z = -1.686378 angstrom
           Maximum rank =  0   Radius =  0.325 angstrom
                   Q00  =   0.063404

H          x = -1.784924  y = -2.227142  z =  1.655622 angstrom
           Maximum rank =  0   Radius =  0.325 angstrom
                   Q00  =   0.066154

H          x =  2.541076  y = -2.819142  z = -0.368378 angstrom
           Maximum rank =  0   Radius =  0.325 angstrom
                   Q00  =   0.102265

H          x =  2.534076  y = -1.708142  z = -1.753378 angstrom
           Maximum rank =  0   Radius =  0.325 angstrom
                   Q00  =   0.097433

H          x =  0.178076  y = -3.379142  z =  0.572622 angstrom
           Maximum rank =  0   Radius =  0.325 angstrom
                   Q00  =   0.054182

H          x =  1.681436  y = -3.265342  z = -1.885328 angstrom
           Maximum rank =  0   Radius =  0.325 angstrom
                   Q00  =   0.106859

C          x = -0.114924  y =  3.489858  z =  1.232622 angstrom
           Maximum rank =  0   Radius =  0.650 angstrom
                   Q00  =  -0.229781

C          x =  0.081076  y =  4.334858  z = -0.046378 angstrom
           Maximum rank =  0   Radius =  0.650 angstrom
                   Q00  =  -0.251646

H          x = -0.300924  y =  4.133858  z =  2.088622 angstrom
           Maximum rank =  0   Radius =  0.325 angstrom
                   Q00  =   0.081394

H          x = -0.970924  y =  2.829858  z =  1.103622 angstrom
           Maximum rank =  0   Radius =  0.325 angstrom
                   Q00  =   0.076049

H          x =  0.776076  y =  2.891858  z =  1.421622 angstrom
           Maximum rank =  0   Radius =  0.325 angstrom
                   Q00  =   0.086197

H          x = -0.819924  y =  4.912858  z = -0.238378 angstrom
           Maximum rank =  0   Radius =  0.325 angstrom
                   Q00  =   0.081278

H          x =  0.940326  y =  5.011058  z =  0.073972 angstrom
           Maximum rank =  0   Radius =  0.325 angstrom
                   Q00  =   0.080212

H          x =  0.312316  y =  3.696858  z = -0.912118 angstrom
           Maximum rank =  0   Radius =  0.325 angstrom
                   Q00  =   0.076603

Total multipoles referred to origin at
           x =   0.000000,  y =    0.000000,  z =    0.000000 angstrom
                   Q00  =  -0.000000

Finished at 14:26:24 on 28 Apr 2020

  DMA results are available in the Python driver through the
	  variable('DMA DISTRIBUTED MULTIPOLES')
  and
	  variable('DMA TOTAL MULTIPOLES')
  commands.

    Psi4 stopped on: Tuesday, 28 April 2020 02:26PM
    Psi4 wall time for execution: 0:01:39.88

*** Psi4 exiting successfully. Buy a developer a beer!
