                               Psi4 1.3.2 release

  ==> Input File <==

--------------------------------------------------------------------------
import numpy as np
set {scf_type pk
basis cc-pvdz
d_convergence 10
gdma_switch   0
gdma_limit    0
gdma_origin   [ 0.0,  0.0,  0.0 ]
}
molecule test {
    units Angstrom
    0 1
    --
    0 1
    C               -0.473053012141029    -1.730870698891681     0.392189553003291
    C                0.605946987858971    -2.062870698891681    -0.637810446996709
    O               -1.236053012141028    -2.874870698891681     0.721189553003291
    H                0.003946987858971    -1.341870698891681     1.294189553003291
    H               -1.131053012141028    -0.959870698891681    -0.010810446996709
    H                1.189946987858971    -1.164870698891681    -0.829810446996709
    H               -1.976053012141028    -2.606870698891681     1.283189553003291
    H                0.160873987858971    -2.424540698891680    -1.576482446996709
    H                1.280921887858971    -2.843200698891680    -0.256366446996709
    C                0.053946987858971     1.895129301107319    -0.155810446996709
    C                1.275946987858972     1.900129301108319    -1.066810446996709
    C               -0.085053012141029     3.185129301108319     0.647189553003291
    H               -0.846053012141029     1.739129301107319    -0.752810446996709
    H                0.164946987858971     1.050129301108319     0.519189553003291
    H                1.390946987858972     0.915129301108319    -1.518810446996708
    H                0.799946987858971     3.333129301108319     1.267189553003291
    H               -0.185053012141029     4.040129301108319    -0.021810446996709
    H                2.180835647858971     2.163179301108319    -0.499376446996709
    H                1.130575987858971     2.613899301108320    -1.891065446996709
    H               -0.952126012141029     3.169929301108319     1.323911553003292

}
e, wfn = energy('scf', return_wfn=True)
gdma(wfn)
dmavals = variable('DMA DISTRIBUTED MULTIPOLES')
charges = np.array(dmavals)
print(charges)
np.save('SSI-137SER-156ARG-1-dimer.npy', np.array(charges))--------------------------------------------------------------------------

*** tstart() called on ds3
*** at Sun Apr 26 20:19:53 2020

   => Loading Basis Set <=

    Name: CC-PVDZ
    Role: ORBITAL
    Keyword: BASIS
    atoms 1-2, 10-12 entry C          line   138 file /theoryfs2/ds/metcalf/miniconda2/envs/tf2gpu/share/psi4/basis/cc-pvdz.gbs
    atoms 3          entry O          line   198 file /theoryfs2/ds/metcalf/miniconda2/envs/tf2gpu/share/psi4/basis/cc-pvdz.gbs
    atoms 4-9, 13-20 entry H          line    22 file /theoryfs2/ds/metcalf/miniconda2/envs/tf2gpu/share/psi4/basis/cc-pvdz.gbs

         ---------------------------------------------------------
                                   SCF
               by Justin Turney, Rob Parrish, Andy Simmonett
                          and Daniel G. A. Smith
                              RHF Reference
                        1 Threads,    500 MiB Core
         ---------------------------------------------------------

  ==> Geometry <==

    Molecular point group: c1
    Full point group: C1

    Geometry (in Angstrom), charge = 0, multiplicity = 1:

       Center              X                  Y                   Z               Mass
    ------------   -----------------  -----------------  -----------------  -----------------
         C           -0.473053012141    -1.730870698892     0.392189553003    12.000000000000
         C            0.605946987859    -2.062870698892    -0.637810446997    12.000000000000
         O           -1.236053012141    -2.874870698892     0.721189553003    15.994914619570
         H            0.003946987859    -1.341870698892     1.294189553003     1.007825032230
         H           -1.131053012141    -0.959870698892    -0.010810446997     1.007825032230
         H            1.189946987859    -1.164870698892    -0.829810446997     1.007825032230
         H           -1.976053012141    -2.606870698892     1.283189553003     1.007825032230
         H            0.160873987859    -2.424540698892    -1.576482446997     1.007825032230
         H            1.280921887859    -2.843200698892    -0.256366446997     1.007825032230
         C            0.053946987859     1.895129301107    -0.155810446997    12.000000000000
         C            1.275946987859     1.900129301108    -1.066810446997    12.000000000000
         C           -0.085053012141     3.185129301108     0.647189553003    12.000000000000
         H           -0.846053012141     1.739129301107    -0.752810446997     1.007825032230
         H            0.164946987859     1.050129301108     0.519189553003     1.007825032230
         H            1.390946987859     0.915129301108    -1.518810446997     1.007825032230
         H            0.799946987859     3.333129301108     1.267189553003     1.007825032230
         H           -0.185053012141     4.040129301108    -0.021810446997     1.007825032230
         H            2.180835647859     2.163179301108    -0.499376446997     1.007825032230
         H            1.130575987859     2.613899301108    -1.891065446997     1.007825032230
         H           -0.952126012141     3.169929301108     1.323911553003     1.007825032230

  Running in c1 symmetry.

  Rotational constants: A =      0.16567  B =      0.03147  C =      0.02728 [cm^-1]
  Rotational constants: A =   4966.75891  B =    943.37311  C =    817.79703 [MHz]
  Nuclear repulsion =  240.482133822295850

  Charge       = 0
  Multiplicity = 1
  Electrons    = 52
  Nalpha       = 26
  Nbeta        = 26

  ==> Algorithm <==

  SCF Algorithm Type is PK.
  DIIS enabled.
  MOM disabled.
  Fractional occupation disabled.
  Guess Type is SAD.
  Energy threshold   = 1.00e-06
  Density threshold  = 1.00e-10
  Integral threshold = 0.00e+00

  ==> Primary Basis <==

  Basis Set: CC-PVDZ
    Blend: CC-PVDZ
    Number of shells: 78
    Number of basis function: 154
    Number of Cartesian functions: 160
    Spherical Harmonics?: true
    Max angular momentum: 2

  ==> Pre-Iterations <==

   -------------------------------------------------------
    Irrep   Nso     Nmo     Nalpha   Nbeta   Ndocc  Nsocc
   -------------------------------------------------------
     A        154     154       0       0       0       0
   -------------------------------------------------------
    Total     154     154      26      26      26       0
   -------------------------------------------------------

  ==> Integral Setup <==

  Using integral reordering PK algorithm.
  Sizing the integral batches needed.
  Building batch lookup table.
   Calculation information:
      Number of atoms:                  20
      Number of AO shells:              78
      Number of primitives:            202
      Number of atomic orbitals:       160
      Number of basis functions:       154

      Integral cutoff                 1.00e-12
      Number of threads:                 1

	Batch   1 pq = [       0,    9405] index = [             0,44231715] size =     44231715
	Batch   2 pq = [    9405,   11935] index = [      44231715,71228080] size =     26996365
  Task number: 7
  Buffer size: 11059200
  Buffer per thread: 2
  We computed 4012744 shell quartets total.
  Whereas there are 4747821 unique shell quartets.

  ==> DiskJK: Disk-Based J/K Matrices <==

    J tasked:                  Yes
    K tasked:                  Yes
    wK tasked:                  No
    Memory [MiB]:              375
    Schwarz Cutoff:          1E-12

    OpenMP threads:              1

  Minimum eigenvalue in the overlap matrix is 5.3345119775E-03.
  Using Symmetric Orthogonalization.

  SCF Guess: Superposition of Atomic Densities via on-the-fly atomic UHF.

  ==> Iterations <==

                        Total Energy        Delta E     RMS |[F,P]|

   @RHF iter SAD:  -271.11402177128423   -2.71114e+02   0.00000e+00
   @RHF iter   1:  -272.14596686013971   -1.03195e+00   3.83214e-03 DIIS
   @RHF iter   2:  -272.32219721817739   -1.76230e-01   1.80349e-03 DIIS
   @RHF iter   3:  -272.35723186903130   -3.50347e-02   3.49353e-04 DIIS
   @RHF iter   4:  -272.35972817686763   -2.49631e-03   1.04978e-04 DIIS
   @RHF iter   5:  -272.35986965766784   -1.41481e-04   2.17710e-05 DIIS
   @RHF iter   6:  -272.35987851252935   -8.85486e-06   4.38521e-06 DIIS
   @RHF iter   7:  -272.35987892634813   -4.13819e-07   1.17765e-06 DIIS
   @RHF iter   8:  -272.35987895360307   -2.72549e-08   3.15618e-07 DIIS
   @RHF iter   9:  -272.35987895621093   -2.60786e-09   7.26694e-08 DIIS
   @RHF iter  10:  -272.35987895638084   -1.69905e-10   1.84354e-08 DIIS
   @RHF iter  11:  -272.35987895639175   -1.09139e-11   5.44345e-09 DIIS
   @RHF iter  12:  -272.35987895639255   -7.95808e-13   1.55736e-09 DIIS
   @RHF iter  13:  -272.35987895639175    7.95808e-13   3.34542e-10 DIIS
   @RHF iter  14:  -272.35987895639175    0.00000e+00   8.24215e-11 DIIS
  Energy and wave function converged.

  ==> Post-Iterations <==

    Orbital Energies [Eh]
    ---------------------

    Doubly Occupied:

       1A    -20.545770     2A    -11.274185     3A    -11.224023
       4A    -11.220812     5A    -11.220708     6A    -11.219944
       7A     -1.349917     8A     -1.059202     9A     -1.006939
      10A     -0.928447    11A     -0.832027    12A     -0.801468
      13A     -0.690558    14A     -0.640750    15A     -0.631279
      16A     -0.601492    17A     -0.566742    18A     -0.552445
      19A     -0.536078    20A     -0.529551    21A     -0.522075
      22A     -0.481316    23A     -0.476596    24A     -0.475295
      25A     -0.466550    26A     -0.432343

    Virtual:

      27A      0.168752    28A      0.192854    29A      0.210547
      30A      0.216472    31A      0.222332    32A      0.240881
      33A      0.248463    34A      0.257369    35A      0.274787
      36A      0.287455    37A      0.294346    38A      0.306018
      39A      0.321353    40A      0.363251    41A      0.383798
      42A      0.390387    43A      0.416985    44A      0.445937
      45A      0.571495    46A      0.594896    47A      0.600034
      48A      0.610882    49A      0.621668    50A      0.649459
      51A      0.670083    52A      0.689434    53A      0.760620
      54A      0.787233    55A      0.796072    56A      0.801458
      57A      0.820814    58A      0.852249    59A      0.870515
      60A      0.876594    61A      0.885315    62A      0.890512
      63A      0.896215    64A      0.898672    65A      0.899748
      66A      0.910068    67A      0.917396    68A      0.921533
      69A      0.944140    70A      0.961733    71A      0.989910
      72A      1.004235    73A      1.012374    74A      1.120466
      75A      1.128504    76A      1.145877    77A      1.159545
      78A      1.216029    79A      1.223742    80A      1.263301
      81A      1.328939    82A      1.376968    83A      1.433899
      84A      1.470142    85A      1.473055    86A      1.483173
      87A      1.516176    88A      1.534470    89A      1.581775
      90A      1.604059    91A      1.635084    92A      1.676372
      93A      1.690268    94A      1.691775    95A      1.706292
      96A      1.793620    97A      1.853195    98A      1.867704
      99A      1.878780   100A      1.883254   101A      1.891040
     102A      1.896919   103A      1.909272   104A      1.931569
     105A      1.938571   106A      1.944827   107A      1.955524
     108A      1.958031   109A      1.971760   110A      1.983324
     111A      1.987380   112A      1.992943   113A      2.000344
     114A      2.015529   115A      2.034137   116A      2.079497
     117A      2.101619   118A      2.126152   119A      2.146571
     120A      2.211806   121A      2.247627   122A      2.289533
     123A      2.297576   124A      2.315975   125A      2.320589
     126A      2.335063   127A      2.342724   128A      2.477321
     129A      2.504494   130A      2.519726   131A      2.530232
     132A      2.538530   133A      2.574176   134A      2.589045
     135A      2.619764   136A      2.629288   137A      2.749724
     138A      2.760075   139A      2.764060   140A      2.780357
     141A      2.787906   142A      2.797631   143A      2.830536
     144A      2.904842   145A      2.914366   146A      2.922307
     147A      2.977537   148A      2.980587   149A      3.071415
     150A      3.329766   151A      3.422227   152A      3.467577
     153A      3.647047   154A      4.113150

    Final Occupation by Irrep:
              A
    DOCC [    26 ]

  @RHF Final Energy:  -272.35987895639175

   => Energetics <=

    Nuclear Repulsion Energy =            240.4821338222958502
    One-Electron Energy =                -845.1110048814659876
    Two-Electron Energy =                 332.2689921027783839
    Total Energy =                       -272.3598789563917535

Computation Completed

Properties will be evaluated at   0.000000,   0.000000,   0.000000 [a0]

Properties computed using the SCF density matrix

  Nuclear Dipole Moment: [e a0]
     X:     3.0058      Y:     7.1892      Z:    -1.5618

  Electronic Dipole Moment: [e a0]
     X:    -3.1575      Y:    -6.5730      Z:     1.7523

  Dipole Moment: [e a0]
     X:    -0.1518      Y:     0.6162      Z:     0.1905     Total:     0.6626

  Dipole Moment: [D]
     X:    -0.3858      Y:     1.5661      Z:     0.4841     Total:     1.6840

*** tstop() called on ds3 at Sun Apr 26 20:20:25 2020
Module time:
	user time   =      23.12 seconds =       0.39 minutes
	system time =       9.32 seconds =       0.16 minutes
	total time  =         32 seconds =       0.53 minutes
Total time:
	user time   =      23.12 seconds =       0.39 minutes
	system time =       9.32 seconds =       0.16 minutes
	total time  =         32 seconds =       0.53 minutes
                                     G D M A

                                 by Anthony Stone

                           version 2.2.06, 22 June 2011

               Distributed Multipoles from Gaussian wavefunctions

Starting at 20:20:25 on 26 Apr 2020

Using SCF density matrix from file ./SSI/SSI-137SER-156ARG-1-dimer.test.1508.fchk

                         Distributed Multipole Analysis

Standard DMA

Positions and radii in angstrom
Multipole moments in atomic units, ea_0^k for rank k

C          x = -0.473053  y = -1.730871  z =  0.392190 angstrom
           Maximum rank =  0   Radius =  0.650 angstrom
                   Q00  =   0.096418

C          x =  0.605947  y = -2.062871  z = -0.637810 angstrom
           Maximum rank =  0   Radius =  0.650 angstrom
                   Q00  =  -0.245016

O          x = -1.236053  y = -2.874871  z =  0.721190 angstrom
           Maximum rank =  0   Radius =  0.650 angstrom
                   Q00  =  -0.585243

H          x =  0.003947  y = -1.341871  z =  1.294190 angstrom
           Maximum rank =  0   Radius =  0.325 angstrom
                   Q00  =   0.038312

H          x = -1.131053  y = -0.959871  z = -0.010810 angstrom
           Maximum rank =  0   Radius =  0.325 angstrom
                   Q00  =   0.040299

H          x =  1.189947  y = -1.164871  z = -0.829810 angstrom
           Maximum rank =  0   Radius =  0.325 angstrom
                   Q00  =   0.086680

H          x = -1.976053  y = -2.606871  z =  1.283190 angstrom
           Maximum rank =  0   Radius =  0.325 angstrom
                   Q00  =   0.388259

H          x =  0.160874  y = -2.424541  z = -1.576482 angstrom
           Maximum rank =  0   Radius =  0.325 angstrom
                   Q00  =   0.089517

H          x =  1.280922  y = -2.843201  z = -0.256366 angstrom
           Maximum rank =  0   Radius =  0.325 angstrom
                   Q00  =   0.090908

C          x =  0.053947  y =  1.895129  z = -0.155810 angstrom
           Maximum rank =  0   Radius =  0.650 angstrom
                   Q00  =  -0.071513

C          x =  1.275947  y =  1.900129  z = -1.066810 angstrom
           Maximum rank =  0   Radius =  0.650 angstrom
                   Q00  =  -0.253459

C          x = -0.085053  y =  3.185129  z =  0.647190 angstrom
           Maximum rank =  0   Radius =  0.650 angstrom
                   Q00  =  -0.243615

H          x = -0.846053  y =  1.739129  z = -0.752810 angstrom
           Maximum rank =  0   Radius =  0.325 angstrom
                   Q00  =   0.048444

H          x =  0.164947  y =  1.050129  z =  0.519190 angstrom
           Maximum rank =  0   Radius =  0.325 angstrom
                   Q00  =   0.042881

H          x =  1.390947  y =  0.915129  z = -1.518810 angstrom
           Maximum rank =  0   Radius =  0.325 angstrom
                   Q00  =   0.084163

H          x =  0.799947  y =  3.333129  z =  1.267190 angstrom
           Maximum rank =  0   Radius =  0.325 angstrom
                   Q00  =   0.076790

H          x = -0.185053  y =  4.040129  z = -0.021810 angstrom
           Maximum rank =  0   Radius =  0.325 angstrom
                   Q00  =   0.078208

H          x =  2.180836  y =  2.163179  z = -0.499376 angstrom
           Maximum rank =  0   Radius =  0.325 angstrom
                   Q00  =   0.077701

H          x =  1.130576  y =  2.613899  z = -1.891065 angstrom
           Maximum rank =  0   Radius =  0.325 angstrom
                   Q00  =   0.077215

H          x = -0.952126  y =  3.169929  z =  1.323912 angstrom
           Maximum rank =  0   Radius =  0.325 angstrom
                   Q00  =   0.083051

Total multipoles referred to origin at
           x =   0.000000,  y =    0.000000,  z =    0.000000 angstrom
                   Q00  =  -0.000000

Finished at 20:20:25 on 26 Apr 2020

  DMA results are available in the Python driver through the
	  variable('DMA DISTRIBUTED MULTIPOLES')
  and
	  variable('DMA TOTAL MULTIPOLES')
  commands.

    Psi4 stopped on: Sunday, 26 April 2020 08:20PM
    Psi4 wall time for execution: 0:00:31.93

*** Psi4 exiting successfully. Buy a developer a beer!
