                               Psi4 1.3.2 release

  ==> Input File <==

--------------------------------------------------------------------------
import numpy as np
set {scf_type pk
basis cc-pvdz
d_convergence 10
gdma_switch   0
gdma_limit    0
gdma_origin   [ 0.0,  0.0,  0.0 ]
}
molecule test {
    units Angstrom
    1 1
    --
    1 1
    C                2.305533084743987     0.245900095302604    -1.259416410172075
    C                1.556533084743987     1.168900095302604    -0.321416410172075
    O                0.683533084743987     0.727900095302604     0.423583589827925
    N                1.876533084743987     2.453900095302604    -0.332416410172075
    H                3.192533084743987     0.736900095302604    -1.654416410172075
    H                1.645533084743987     0.050900095302604    -2.104416410172075
    H                1.376533084743987     3.079900095302603     0.281583589827925
    H                2.584533084743987     2.801900095302603    -0.963416410172075
    H                2.556575084743987    -0.701599904697396    -0.760201410172075
    C               -1.713466915256013    -1.477099904697396     0.966583589827925
    C               -2.807466915256013    -2.525099904697397     0.850583589827925
    N               -1.691466915256013    -0.609099904697396    -0.250416410172075
    H               -1.901466915256013    -0.866099904697396     1.856583589827925
    H               -0.744466915256013    -1.974099904697396     1.090583589827925
    H               -2.655466915256013    -3.114099904697396    -0.051416410172075
    H               -3.777466915256013    -2.029099904697396     0.764583589827925
    H               -0.981466915256013     0.113900095302604    -0.143416410172075
    H               -2.582466915256013    -0.148099904697396    -0.400416410172075
    H               -1.460466915256013    -1.146099904697396    -1.087416410172075
    H               -2.826954915256013    -3.181179904697396     1.733293589827925

}
e, wfn = energy('scf', return_wfn=True)
gdma(wfn)
dmavals = variable('DMA DISTRIBUTED MULTIPOLES')
charges = np.array(dmavals)
print(charges)
np.save('SSI-014ASN-061LYS-1-dimer.npy', np.array(charges))--------------------------------------------------------------------------

*** tstart() called on ds3
*** at Sun Apr 26 21:55:51 2020

   => Loading Basis Set <=

    Name: CC-PVDZ
    Role: ORBITAL
    Keyword: BASIS
    atoms 1-2, 10-11 entry C          line   138 file /theoryfs2/ds/metcalf/miniconda2/envs/tf2gpu/share/psi4/basis/cc-pvdz.gbs
    atoms 3          entry O          line   198 file /theoryfs2/ds/metcalf/miniconda2/envs/tf2gpu/share/psi4/basis/cc-pvdz.gbs
    atoms 4, 12      entry N          line   168 file /theoryfs2/ds/metcalf/miniconda2/envs/tf2gpu/share/psi4/basis/cc-pvdz.gbs
    atoms 5-9, 13-20 entry H          line    22 file /theoryfs2/ds/metcalf/miniconda2/envs/tf2gpu/share/psi4/basis/cc-pvdz.gbs

         ---------------------------------------------------------
                                   SCF
               by Justin Turney, Rob Parrish, Andy Simmonett
                          and Daniel G. A. Smith
                              RHF Reference
                        1 Threads,    500 MiB Core
         ---------------------------------------------------------

  ==> Geometry <==

    Molecular point group: c1
    Full point group: C1

    Geometry (in Angstrom), charge = 1, multiplicity = 1:

       Center              X                  Y                   Z               Mass
    ------------   -----------------  -----------------  -----------------  -----------------
         C            2.305533084744     0.245900095303    -1.259416410172    12.000000000000
         C            1.556533084744     1.168900095303    -0.321416410172    12.000000000000
         O            0.683533084744     0.727900095303     0.423583589828    15.994914619570
         N            1.876533084744     2.453900095303    -0.332416410172    14.003074004430
         H            3.192533084744     0.736900095303    -1.654416410172     1.007825032230
         H            1.645533084744     0.050900095303    -2.104416410172     1.007825032230
         H            1.376533084744     3.079900095303     0.281583589828     1.007825032230
         H            2.584533084744     2.801900095303    -0.963416410172     1.007825032230
         H            2.556575084744    -0.701599904697    -0.760201410172     1.007825032230
         C           -1.713466915256    -1.477099904697     0.966583589828    12.000000000000
         C           -2.807466915256    -2.525099904697     0.850583589828    12.000000000000
         N           -1.691466915256    -0.609099904697    -0.250416410172    14.003074004430
         H           -1.901466915256    -0.866099904697     1.856583589828     1.007825032230
         H           -0.744466915256    -1.974099904697     1.090583589828     1.007825032230
         H           -2.655466915256    -3.114099904697    -0.051416410172     1.007825032230
         H           -3.777466915256    -2.029099904697     0.764583589828     1.007825032230
         H           -0.981466915256     0.113900095303    -0.143416410172     1.007825032230
         H           -2.582466915256    -0.148099904697    -0.400416410172     1.007825032230
         H           -1.460466915256    -1.146099904697    -1.087416410172     1.007825032230
         H           -2.826954915256    -3.181179904697     1.733293589828     1.007825032230

  Running in c1 symmetry.

  Rotational constants: A =      0.20093  B =      0.02542  C =      0.02421 [cm^-1]
  Rotational constants: A =   6023.66306  B =    761.94123  C =    725.73108 [MHz]
  Nuclear repulsion =  314.018431907187903

  Charge       = 1
  Multiplicity = 1
  Electrons    = 58
  Nalpha       = 29
  Nbeta        = 29

  ==> Algorithm <==

  SCF Algorithm Type is PK.
  DIIS enabled.
  MOM disabled.
  Fractional occupation disabled.
  Guess Type is SAD.
  Energy threshold   = 1.00e-06
  Density threshold  = 1.00e-10
  Integral threshold = 0.00e+00

  ==> Primary Basis <==

  Basis Set: CC-PVDZ
    Blend: CC-PVDZ
    Number of shells: 81
    Number of basis function: 163
    Number of Cartesian functions: 170
    Spherical Harmonics?: true
    Max angular momentum: 2

  ==> Pre-Iterations <==

   -------------------------------------------------------
    Irrep   Nso     Nmo     Nalpha   Nbeta   Ndocc  Nsocc
   -------------------------------------------------------
     A        163     163       0       0       0       0
   -------------------------------------------------------
    Total     163     163      29      29      29       0
   -------------------------------------------------------

  ==> Integral Setup <==

  Using integral reordering PK algorithm.
  Sizing the integral batches needed.
  Building batch lookup table.
   Calculation information:
      Number of atoms:                  20
      Number of AO shells:              81
      Number of primitives:            219
      Number of atomic orbitals:       170
      Number of basis functions:       163

      Integral cutoff                 1.00e-12
      Number of threads:                 1

	Batch   1 pq = [       0,    9405] index = [             0,44231715] size =     44231715
	Batch   2 pq = [    9405,   13366] index = [      44231715,89331661] size =     45099946
  Task number: 9
  Buffer size: 11059200
  Buffer per thread: 2
  We computed 4476137 shell quartets total.
  Whereas there are 5516181 unique shell quartets.

  ==> DiskJK: Disk-Based J/K Matrices <==

    J tasked:                  Yes
    K tasked:                  Yes
    wK tasked:                  No
    Memory [MiB]:              375
    Schwarz Cutoff:          1E-12

    OpenMP threads:              1

  Minimum eigenvalue in the overlap matrix is 4.5672929487E-03.
  Using Symmetric Orthogonalization.

  SCF Guess: Superposition of Atomic Densities via on-the-fly atomic UHF.

  ==> Iterations <==

                        Total Energy        Delta E     RMS |[F,P]|

   @RHF iter SAD:  -341.81301952871524   -3.41813e+02   0.00000e+00
   @RHF iter   1:  -342.44505776090216   -6.32038e-01   3.81366e-03 DIIS
   @RHF iter   2:  -342.62293603012517   -1.77878e-01   1.86800e-03 DIIS
   @RHF iter   3:  -342.65910092975730   -3.61649e-02   4.77646e-04 DIIS
   @RHF iter   4:  -342.66256136704220   -3.46044e-03   1.65009e-04 DIIS
   @RHF iter   5:  -342.66298575736289   -4.24390e-04   2.87427e-05 DIIS
   @RHF iter   6:  -342.66300812200598   -2.23646e-05   1.11684e-05 DIIS
   @RHF iter   7:  -342.66301072324899   -2.60124e-06   3.35953e-06 DIIS
   @RHF iter   8:  -342.66301116537227   -4.42123e-07   1.20935e-06 DIIS
   @RHF iter   9:  -342.66301122102880   -5.56565e-08   3.45599e-07 DIIS
   @RHF iter  10:  -342.66301122602101   -4.99222e-09   1.14054e-07 DIIS
   @RHF iter  11:  -342.66301122645427   -4.33261e-10   3.10259e-08 DIIS
   @RHF iter  12:  -342.66301122648480   -3.05249e-11   7.35905e-09 DIIS
   @RHF iter  13:  -342.66301122648565   -8.52651e-13   1.61000e-09 DIIS
   @RHF iter  14:  -342.66301122648633   -6.82121e-13   6.63444e-10 DIIS
   @RHF iter  15:  -342.66301122648497    1.36424e-12   2.09108e-10 DIIS
   @RHF iter  16:  -342.66301122648434    6.25278e-13   8.47054e-11 DIIS
  Energy and wave function converged.

  ==> Post-Iterations <==

    Orbital Energies [Eh]
    ---------------------

    Doubly Occupied:

       1A    -20.655723     2A    -15.857551     3A    -15.721530
       4A    -11.493746     5A    -11.451421     6A    -11.383257
       7A    -11.369803     8A     -1.522154     9A     -1.479375
      10A     -1.352110    11A     -1.192577    12A     -1.131712
      13A     -1.026382    14A     -0.942583    15A     -0.939927
      16A     -0.917686    17A     -0.857283    18A     -0.827192
      19A     -0.800603    20A     -0.770097    21A     -0.748082
      22A     -0.716556    23A     -0.697351    24A     -0.687995
      25A     -0.678163    26A     -0.661539    27A     -0.657008
      28A     -0.563005    29A     -0.549747

    Virtual:

      30A     -0.015798    31A      0.034267    32A      0.050986
      33A      0.056496    34A      0.061522    35A      0.090334
      36A      0.106871    37A      0.111508    38A      0.114591
      39A      0.124327    40A      0.144791    41A      0.159594
      42A      0.165380    43A      0.168742    44A      0.195000
      45A      0.231288    46A      0.257305    47A      0.358245
      48A      0.408349    49A      0.419886    50A      0.434078
      51A      0.448388    52A      0.462085    53A      0.475602
      54A      0.514875    55A      0.537972    56A      0.567087
      57A      0.572112    58A      0.598988    59A      0.615688
      60A      0.644206    61A      0.660999    62A      0.672163
      63A      0.692035    64A      0.698602    65A      0.717038
      66A      0.730723    67A      0.734657    68A      0.736954
      69A      0.749440    70A      0.766951    71A      0.788057
      72A      0.795702    73A      0.817505    74A      0.820895
      75A      0.832540    76A      0.874916    77A      0.885300
      78A      0.914030    79A      0.932995    80A      0.949429
      81A      0.974650    82A      0.998452    83A      1.058478
      84A      1.091514    85A      1.197239    86A      1.211186
      87A      1.246598    88A      1.267112    89A      1.287806
      90A      1.293100    91A      1.311509    92A      1.323114
      93A      1.345133    94A      1.367164    95A      1.430038
      96A      1.496542    97A      1.511164    98A      1.523767
      99A      1.529402   100A      1.544898   101A      1.577994
     102A      1.641143   103A      1.689971   104A      1.701419
     105A      1.713129   106A      1.719830   107A      1.744416
     108A      1.756388   109A      1.767278   110A      1.775876
     111A      1.778342   112A      1.790265   113A      1.798360
     114A      1.806798   115A      1.812286   116A      1.843648
     117A      1.875018   118A      1.905162   119A      1.914467
     120A      1.918388   121A      1.934103   122A      1.978592
     123A      1.992522   124A      2.033688   125A      2.054896
     126A      2.091524   127A      2.115282   128A      2.154715
     129A      2.171267   130A      2.190653   131A      2.213188
     132A      2.271551   133A      2.317124   134A      2.325780
     135A      2.338746   136A      2.363886   137A      2.394438
     138A      2.410530   139A      2.441564   140A      2.485431
     141A      2.512189   142A      2.550467   143A      2.589244
     144A      2.603566   145A      2.614514   146A      2.638238
     147A      2.656998   148A      2.681195   149A      2.689906
     150A      2.720131   151A      2.781160   152A      2.829554
     153A      2.845615   154A      2.871405   155A      2.952864
     156A      2.985151   157A      3.134395   158A      3.152424
     159A      3.217279   160A      3.355861   161A      3.386000
     162A      3.731875   163A      3.793271

    Final Occupation by Irrep:
              A
    DOCC [    29 ]

  @RHF Final Energy:  -342.66301122648434

   => Energetics <=

    Nuclear Repulsion Energy =            314.0184319071879031
    One-Electron Energy =               -1078.0585735269485212
    Two-Electron Energy =                 421.3771303932762180
    Total Energy =                       -342.6630112264843433

Computation Completed

Properties will be evaluated at   0.000000,   0.000000,   0.000000 [a0]

Properties computed using the SCF density matrix

  Nuclear Dipole Moment: [e a0]
     X:    -5.2232      Y:    -5.9800      Z:    -1.3448

  Electronic Dipole Moment: [e a0]
     X:     3.7922      Y:     5.7647      Z:     0.2783

  Dipole Moment: [e a0]
     X:    -1.4310      Y:    -0.2153      Z:    -1.0665     Total:     1.7976

  Dipole Moment: [D]
     X:    -3.6372      Y:    -0.5472      Z:    -2.7108     Total:     4.5691

*** tstop() called on ds3 at Sun Apr 26 21:56:33 2020
Module time:
	user time   =      28.91 seconds =       0.48 minutes
	system time =      13.78 seconds =       0.23 minutes
	total time  =         42 seconds =       0.70 minutes
Total time:
	user time   =      28.91 seconds =       0.48 minutes
	system time =      13.78 seconds =       0.23 minutes
	total time  =         42 seconds =       0.70 minutes
                                     G D M A

                                 by Anthony Stone

                           version 2.2.06, 22 June 2011

               Distributed Multipoles from Gaussian wavefunctions

Starting at 21:56:33 on 26 Apr 2020

Using SCF density matrix from file ./SSI/SSI-014ASN-061LYS-1-dimer.test.17434.fchk

                         Distributed Multipole Analysis

Standard DMA

Positions and radii in angstrom
Multipole moments in atomic units, ea_0^k for rank k

C          x =  2.305533  y =  0.245900  z = -1.259416 angstrom
           Maximum rank =  0   Radius =  0.650 angstrom
                   Q00  =  -0.253596

C          x =  1.556533  y =  1.168900  z = -0.321416 angstrom
           Maximum rank =  0   Radius =  0.650 angstrom
                   Q00  =   0.811501

O          x =  0.683533  y =  0.727900  z =  0.423584 angstrom
           Maximum rank =  0   Radius =  0.650 angstrom
                   Q00  =  -0.838785

N          x =  1.876533  y =  2.453900  z = -0.332416 angstrom
           Maximum rank =  0   Radius =  0.650 angstrom
                   Q00  =  -0.534604

H          x =  3.192533  y =  0.736900  z = -1.654416 angstrom
           Maximum rank =  0   Radius =  0.325 angstrom
                   Q00  =   0.114419

H          x =  1.645533  y =  0.050900  z = -2.104416 angstrom
           Maximum rank =  0   Radius =  0.325 angstrom
                   Q00  =   0.120803

H          x =  1.376533  y =  3.079900  z =  0.281584 angstrom
           Maximum rank =  0   Radius =  0.325 angstrom
                   Q00  =   0.242078

H          x =  2.584533  y =  2.801900  z = -0.963416 angstrom
           Maximum rank =  0   Radius =  0.325 angstrom
                   Q00  =   0.237840

H          x =  2.556575  y = -0.701600  z = -0.760201 angstrom
           Maximum rank =  0   Radius =  0.325 angstrom
                   Q00  =   0.139722

C          x = -1.713467  y = -1.477100  z =  0.966584 angstrom
           Maximum rank =  0   Radius =  0.650 angstrom
                   Q00  =  -0.001864

C          x = -2.807467  y = -2.525100  z =  0.850584 angstrom
           Maximum rank =  0   Radius =  0.650 angstrom
                   Q00  =  -0.228503

N          x = -1.691467  y = -0.609100  z = -0.250416 angstrom
           Maximum rank =  0   Radius =  0.650 angstrom
                   Q00  =  -0.170316

H          x = -1.901467  y = -0.866100  z =  1.856584 angstrom
           Maximum rank =  0   Radius =  0.325 angstrom
                   Q00  =   0.129009

H          x = -0.744467  y = -1.974100  z =  1.090584 angstrom
           Maximum rank =  0   Radius =  0.325 angstrom
                   Q00  =   0.127714

H          x = -2.655467  y = -3.114100  z = -0.051416 angstrom
           Maximum rank =  0   Radius =  0.325 angstrom
                   Q00  =   0.095881

H          x = -3.777467  y = -2.029100  z =  0.764584 angstrom
           Maximum rank =  0   Radius =  0.325 angstrom
                   Q00  =   0.098259

H          x = -0.981467  y =  0.113900  z = -0.143416 angstrom
           Maximum rank =  0   Radius =  0.325 angstrom
                   Q00  =   0.285166

H          x = -2.582467  y = -0.148100  z = -0.400416 angstrom
           Maximum rank =  0   Radius =  0.325 angstrom
                   Q00  =   0.237326

H          x = -1.460467  y = -1.146100  z = -1.087416 angstrom
           Maximum rank =  0   Radius =  0.325 angstrom
                   Q00  =   0.240498

H          x = -2.826955  y = -3.181180  z =  1.733294 angstrom
           Maximum rank =  0   Radius =  0.325 angstrom
                   Q00  =   0.147453

Total multipoles referred to origin at
           x =   0.000000,  y =    0.000000,  z =    0.000000 angstrom
                   Q00  =   1.000000

Finished at 21:56:33 on 26 Apr 2020

  DMA results are available in the Python driver through the
	  variable('DMA DISTRIBUTED MULTIPOLES')
  and
	  variable('DMA TOTAL MULTIPOLES')
  commands.

    Psi4 stopped on: Sunday, 26 April 2020 09:56PM
    Psi4 wall time for execution: 0:00:41.37

*** Psi4 exiting successfully. Buy a developer a beer!
