                               Psi4 1.3.2 release

  ==> Input File <==

--------------------------------------------------------------------------
import numpy as np
set {scf_type pk
basis cc-pvdz
d_convergence 10
gdma_switch   0
gdma_limit    0
gdma_origin   [ 0.0,  0.0,  0.0 ]
}
molecule test {
    units Angstrom
    1 1
    --
    1 1
    C                1.733742801210337     1.369629448503515    -1.469963596446176
    C               -0.465257198789663     0.365629448503515    -0.848963596446176
    N                0.783742801210337     0.275629448503515    -1.283963596446176
    N               -0.992257198789663     1.519629448503515    -0.490963596446176
    N               -1.198257198789663    -0.734370551496485    -0.808963596446176
    H                1.054742801210338    -0.626370551496485    -1.659963596446176
    H               -0.460257198789663     2.366629448503515    -0.585963596446176
    H               -1.947257198789663     1.565629448503515    -0.171963596446176
    H               -0.822257198789663    -1.593370551496485    -1.185963596446176
    H               -2.166257198789662    -0.687370551496485    -0.533963596446176
    H                1.296742801210337     2.104629448503515    -2.146963596446176
    H                2.629742801210337     0.981629448503515    -1.932963596446176
    H                2.032207501210337     1.894749448503515    -0.550633596446176
    C               -0.026257198789663    -1.810370551496485     1.815036403553824
    C                0.209742801210337    -0.964370551496485     3.036036403553824
    H               -1.030257198789663    -1.702370551496485     1.431036403553824
    H                0.687742801210337    -1.533370551496485     1.041036403553824
    H                0.143742801210337    -2.859370551496485     2.053036403553824
    H               -0.060257198789663     0.072629448503515     2.828036403553824
    H                1.271742801210337    -1.003370551496485     3.278036403553824
    H               -0.372316198789663    -1.343720551496485     3.888856403553824

}
e, wfn = energy('scf', return_wfn=True)
gdma(wfn)
dmavals = variable('DMA DISTRIBUTED MULTIPOLES')
charges = np.array(dmavals)
print(charges)
np.save('SSI-004ARG-057ILE-2-dimer.npy', np.array(charges))--------------------------------------------------------------------------

*** tstart() called on ds3
*** at Tue Apr 28 09:53:03 2020

   => Loading Basis Set <=

    Name: CC-PVDZ
    Role: ORBITAL
    Keyword: BASIS
    atoms 1-2, 14-15  entry C          line   138 file /theoryfs2/ds/metcalf/miniconda2/envs/tf2gpu/share/psi4/basis/cc-pvdz.gbs
    atoms 3-5         entry N          line   168 file /theoryfs2/ds/metcalf/miniconda2/envs/tf2gpu/share/psi4/basis/cc-pvdz.gbs
    atoms 6-13, 16-21 entry H          line    22 file /theoryfs2/ds/metcalf/miniconda2/envs/tf2gpu/share/psi4/basis/cc-pvdz.gbs

         ---------------------------------------------------------
                                   SCF
               by Justin Turney, Rob Parrish, Andy Simmonett
                          and Daniel G. A. Smith
                              RHF Reference
                        1 Threads,    500 MiB Core
         ---------------------------------------------------------

  ==> Geometry <==

    Molecular point group: c1
    Full point group: C1

    Geometry (in Angstrom), charge = 1, multiplicity = 1:

       Center              X                  Y                   Z               Mass
    ------------   -----------------  -----------------  -----------------  -----------------
         C            1.733742801210     1.369629448504    -1.469963596446    12.000000000000
         C           -0.465257198790     0.365629448504    -0.848963596446    12.000000000000
         N            0.783742801210     0.275629448504    -1.283963596446    14.003074004430
         N           -0.992257198790     1.519629448504    -0.490963596446    14.003074004430
         N           -1.198257198790    -0.734370551496    -0.808963596446    14.003074004430
         H            1.054742801210    -0.626370551496    -1.659963596446     1.007825032230
         H           -0.460257198790     2.366629448504    -0.585963596446     1.007825032230
         H           -1.947257198790     1.565629448504    -0.171963596446     1.007825032230
         H           -0.822257198790    -1.593370551496    -1.185963596446     1.007825032230
         H           -2.166257198790    -0.687370551496    -0.533963596446     1.007825032230
         H            1.296742801210     2.104629448504    -2.146963596446     1.007825032230
         H            2.629742801210     0.981629448504    -1.932963596446     1.007825032230
         H            2.032207501210     1.894749448504    -0.550633596446     1.007825032230
         C           -0.026257198790    -1.810370551496     1.815036403554    12.000000000000
         C            0.209742801210    -0.964370551496     3.036036403554    12.000000000000
         H           -1.030257198790    -1.702370551496     1.431036403554     1.007825032230
         H            0.687742801210    -1.533370551496     1.041036403554     1.007825032230
         H            0.143742801210    -2.859370551496     2.053036403554     1.007825032230
         H           -0.060257198790     0.072629448504     2.828036403554     1.007825032230
         H            1.271742801210    -1.003370551496     3.278036403554     1.007825032230
         H           -0.372316198790    -1.343720551496     3.888856403554     1.007825032230

  Running in c1 symmetry.

  Rotational constants: A =      0.09809  B =      0.03937  C =      0.03565 [cm^-1]
  Rotational constants: A =   2940.56006  B =   1180.37844  C =   1068.87919 [MHz]
  Nuclear repulsion =  329.975479086889777

  Charge       = 1
  Multiplicity = 1
  Electrons    = 58
  Nalpha       = 29
  Nbeta        = 29

  ==> Algorithm <==

  SCF Algorithm Type is PK.
  DIIS enabled.
  MOM disabled.
  Fractional occupation disabled.
  Guess Type is SAD.
  Energy threshold   = 1.00e-06
  Density threshold  = 1.00e-10
  Integral threshold = 0.00e+00

  ==> Primary Basis <==

  Basis Set: CC-PVDZ
    Blend: CC-PVDZ
    Number of shells: 84
    Number of basis function: 168
    Number of Cartesian functions: 175
    Spherical Harmonics?: true
    Max angular momentum: 2

  ==> Pre-Iterations <==

   -------------------------------------------------------
    Irrep   Nso     Nmo     Nalpha   Nbeta   Ndocc  Nsocc
   -------------------------------------------------------
     A        168     168       0       0       0       0
   -------------------------------------------------------
    Total     168     168      29      29      29       0
   -------------------------------------------------------

  ==> Integral Setup <==

  Using integral reordering PK algorithm.
  Sizing the integral batches needed.
  Building batch lookup table.
   Calculation information:
      Number of atoms:                  21
      Number of AO shells:              84
      Number of primitives:            224
      Number of atomic orbitals:       175
      Number of basis functions:       168

      Integral cutoff                 1.00e-12
      Number of threads:                 1

	Batch   1 pq = [       0,    9405] index = [             0,44231715] size =     44231715
	Batch   2 pq = [    9405,   13301] index = [      44231715,88464951] size =     44233236
	Batch   3 pq = [   13301,   14196] index = [      88464951,100770306] size =     12305355
  Task number: 10
  Buffer size: 11059200
  Buffer per thread: 2
  We computed 6107918 shell quartets total.
  Whereas there are 6374235 unique shell quartets.

  ==> DiskJK: Disk-Based J/K Matrices <==

    J tasked:                  Yes
    K tasked:                  Yes
    wK tasked:                  No
    Memory [MiB]:              375
    Schwarz Cutoff:          1E-12

    OpenMP threads:              1

  Minimum eigenvalue in the overlap matrix is 3.3185074897E-03.
  Using Symmetric Orthogonalization.

  SCF Guess: Superposition of Atomic Densities via on-the-fly atomic UHF.

  ==> Iterations <==

                        Total Energy        Delta E     RMS |[F,P]|

   @RHF iter SAD:  -322.20207200988727   -3.22202e+02   0.00000e+00
   @RHF iter   1:  -322.60632224890270   -4.04250e-01   3.45917e-03 DIIS
   @RHF iter   2:  -322.78163181068516   -1.75310e-01   1.36529e-03 DIIS
   @RHF iter   3:  -322.80775769648977   -2.61259e-02   3.21416e-04 DIIS
   @RHF iter   4:  -322.81021084395599   -2.45315e-03   5.04593e-05 DIIS
   @RHF iter   5:  -322.81027460790824   -6.37640e-05   2.09539e-05 DIIS
   @RHF iter   6:  -322.81028337448072   -8.76657e-06   4.29423e-06 DIIS
   @RHF iter   7:  -322.81028400824232   -6.33762e-07   1.41657e-06 DIIS
   @RHF iter   8:  -322.81028405535784   -4.71155e-08   4.26548e-07 DIIS
   @RHF iter   9:  -322.81028405967720   -4.31936e-09   9.65952e-08 DIIS
   @RHF iter  10:  -322.81028405992970   -2.52498e-10   2.82074e-08 DIIS
   @RHF iter  11:  -322.81028405994721   -1.75078e-11   6.79881e-09 DIIS
   @RHF iter  12:  -322.81028405994857   -1.36424e-12   2.14358e-09 DIIS
   @RHF iter  13:  -322.81028405994937   -7.95808e-13   8.21485e-10 DIIS
   @RHF iter  14:  -322.81028405995113   -1.76215e-12   2.93433e-10 DIIS
   @RHF iter  15:  -322.81028405994994    1.19371e-12   6.26098e-11 DIIS
  Energy and wave function converged.

  ==> Post-Iterations <==

    Orbital Energies [Eh]
    ---------------------

    Doubly Occupied:

       1A    -15.792932     2A    -15.788387     3A    -15.785040
       4A    -11.590834     5A    -11.441070     6A    -11.328956
       7A    -11.322322     8A     -1.547103     9A     -1.404807
      10A     -1.393232    11A     -1.145148    12A     -1.137400
      13A     -1.040123    14A     -0.977816    15A     -0.948627
      16A     -0.941290    17A     -0.865089    18A     -0.858319
      19A     -0.826133    20A     -0.798723    21A     -0.744654
      22A     -0.724778    23A     -0.715387    24A     -0.710626
      25A     -0.629285    26A     -0.611710    27A     -0.599517
      28A     -0.590167    29A     -0.579956

    Virtual:

      30A     -0.014603    31A      0.018529    32A      0.023860
      33A      0.028665    34A      0.062599    35A      0.074652
      36A      0.089336    37A      0.116477    38A      0.120752
      39A      0.125493    40A      0.142442    41A      0.158263
      42A      0.166362    43A      0.179270    44A      0.191274
      45A      0.201561    46A      0.280994    47A      0.292887
      48A      0.324515    49A      0.334941    50A      0.432620
      51A      0.454670    52A      0.483127    53A      0.491157
      54A      0.495491    55A      0.512092    56A      0.522336
      57A      0.529247    58A      0.537648    59A      0.565340
      60A      0.568980    61A      0.583399    62A      0.681592
      63A      0.684839    64A      0.695171    65A      0.701432
      66A      0.712750    67A      0.735884    68A      0.748744
      69A      0.759506    70A      0.768502    71A      0.778801
      72A      0.792737    73A      0.797979    74A      0.802057
      75A      0.830971    76A      0.844604    77A      0.855750
      78A      0.877520    79A      0.899832    80A      0.916394
      81A      0.931002    82A      0.945274    83A      1.013274
      84A      1.027650    85A      1.047163    86A      1.075302
      87A      1.098430    88A      1.124011    89A      1.146410
      90A      1.153696    91A      1.201196    92A      1.224271
      93A      1.246110    94A      1.285359    95A      1.368840
      96A      1.388343    97A      1.408416    98A      1.457794
      99A      1.499608   100A      1.500696   101A      1.508850
     102A      1.516669   103A      1.523677   104A      1.581571
     105A      1.608537   106A      1.619718   107A      1.684418
     108A      1.701369   109A      1.732653   110A      1.737810
     111A      1.747048   112A      1.754430   113A      1.760329
     114A      1.775389   115A      1.794209   116A      1.812059
     117A      1.822918   118A      1.839116   119A      1.842244
     120A      1.845513   121A      1.860458   122A      1.863430
     123A      1.877337   124A      1.889781   125A      1.924527
     126A      1.994919   127A      2.019206   128A      2.036020
     129A      2.038762   130A      2.079441   131A      2.114035
     132A      2.141992   133A      2.178708   134A      2.202692
     135A      2.215462   136A      2.240413   137A      2.259734
     138A      2.281045   139A      2.309403   140A      2.338500
     141A      2.351705   142A      2.372594   143A      2.383616
     144A      2.434253   145A      2.459704   146A      2.470964
     147A      2.484128   148A      2.532530   149A      2.589094
     150A      2.600938   151A      2.653797   152A      2.668068
     153A      2.686355   154A      2.706728   155A      2.754203
     156A      2.758403   157A      2.776303   158A      2.805580
     159A      2.820683   160A      2.833674   161A      2.870967
     162A      2.881164   163A      2.907580   164A      3.064752
     165A      3.110532   166A      3.127068   167A      3.560860
     168A      3.641386

    Final Occupation by Irrep:
              A
    DOCC [    29 ]

  @RHF Final Energy:  -322.81028405994994

   => Energetics <=

    Nuclear Repulsion Energy =            329.9754790868897771
    One-Electron Energy =               -1079.8926591509118680
    Two-Electron Energy =                 427.1068960040721549
    Total Energy =                       -322.8102840599499359

Computation Completed

Properties will be evaluated at   0.000000,   0.000000,   0.000000 [a0]

Properties computed using the SCF density matrix

  Nuclear Dipole Moment: [e a0]
     X:     2.1207      Y:    -2.2187      Z:     5.3995

  Electronic Dipole Moment: [e a0]
     X:    -2.7242      Y:     3.0037      Z:    -7.1299

  Dipole Moment: [e a0]
     X:    -0.6035      Y:     0.7849      Z:    -1.7303     Total:     1.9936

  Dipole Moment: [D]
     X:    -1.5340      Y:     1.9951      Z:    -4.3981     Total:     5.0673

*** tstop() called on ds3 at Tue Apr 28 09:53:58 2020
Module time:
	user time   =      41.32 seconds =       0.69 minutes
	system time =      15.15 seconds =       0.25 minutes
	total time  =         55 seconds =       0.92 minutes
Total time:
	user time   =      41.32 seconds =       0.69 minutes
	system time =      15.15 seconds =       0.25 minutes
	total time  =         55 seconds =       0.92 minutes
                                     G D M A

                                 by Anthony Stone

                           version 2.2.06, 22 June 2011

               Distributed Multipoles from Gaussian wavefunctions

Starting at 9:53:58 on 28 Apr 2020

Using SCF density matrix from file ./SSI/SSI-004ARG-057ILE-2-dimer.test.23995.fchk

                         Distributed Multipole Analysis

Standard DMA

Positions and radii in angstrom
Multipole moments in atomic units, ea_0^k for rank k

C          x =  1.733743  y =  1.369629  z = -1.469964 angstrom
           Maximum rank =  0   Radius =  0.650 angstrom
                   Q00  =  -0.135349

C          x = -0.465257  y =  0.365629  z = -0.848964 angstrom
           Maximum rank =  0   Radius =  0.650 angstrom
                   Q00  =   1.080600

N          x =  0.783743  y =  0.275629  z = -1.283964 angstrom
           Maximum rank =  0   Radius =  0.650 angstrom
                   Q00  =  -0.488002

N          x = -0.992257  y =  1.519629  z = -0.490964 angstrom
           Maximum rank =  0   Radius =  0.650 angstrom
                   Q00  =  -0.585617

N          x = -1.198257  y = -0.734371  z = -0.808964 angstrom
           Maximum rank =  0   Radius =  0.650 angstrom
                   Q00  =  -0.571189

H          x =  1.054743  y = -0.626371  z = -1.659964 angstrom
           Maximum rank =  0   Radius =  0.325 angstrom
                   Q00  =   0.229814

H          x = -0.460257  y =  2.366629  z = -0.585964 angstrom
           Maximum rank =  0   Radius =  0.325 angstrom
                   Q00  =   0.273297

H          x = -1.947257  y =  1.565629  z = -0.171964 angstrom
           Maximum rank =  0   Radius =  0.325 angstrom
                   Q00  =   0.269901

H          x = -0.822257  y = -1.593371  z = -1.185964 angstrom
           Maximum rank =  0   Radius =  0.325 angstrom
                   Q00  =   0.267245

H          x = -2.166257  y = -0.687371  z = -0.533964 angstrom
           Maximum rank =  0   Radius =  0.325 angstrom
                   Q00  =   0.265519

H          x =  1.296743  y =  2.104629  z = -2.146964 angstrom
           Maximum rank =  0   Radius =  0.325 angstrom
                   Q00  =   0.108216

H          x =  2.629743  y =  0.981629  z = -1.932964 angstrom
           Maximum rank =  0   Radius =  0.325 angstrom
                   Q00  =   0.169465

H          x =  2.032208  y =  1.894749  z = -0.550634 angstrom
           Maximum rank =  0   Radius =  0.325 angstrom
                   Q00  =   0.128413

C          x = -0.026257  y = -1.810371  z =  1.815036 angstrom
           Maximum rank =  0   Radius =  0.650 angstrom
                   Q00  =  -0.230879

C          x =  0.209743  y = -0.964371  z =  3.036036 angstrom
           Maximum rank =  0   Radius =  0.650 angstrom
                   Q00  =  -0.224515

H          x = -1.030257  y = -1.702371  z =  1.431036 angstrom
           Maximum rank =  0   Radius =  0.325 angstrom
                   Q00  =   0.052621

H          x =  0.687743  y = -1.533371  z =  1.041036 angstrom
           Maximum rank =  0   Radius =  0.325 angstrom
                   Q00  =   0.034334

H          x =  0.143743  y = -2.859371  z =  2.053036 angstrom
           Maximum rank =  0   Radius =  0.325 angstrom
                   Q00  =   0.105408

H          x = -0.060257  y =  0.072629  z =  2.828036 angstrom
           Maximum rank =  0   Radius =  0.325 angstrom
                   Q00  =   0.056748

H          x =  1.271743  y = -1.003371  z =  3.278036 angstrom
           Maximum rank =  0   Radius =  0.325 angstrom
                   Q00  =   0.093190

H          x = -0.372316  y = -1.343721  z =  3.888856 angstrom
           Maximum rank =  0   Radius =  0.325 angstrom
                   Q00  =   0.100781

Total multipoles referred to origin at
           x =   0.000000,  y =    0.000000,  z =    0.000000 angstrom
                   Q00  =   1.000000

Finished at 9:53:58 on 28 Apr 2020

  DMA results are available in the Python driver through the
	  variable('DMA DISTRIBUTED MULTIPOLES')
  and
	  variable('DMA TOTAL MULTIPOLES')
  commands.

    Psi4 stopped on: Tuesday, 28 April 2020 09:53AM
    Psi4 wall time for execution: 0:00:55.09

*** Psi4 exiting successfully. Buy a developer a beer!
