                               Psi4 1.3.2 release

  ==> Input File <==

--------------------------------------------------------------------------
import numpy as np
set {scf_type pk
basis cc-pvdz
d_convergence 10
gdma_switch   0
gdma_limit    0
gdma_origin   [ 0.0,  0.0,  0.0 ]
}
molecule test {
    units Angstrom
    0 1
    --
    0 1
    C                0.334497051441534    -0.393378487586110    -2.690501276758956
    C                1.610497051441534    -0.858378487586110    -2.004501276758957
    H                0.378497051441534    -0.592378487586110    -3.760501276758956
    H               -0.514502948558466    -0.931378487586110    -2.269501276758956
    H                0.188497051441534     0.672621512413890    -2.518501276758956
    H                1.744497051441534    -1.915378487586110    -2.240501276758956
    H                1.474497051441534    -0.786378487586110    -0.935501276758957
    H                2.504817051441534    -0.288418487586110    -2.296641276758956
    C               -0.285502948558466     0.441621512413890     0.914498723241044
    C                0.067497051441534     1.270621512413890     2.152498723241044
    C               -0.007502948558466    -1.032378487586110     1.199498723241043
    C               -1.753502948558466     0.643621512413890     0.541498723241043
    H                0.325497051441534     0.775621512413890     0.082498723241043
    H                1.049497051441534     0.955621512413890     2.513498723241044
    H               -0.654502948558466     1.021621512413890     2.933498723241043
    H               -0.586502948558466    -1.354378487586110     2.060498723241043
    H               -0.296502948558466    -1.633378487586110     0.336498723241043
    H                1.055497051441534    -1.184378487586110     1.398498723241044
    H               -1.975502948558466     1.688621512413890     0.337498723241043
    H               -1.975502948558466     0.064621512413890    -0.356501276758957
    H               -2.396502948558466     0.290621512413890     1.348498723241043
    H                0.083267051441534     2.362651512413890     2.021278723241043

}
e, wfn = energy('scf', return_wfn=True)
gdma(wfn)
dmavals = variable('DMA DISTRIBUTED MULTIPOLES')
charges = np.array(dmavals)
print(charges)
np.save('SSI-017ILE-021LEU-1-dimer.npy', np.array(charges))--------------------------------------------------------------------------

*** tstart() called on ds3
*** at Sun Apr 26 20:50:36 2020

   => Loading Basis Set <=

    Name: CC-PVDZ
    Role: ORBITAL
    Keyword: BASIS
    atoms 1-2, 9-12  entry C          line   138 file /theoryfs2/ds/metcalf/miniconda2/envs/tf2gpu/share/psi4/basis/cc-pvdz.gbs
    atoms 3-8, 13-22 entry H          line    22 file /theoryfs2/ds/metcalf/miniconda2/envs/tf2gpu/share/psi4/basis/cc-pvdz.gbs

         ---------------------------------------------------------
                                   SCF
               by Justin Turney, Rob Parrish, Andy Simmonett
                          and Daniel G. A. Smith
                              RHF Reference
                        1 Threads,    500 MiB Core
         ---------------------------------------------------------

  ==> Geometry <==

    Molecular point group: c1
    Full point group: C1

    Geometry (in Angstrom), charge = 0, multiplicity = 1:

       Center              X                  Y                   Z               Mass
    ------------   -----------------  -----------------  -----------------  -----------------
         C            0.334497051442    -0.393378487586    -2.690501276759    12.000000000000
         C            1.610497051442    -0.858378487586    -2.004501276759    12.000000000000
         H            0.378497051442    -0.592378487586    -3.760501276759     1.007825032230
         H           -0.514502948558    -0.931378487586    -2.269501276759     1.007825032230
         H            0.188497051442     0.672621512414    -2.518501276759     1.007825032230
         H            1.744497051442    -1.915378487586    -2.240501276759     1.007825032230
         H            1.474497051442    -0.786378487586    -0.935501276759     1.007825032230
         H            2.504817051442    -0.288418487586    -2.296641276759     1.007825032230
         C           -0.285502948558     0.441621512414     0.914498723241    12.000000000000
         C            0.067497051442     1.270621512414     2.152498723241    12.000000000000
         C           -0.007502948558    -1.032378487586     1.199498723241    12.000000000000
         C           -1.753502948558     0.643621512414     0.541498723241    12.000000000000
         H            0.325497051442     0.775621512414     0.082498723241     1.007825032230
         H            1.049497051442     0.955621512414     2.513498723241     1.007825032230
         H           -0.654502948558     1.021621512414     2.933498723241     1.007825032230
         H           -0.586502948558    -1.354378487586     2.060498723241     1.007825032230
         H           -0.296502948558    -1.633378487586     0.336498723241     1.007825032230
         H            1.055497051442    -1.184378487586     1.398498723241     1.007825032230
         H           -1.975502948558     1.688621512414     0.337498723241     1.007825032230
         H           -1.975502948558     0.064621512414    -0.356501276759     1.007825032230
         H           -2.396502948558     0.290621512414     1.348498723241     1.007825032230
         H            0.083267051442     2.362651512414     2.021278723241     1.007825032230

  Running in c1 symmetry.

  Rotational constants: A =      0.14192  B =      0.04414  C =      0.04042 [cm^-1]
  Rotational constants: A =   4254.71811  B =   1323.16892  C =   1211.89059 [MHz]
  Nuclear repulsion =  255.375209526469405

  Charge       = 0
  Multiplicity = 1
  Electrons    = 52
  Nalpha       = 26
  Nbeta        = 26

  ==> Algorithm <==

  SCF Algorithm Type is PK.
  DIIS enabled.
  MOM disabled.
  Fractional occupation disabled.
  Guess Type is SAD.
  Energy threshold   = 1.00e-06
  Density threshold  = 1.00e-10
  Integral threshold = 0.00e+00

  ==> Primary Basis <==

  Basis Set: CC-PVDZ
    Blend: CC-PVDZ
    Number of shells: 84
    Number of basis function: 164
    Number of Cartesian functions: 170
    Spherical Harmonics?: true
    Max angular momentum: 2

  ==> Pre-Iterations <==

   -------------------------------------------------------
    Irrep   Nso     Nmo     Nalpha   Nbeta   Ndocc  Nsocc
   -------------------------------------------------------
     A        164     164       0       0       0       0
   -------------------------------------------------------
    Total     164     164      26      26      26       0
   -------------------------------------------------------

  ==> Integral Setup <==

  Using integral reordering PK algorithm.
  Sizing the integral batches needed.
  Building batch lookup table.
   Calculation information:
      Number of atoms:                  22
      Number of AO shells:              84
      Number of primitives:            212
      Number of atomic orbitals:       170
      Number of basis functions:       164

      Integral cutoff                 1.00e-12
      Number of threads:                 1

	Batch   1 pq = [       0,    9405] index = [             0,44231715] size =     44231715
	Batch   2 pq = [    9405,   13530] index = [      44231715,91537215] size =     47305500
  Task number: 9
  Buffer size: 11059200
  Buffer per thread: 2
  We computed 6381300 shell quartets total.
  Whereas there are 6374235 unique shell quartets.
     0.11 percent of shell quartets recomputed by reordering.

  ==> DiskJK: Disk-Based J/K Matrices <==

    J tasked:                  Yes
    K tasked:                  Yes
    wK tasked:                  No
    Memory [MiB]:              375
    Schwarz Cutoff:          1E-12

    OpenMP threads:              1

  Minimum eigenvalue in the overlap matrix is 4.4040687215E-03.
  Using Symmetric Orthogonalization.

  SCF Guess: Superposition of Atomic Densities via on-the-fly atomic UHF.

  ==> Iterations <==

                        Total Energy        Delta E     RMS |[F,P]|

   @RHF iter SAD:  -235.52100798027880   -2.35521e+02   0.00000e+00
   @RHF iter   1:  -236.30843275280864   -7.87425e-01   3.54025e-03 DIIS
   @RHF iter   2:  -236.50010370639976   -1.91671e-01   1.53350e-03 DIIS
   @RHF iter   3:  -236.53407212785498   -3.39684e-02   3.16948e-04 DIIS
   @RHF iter   4:  -236.53673835389037   -2.66623e-03   7.08041e-05 DIIS
   @RHF iter   5:  -236.53682658748374   -8.82336e-05   1.58729e-05 DIIS
   @RHF iter   6:  -236.53683226788291   -5.68040e-06   2.51506e-06 DIIS
   @RHF iter   7:  -236.53683243161242   -1.63730e-07   6.33979e-07 DIIS
   @RHF iter   8:  -236.53683244207477   -1.04623e-08   1.51415e-07 DIIS
   @RHF iter   9:  -236.53683244271883   -6.44064e-10   4.01099e-08 DIIS
   @RHF iter  10:  -236.53683244276820   -4.93685e-11   9.54436e-09 DIIS
   @RHF iter  11:  -236.53683244277272   -4.51905e-12   2.02016e-09 DIIS
   @RHF iter  12:  -236.53683244277192    7.95808e-13   4.62556e-10 DIIS
   @RHF iter  13:  -236.53683244277192    0.00000e+00   1.16947e-10 DIIS
   @RHF iter  14:  -236.53683244277289   -9.66338e-13   2.78573e-11 DIIS
  Energy and wave function converged.

  ==> Post-Iterations <==

    Orbital Energies [Eh]
    ---------------------

    Doubly Occupied:

       1A    -11.223165     2A    -11.216956     3A    -11.215153
       4A    -11.214774     5A    -11.214402     6A    -11.212822
       7A     -1.084315     8A     -1.021336     9A     -0.928142
      10A     -0.925067    11A     -0.837735    12A     -0.767316
      13A     -0.638845    14A     -0.601444    15A     -0.598683
      16A     -0.590346    17A     -0.584087    18A     -0.537842
      19A     -0.530656    20A     -0.508916    21A     -0.502607
      22A     -0.485709    23A     -0.483495    24A     -0.461806
      25A     -0.459652    26A     -0.455729

    Virtual:

      27A      0.169748    28A      0.200073    29A      0.215992
      30A      0.217003    31A      0.234247    32A      0.246819
      33A      0.254522    34A      0.261901    35A      0.271288
      36A      0.273927    37A      0.299687    38A      0.303786
      39A      0.308088    40A      0.321301    41A      0.346089
      42A      0.362675    43A      0.380478    44A      0.397339
      45A      0.403386    46A      0.414604    47A      0.562091
      48A      0.580478    49A      0.591834    50A      0.594830
      51A      0.612968    52A      0.619462    53A      0.628307
      54A      0.683713    55A      0.712213    56A      0.764843
      57A      0.769045    58A      0.777959    59A      0.828469
      60A      0.835493    61A      0.849707    62A      0.859442
      63A      0.865326    64A      0.878348    65A      0.894746
      66A      0.900167    67A      0.905315    68A      0.906819
      69A      0.911398    70A      0.925079    71A      0.936265
      72A      0.945154    73A      0.950224    74A      0.963997
      75A      0.976022    76A      0.977857    77A      0.986280
      78A      1.009992    79A      1.029963    80A      1.054442
      81A      1.126606    82A      1.128334    83A      1.138506
      84A      1.147922    85A      1.185074    86A      1.294209
      87A      1.365487    88A      1.395957    89A      1.421431
      90A      1.470759    91A      1.489124    92A      1.546253
      93A      1.557749    94A      1.591485    95A      1.662785
      96A      1.674103    97A      1.685850    98A      1.690279
      99A      1.696315   100A      1.700311   101A      1.713810
     102A      1.736401   103A      1.742773   104A      1.832817
     105A      1.834885   106A      1.862251   107A      1.882396
     108A      1.885926   109A      1.897004   110A      1.942206
     111A      1.944571   112A      1.947482   113A      1.950111
     114A      1.956817   115A      1.962193   116A      1.968229
     117A      1.982175   118A      1.984779   119A      1.999714
     120A      2.006995   121A      2.028261   122A      2.048107
     123A      2.062167   124A      2.092874   125A      2.113449
     126A      2.122547   127A      2.147472   128A      2.155443
     129A      2.163014   130A      2.248078   131A      2.269433
     132A      2.284918   133A      2.313945   134A      2.323330
     135A      2.344406   136A      2.352816   137A      2.363352
     138A      2.386291   139A      2.470321   140A      2.478792
     141A      2.484612   142A      2.559860   143A      2.582091
     144A      2.594786   145A      2.604569   146A      2.649859
     147A      2.710833   148A      2.726406   149A      2.756897
     150A      2.784512   151A      2.787632   152A      2.798483
     153A      2.814228   154A      2.816140   155A      2.842227
     156A      2.849080   157A      2.867088   158A      2.870470
     159A      2.896497   160A      2.957792   161A      2.992261
     162A      3.033000   163A      3.041817   164A      3.138890

    Final Occupation by Irrep:
              A
    DOCC [    26 ]

  @RHF Final Energy:  -236.53683244277289

   => Energetics <=

    Nuclear Repulsion Energy =            255.3752095264694049
    One-Electron Energy =                -823.2220823193433716
    Two-Electron Energy =                 331.3100403501010192
    Total Energy =                       -236.5368324427728908

Computation Completed

Properties will be evaluated at   0.000000,   0.000000,   0.000000 [a0]

Properties computed using the SCF density matrix

  Nuclear Dipole Moment: [e a0]
     X:     0.3797      Y:    -0.8007      Z:    -1.2613

  Electronic Dipole Moment: [e a0]
     X:    -0.3659      Y:     0.7974      Z:     1.2489

  Dipole Moment: [e a0]
     X:     0.0138      Y:    -0.0033      Z:    -0.0124     Total:     0.0188

  Dipole Moment: [D]
     X:     0.0351      Y:    -0.0084      Z:    -0.0315     Total:     0.0479

*** tstop() called on ds3 at Sun Apr 26 20:51:28 2020
Module time:
	user time   =      38.58 seconds =       0.64 minutes
	system time =      15.89 seconds =       0.26 minutes
	total time  =         52 seconds =       0.87 minutes
Total time:
	user time   =      38.58 seconds =       0.64 minutes
	system time =      15.89 seconds =       0.26 minutes
	total time  =         52 seconds =       0.87 minutes
                                     G D M A

                                 by Anthony Stone

                           version 2.2.06, 22 June 2011

               Distributed Multipoles from Gaussian wavefunctions

Starting at 20:51:28 on 26 Apr 2020

Using SCF density matrix from file ./SSI/SSI-017ILE-021LEU-1-dimer.test.10430.fchk

                         Distributed Multipole Analysis

Standard DMA

Positions and radii in angstrom
Multipole moments in atomic units, ea_0^k for rank k

C          x =  0.334497  y = -0.393378  z = -2.690501 angstrom
           Maximum rank =  0   Radius =  0.650 angstrom
                   Q00  =  -0.237229

C          x =  1.610497  y = -0.858378  z = -2.004501 angstrom
           Maximum rank =  0   Radius =  0.650 angstrom
                   Q00  =  -0.239615

H          x =  0.378497  y = -0.592378  z = -3.760501 angstrom
           Maximum rank =  0   Radius =  0.325 angstrom
                   Q00  =   0.081729

H          x = -0.514503  y = -0.931378  z = -2.269501 angstrom
           Maximum rank =  0   Radius =  0.325 angstrom
                   Q00  =   0.077203

H          x =  0.188497  y =  0.672622  z = -2.518501 angstrom
           Maximum rank =  0   Radius =  0.325 angstrom
                   Q00  =   0.077019

H          x =  1.744497  y = -1.915378  z = -2.240501 angstrom
           Maximum rank =  0   Radius =  0.325 angstrom
                   Q00  =   0.074494

H          x =  1.474497  y = -0.786378  z = -0.935501 angstrom
           Maximum rank =  0   Radius =  0.325 angstrom
                   Q00  =   0.083730

H          x =  2.504817  y = -0.288418  z = -2.296641 angstrom
           Maximum rank =  0   Radius =  0.325 angstrom
                   Q00  =   0.080510

C          x = -0.285503  y =  0.441622  z =  0.914499 angstrom
           Maximum rank =  0   Radius =  0.650 angstrom
                   Q00  =  -0.003719

C          x =  0.067497  y =  1.270622  z =  2.152499 angstrom
           Maximum rank =  0   Radius =  0.650 angstrom
                   Q00  =  -0.236612

C          x = -0.007503  y = -1.032378  z =  1.199499 angstrom
           Maximum rank =  0   Radius =  0.650 angstrom
                   Q00  =  -0.240091

C          x = -1.753503  y =  0.643622  z =  0.541499 angstrom
           Maximum rank =  0   Radius =  0.650 angstrom
                   Q00  =  -0.243854

H          x =  0.325497  y =  0.775622  z =  0.082499 angstrom
           Maximum rank =  0   Radius =  0.325 angstrom
                   Q00  =   0.017708

H          x =  1.049497  y =  0.955622  z =  2.513499 angstrom
           Maximum rank =  0   Radius =  0.325 angstrom
                   Q00  =   0.074971

H          x = -0.654503  y =  1.021622  z =  2.933499 angstrom
           Maximum rank =  0   Radius =  0.325 angstrom
                   Q00  =   0.070760

H          x = -0.586503  y = -1.354378  z =  2.060499 angstrom
           Maximum rank =  0   Radius =  0.325 angstrom
                   Q00  =   0.080583

H          x = -0.296503  y = -1.633378  z =  0.336499 angstrom
           Maximum rank =  0   Radius =  0.325 angstrom
                   Q00  =   0.078405

H          x =  1.055497  y = -1.184378  z =  1.398499 angstrom
           Maximum rank =  0   Radius =  0.325 angstrom
                   Q00  =   0.081469

H          x = -1.975503  y =  1.688622  z =  0.337499 angstrom
           Maximum rank =  0   Radius =  0.325 angstrom
                   Q00  =   0.082975

H          x = -1.975503  y =  0.064622  z = -0.356501 angstrom
           Maximum rank =  0   Radius =  0.325 angstrom
                   Q00  =   0.078808

H          x = -2.396503  y =  0.290622  z =  1.348499 angstrom
           Maximum rank =  0   Radius =  0.325 angstrom
                   Q00  =   0.074700

H          x =  0.083267  y =  2.362652  z =  2.021279 angstrom
           Maximum rank =  0   Radius =  0.325 angstrom
                   Q00  =   0.086058

Total multipoles referred to origin at
           x =   0.000000,  y =    0.000000,  z =    0.000000 angstrom
                   Q00  =  -0.000000

Finished at 20:51:28 on 26 Apr 2020

  DMA results are available in the Python driver through the
	  variable('DMA DISTRIBUTED MULTIPOLES')
  and
	  variable('DMA TOTAL MULTIPOLES')
  commands.

    Psi4 stopped on: Sunday, 26 April 2020 08:51PM
    Psi4 wall time for execution: 0:00:52.28

*** Psi4 exiting successfully. Buy a developer a beer!
