                               Psi4 1.3.2 release

  ==> Input File <==

--------------------------------------------------------------------------
import numpy as np
set {scf_type pk
basis cc-pvdz
d_convergence 10
gdma_switch   0
gdma_limit    0
gdma_origin   [ 0.0,  0.0,  0.0 ]
}
molecule test {
    units Angstrom
    0 1
    --
    0 1
    C                0.095863064616945    -1.560211900491936    -3.460520570009781
    C               -0.349136935383055    -3.016211900491935    -3.485520570009781
    H               -0.749136935383055    -0.905211900491936    -3.248520570009781
    H                0.839863064616945    -1.453211900491935    -2.680520570009781
    H                0.581863064616945    -1.263211900491935    -4.389520570009782
    H                0.501863064616945    -3.634211900491935    -3.762520570009781
    H               -1.140870935383055    -3.163891900491935    -4.234750570009782
    H               -0.701129935383055    -3.339531900491935    -2.494779570009781
    C               -0.303136935383055    -0.315211900491936     3.306479429990219
    C                0.758863064616945     0.254788099508064    -0.288520570009781
    C                0.313863064616945     1.542788099508065    -0.517520570009781
    C                0.541863064616945    -0.343211900491936     0.953479429990219
    C               -0.115136935383055     0.344788099508064     1.972479429990219
    C               -0.345136935383055     2.238788099508064     0.492479429990219
    C               -0.554136935383055     1.638788099508065     1.734479429990219
    H                1.329863064616945    -0.265211900491936    -1.036520570009781
    H                0.567863064616945     2.046788099508065    -1.433520570009781
    H                0.907863064616945    -1.345211900491935     1.130479429990219
    H               -0.663136935383055     3.258788099508064     0.324479429990219
    H                0.688863064616945    -0.401211900491936     3.753479429990219
    H               -0.677136935383055    -1.329211900491935     3.154479429990219
    H               -1.056136935383055     2.228788099508065     2.478479429990219
    H               -0.951625935383055     0.217788099508064     4.017379429990219

}
e, wfn = energy('scf', return_wfn=True)
gdma(wfn)
dmavals = variable('DMA DISTRIBUTED MULTIPOLES')
charges = np.array(dmavals)
print(charges)
np.save('SSI-083VAL-153PHE-1-dimer.npy', np.array(charges))--------------------------------------------------------------------------

*** tstart() called on ds3
*** at Tue Apr 28 00:20:14 2020

   => Loading Basis Set <=

    Name: CC-PVDZ
    Role: ORBITAL
    Keyword: BASIS
    atoms 1-2, 9-15  entry C          line   138 file /theoryfs2/ds/metcalf/miniconda2/envs/tf2gpu/share/psi4/basis/cc-pvdz.gbs
    atoms 3-8, 16-23 entry H          line    22 file /theoryfs2/ds/metcalf/miniconda2/envs/tf2gpu/share/psi4/basis/cc-pvdz.gbs

         ---------------------------------------------------------
                                   SCF
               by Justin Turney, Rob Parrish, Andy Simmonett
                          and Daniel G. A. Smith
                              RHF Reference
                        1 Threads,    500 MiB Core
         ---------------------------------------------------------

  ==> Geometry <==

    Molecular point group: c1
    Full point group: C1

    Geometry (in Angstrom), charge = 0, multiplicity = 1:

       Center              X                  Y                   Z               Mass
    ------------   -----------------  -----------------  -----------------  -----------------
         C            0.095863064617    -1.560211900492    -3.460520570010    12.000000000000
         C           -0.349136935383    -3.016211900492    -3.485520570010    12.000000000000
         H           -0.749136935383    -0.905211900492    -3.248520570010     1.007825032230
         H            0.839863064617    -1.453211900492    -2.680520570010     1.007825032230
         H            0.581863064617    -1.263211900492    -4.389520570010     1.007825032230
         H            0.501863064617    -3.634211900492    -3.762520570010     1.007825032230
         H           -1.140870935383    -3.163891900492    -4.234750570010     1.007825032230
         H           -0.701129935383    -3.339531900492    -2.494779570010     1.007825032230
         C           -0.303136935383    -0.315211900492     3.306479429990    12.000000000000
         C            0.758863064617     0.254788099508    -0.288520570010    12.000000000000
         C            0.313863064617     1.542788099508    -0.517520570010    12.000000000000
         C            0.541863064617    -0.343211900492     0.953479429990    12.000000000000
         C           -0.115136935383     0.344788099508     1.972479429990    12.000000000000
         C           -0.345136935383     2.238788099508     0.492479429990    12.000000000000
         C           -0.554136935383     1.638788099508     1.734479429990    12.000000000000
         H            1.329863064617    -0.265211900492    -1.036520570010     1.007825032230
         H            0.567863064617     2.046788099508    -1.433520570010     1.007825032230
         H            0.907863064617    -1.345211900492     1.130479429990     1.007825032230
         H           -0.663136935383     3.258788099508     0.324479429990     1.007825032230
         H            0.688863064617    -0.401211900492     3.753479429990     1.007825032230
         H           -0.677136935383    -1.329211900492     3.154479429990     1.007825032230
         H           -1.056136935383     2.228788099508     2.478479429990     1.007825032230
         H           -0.951625935383     0.217788099508     4.017379429990     1.007825032230

  Running in c1 symmetry.

  Rotational constants: A =      0.08153  B =      0.02037  C =      0.01726 [cm^-1]
  Rotational constants: A =   2444.12955  B =    610.81494  C =    517.47174 [MHz]
  Nuclear repulsion =  398.943872451929167

  Charge       = 0
  Multiplicity = 1
  Electrons    = 68
  Nalpha       = 34
  Nbeta        = 34

  ==> Algorithm <==

  SCF Algorithm Type is PK.
  DIIS enabled.
  MOM disabled.
  Fractional occupation disabled.
  Guess Type is SAD.
  Energy threshold   = 1.00e-06
  Density threshold  = 1.00e-10
  Integral threshold = 0.00e+00

  ==> Primary Basis <==

  Basis Set: CC-PVDZ
    Blend: CC-PVDZ
    Number of shells: 96
    Number of basis function: 196
    Number of Cartesian functions: 205
    Spherical Harmonics?: true
    Max angular momentum: 2

  ==> Pre-Iterations <==

   -------------------------------------------------------
    Irrep   Nso     Nmo     Nalpha   Nbeta   Ndocc  Nsocc
   -------------------------------------------------------
     A        196     196       0       0       0       0
   -------------------------------------------------------
    Total     196     196      34      34      34       0
   -------------------------------------------------------

  ==> Integral Setup <==

  Using integral reordering PK algorithm.
  Sizing the integral batches needed.
  Building batch lookup table.
   Calculation information:
      Number of atoms:                  23
      Number of AO shells:              96
      Number of primitives:            268
      Number of atomic orbitals:       205
      Number of basis functions:       196

      Integral cutoff                 1.00e-12
      Number of threads:                 1

	Batch   1 pq = [       0,    9405] index = [             0,44231715] size =     44231715
	Batch   2 pq = [    9405,   13301] index = [      44231715,88464951] size =     44233236
	Batch   3 pq = [   13301,   16290] index = [      88464951,132690195] size =     44225244
	Batch   4 pq = [   16290,   18810] index = [     132690195,176917455] size =     44227260
	Batch   5 pq = [   18810,   19306] index = [     176917455,186370471] size =      9453016
  Task number: 17
  Buffer size: 11059200
  Buffer per thread: 2
  We computed 8487402 shell quartets total.
  Whereas there are 10841496 unique shell quartets.

  ==> DiskJK: Disk-Based J/K Matrices <==

    J tasked:                  Yes
    K tasked:                  Yes
    wK tasked:                  No
    Memory [MiB]:              375
    Schwarz Cutoff:          1E-12

    OpenMP threads:              1

  Minimum eigenvalue in the overlap matrix is 3.0877477870E-04.
  Using Symmetric Orthogonalization.

  SCF Guess: Superposition of Atomic Densities via on-the-fly atomic UHF.

  ==> Iterations <==

                        Total Energy        Delta E     RMS |[F,P]|

   @RHF iter SAD:  -347.91868662530010   -3.47919e+02   0.00000e+00
   @RHF iter   1:  -348.76290625401856   -8.44220e-01   2.90949e-03 DIIS
   @RHF iter   2:  -348.95692511415984   -1.94019e-01   1.21052e-03 DIIS
   @RHF iter   3:  -348.98752695660130   -3.06018e-02   2.59751e-04 DIIS
   @RHF iter   4:  -348.99001863598801   -2.49168e-03   5.36481e-05 DIIS
   @RHF iter   5:  -348.99009368617908   -7.50502e-05   1.82933e-05 DIIS
   @RHF iter   6:  -348.99010183286111   -8.14668e-06   4.87839e-06 DIIS
   @RHF iter   7:  -348.99010253573965   -7.02879e-07   1.31934e-06 DIIS
   @RHF iter   8:  -348.99010259837900   -6.26393e-08   3.62273e-07 DIIS
   @RHF iter   9:  -348.99010260881420   -1.04352e-08   1.60306e-07 DIIS
   @RHF iter  10:  -348.99010261152932   -2.71513e-09   7.97492e-08 DIIS
   @RHF iter  11:  -348.99010261234753   -8.18204e-10   2.62425e-08 DIIS
   @RHF iter  12:  -348.99010261242364   -7.61133e-11   9.85251e-09 DIIS
   @RHF iter  13:  -348.99010261243001   -6.36646e-12   4.23708e-09 DIIS
   @RHF iter  14:  -348.99010261243103   -1.02318e-12   1.07926e-09 DIIS
   @RHF iter  15:  -348.99010261243109   -5.68434e-14   4.94374e-10 DIIS
   @RHF iter  16:  -348.99010261243097    1.13687e-13   2.18421e-10 DIIS
   @RHF iter  17:  -348.99010261243041    5.68434e-13   7.90486e-11 DIIS
  Energy and wave function converged.

  ==> Post-Iterations <==

    Orbital Energies [Eh]
    ---------------------

    Doubly Occupied:

       1A    -11.240429     2A    -11.233741     3A    -11.232955
       4A    -11.229327     5A    -11.229153     6A    -11.227902
       7A    -11.227405     8A    -11.217646     9A    -11.214350
      10A     -1.152973    11A     -1.045583    12A     -1.019067
      13A     -1.010439    14A     -0.931493    15A     -0.837078
      16A     -0.824002    17A     -0.795749    18A     -0.690874
      19A     -0.632017    20A     -0.630594    21A     -0.599362
      22A     -0.596472    23A     -0.580643    24A     -0.575513
      25A     -0.564050    26A     -0.536900    27A     -0.502952
      28A     -0.490490    29A     -0.486700    30A     -0.484143
      31A     -0.480833    32A     -0.475217    33A     -0.330686
      34A     -0.320680

    Virtual:

      35A      0.134445    36A      0.145132    37A      0.176714
      38A      0.193145    39A      0.204428    40A      0.219877
      41A      0.232354    42A      0.246881    43A      0.254331
      44A      0.261224    45A      0.268058    46A      0.275263
      47A      0.278912    48A      0.285808    49A      0.292657
      50A      0.358710    51A      0.376756    52A      0.384254
      53A      0.393422    54A      0.459593    55A      0.465767
      56A      0.474077    57A      0.501788    58A      0.561758
      59A      0.587571    60A      0.597087    61A      0.602973
      62A      0.620107    63A      0.620777    64A      0.656634
      65A      0.679194    66A      0.687465    67A      0.701973
      68A      0.710084    69A      0.720350    70A      0.742153
      71A      0.746353    72A      0.751704    73A      0.755972
      74A      0.763961    75A      0.783083    76A      0.809825
      77A      0.841106    78A      0.852663    79A      0.861822
      80A      0.867436    81A      0.877505    82A      0.887119
      83A      0.891188    84A      0.896774    85A      0.899660
      86A      0.903219    87A      0.920112    88A      0.922710
      89A      0.928057    90A      0.934940    91A      0.942004
      92A      0.959175    93A      0.984840    94A      0.997051
      95A      1.022806    96A      1.062966    97A      1.114679
      98A      1.124272    99A      1.130231   100A      1.154457
     101A      1.156811   102A      1.160975   103A      1.183146
     104A      1.226083   105A      1.243027   106A      1.251223
     107A      1.261620   108A      1.267763   109A      1.290952
     110A      1.308940   111A      1.325821   112A      1.344334
     113A      1.421883   114A      1.475664   115A      1.482376
     116A      1.509233   117A      1.527168   118A      1.575757
     119A      1.588563   120A      1.601145   121A      1.666898
     122A      1.685128   123A      1.686252   124A      1.701786
     125A      1.736081   126A      1.745651   127A      1.762895
     128A      1.794310   129A      1.815640   130A      1.846749
     131A      1.865168   132A      1.879855   133A      1.885341
     134A      1.892444   135A      1.907823   136A      1.914059
     137A      1.922305   138A      1.928714   139A      1.935622
     140A      1.944636   141A      1.949109   142A      1.954538
     143A      1.961848   144A      1.965858   145A      1.974549
     146A      1.985144   147A      1.995023   148A      2.008864
     149A      2.029641   150A      2.069178   151A      2.085518
     152A      2.098310   153A      2.116045   154A      2.125393
     155A      2.132884   156A      2.165759   157A      2.169560
     158A      2.185170   159A      2.198735   160A      2.258806
     161A      2.267698   162A      2.280156   163A      2.297424
     164A      2.309665   165A      2.317823   166A      2.333692
     167A      2.381275   168A      2.446982   169A      2.456024
     170A      2.478480   171A      2.484837   172A      2.502337
     173A      2.537166   174A      2.560294   175A      2.584454
     176A      2.644512   177A      2.722623   178A      2.755090
     179A      2.762210   180A      2.767751   181A      2.794059
     182A      2.796888   183A      2.819580   184A      2.843330
     185A      2.857775   186A      2.862924   187A      2.871377
     188A      2.954504   189A      2.972851   190A      2.988333
     191A      3.013158   192A      3.052128   193A      3.181039
     194A      3.215540   195A      3.309078   196A      3.975182

    Final Occupation by Irrep:
              A
    DOCC [    34 ]

  @RHF Final Energy:  -348.99010261243041

   => Energetics <=

    Nuclear Repulsion Energy =            398.9438724519291668
    One-Electron Energy =               -1260.5731138595074299
    Two-Electron Energy =                 512.6391387951479146
    Total Energy =                       -348.9901026124304053

Computation Completed

Properties will be evaluated at   0.000000,   0.000000,   0.000000 [a0]

Properties computed using the SCF density matrix

  Nuclear Dipole Moment: [e a0]
     X:    -0.4885      Y:    -8.7634      Z:    -7.8953

  Electronic Dipole Moment: [e a0]
     X:     0.5414      Y:     8.7339      Z:     8.0437

  Dipole Moment: [e a0]
     X:     0.0528      Y:    -0.0296      Z:     0.1485     Total:     0.1603

  Dipole Moment: [D]
     X:     0.1342      Y:    -0.0751      Z:     0.3774     Total:     0.4075

*** tstop() called on ds3 at Tue Apr 28 00:22:46 2020
Module time:
	user time   =      62.39 seconds =       1.04 minutes
	system time =      27.47 seconds =       0.46 minutes
	total time  =        152 seconds =       2.53 minutes
Total time:
	user time   =      62.39 seconds =       1.04 minutes
	system time =      27.47 seconds =       0.46 minutes
	total time  =        152 seconds =       2.53 minutes
                                     G D M A

                                 by Anthony Stone

                           version 2.2.06, 22 June 2011

               Distributed Multipoles from Gaussian wavefunctions

Starting at 0:22:46 on 28 Apr 2020

Using SCF density matrix from file ./SSI/SSI-083VAL-153PHE-1-dimer.test.5155.fchk

                         Distributed Multipole Analysis

Standard DMA

Positions and radii in angstrom
Multipole moments in atomic units, ea_0^k for rank k

C          x =  0.095863  y = -1.560212  z = -3.460521 angstrom
           Maximum rank =  0   Radius =  0.650 angstrom
                   Q00  =  -0.243386

C          x = -0.349137  y = -3.016212  z = -3.485521 angstrom
           Maximum rank =  0   Radius =  0.650 angstrom
                   Q00  =  -0.225815

H          x = -0.749137  y = -0.905212  z = -3.248521 angstrom
           Maximum rank =  0   Radius =  0.325 angstrom
                   Q00  =   0.085042

H          x =  0.839863  y = -1.453212  z = -2.680521 angstrom
           Maximum rank =  0   Radius =  0.325 angstrom
                   Q00  =   0.071843

H          x =  0.581863  y = -1.263212  z = -4.389521 angstrom
           Maximum rank =  0   Radius =  0.325 angstrom
                   Q00  =   0.078153

H          x =  0.501863  y = -3.634212  z = -3.762521 angstrom
           Maximum rank =  0   Radius =  0.325 angstrom
                   Q00  =   0.075677

H          x = -1.140871  y = -3.163892  z = -4.234751 angstrom
           Maximum rank =  0   Radius =  0.325 angstrom
                   Q00  =   0.077979

H          x = -0.701130  y = -3.339532  z = -2.494780 angstrom
           Maximum rank =  0   Radius =  0.325 angstrom
                   Q00  =   0.080057

C          x = -0.303137  y = -0.315212  z =  3.306479 angstrom
           Maximum rank =  0   Radius =  0.650 angstrom
                   Q00  =  -0.211100

C          x =  0.758863  y =  0.254788  z = -0.288521 angstrom
           Maximum rank =  0   Radius =  0.650 angstrom
                   Q00  =  -0.058889

C          x =  0.313863  y =  1.542788  z = -0.517521 angstrom
           Maximum rank =  0   Radius =  0.650 angstrom
                   Q00  =  -0.100624

C          x =  0.541863  y = -0.343212  z =  0.953479 angstrom
           Maximum rank =  0   Radius =  0.650 angstrom
                   Q00  =  -0.002187

C          x = -0.115137  y =  0.344788  z =  1.972479 angstrom
           Maximum rank =  0   Radius =  0.650 angstrom
                   Q00  =  -0.088671

C          x = -0.345137  y =  2.238788  z =  0.492479 angstrom
           Maximum rank =  0   Radius =  0.650 angstrom
                   Q00  =  -0.055987

C          x = -0.554137  y =  1.638788  z =  1.734479 angstrom
           Maximum rank =  0   Radius =  0.650 angstrom
                   Q00  =  -0.082137

H          x =  1.329863  y = -0.265212  z = -1.036521 angstrom
           Maximum rank =  0   Radius =  0.325 angstrom
                   Q00  =   0.064386

H          x =  0.567863  y =  2.046788  z = -1.433521 angstrom
           Maximum rank =  0   Radius =  0.325 angstrom
                   Q00  =   0.060001

H          x =  0.907863  y = -1.345212  z =  1.130479 angstrom
           Maximum rank =  0   Radius =  0.325 angstrom
                   Q00  =   0.053596

H          x = -0.663137  y =  3.258788  z =  0.324479 angstrom
           Maximum rank =  0   Radius =  0.325 angstrom
                   Q00  =   0.064573

H          x =  0.688863  y = -0.401212  z =  3.753479 angstrom
           Maximum rank =  0   Radius =  0.325 angstrom
                   Q00  =   0.100503

H          x = -0.677137  y = -1.329212  z =  3.154479 angstrom
           Maximum rank =  0   Radius =  0.325 angstrom
                   Q00  =   0.099901

H          x = -1.056137  y =  2.228788  z =  2.478479 angstrom
           Maximum rank =  0   Radius =  0.325 angstrom
                   Q00  =   0.055452

H          x = -0.951626  y =  0.217788  z =  4.017379 angstrom
           Maximum rank =  0   Radius =  0.325 angstrom
                   Q00  =   0.101633

Total multipoles referred to origin at
           x =   0.000000,  y =    0.000000,  z =    0.000000 angstrom
                   Q00  =  -0.000000

Finished at 0:22:46 on 28 Apr 2020

  DMA results are available in the Python driver through the
	  variable('DMA DISTRIBUTED MULTIPOLES')
  and
	  variable('DMA TOTAL MULTIPOLES')
  commands.

    Psi4 stopped on: Tuesday, 28 April 2020 12:22AM
    Psi4 wall time for execution: 0:02:32.22

*** Psi4 exiting successfully. Buy a developer a beer!
