                               Psi4 1.3.2 release

  ==> Input File <==

--------------------------------------------------------------------------
import numpy as np
set {scf_type pk
basis cc-pvdz
d_convergence 10
gdma_switch   0
gdma_limit    0
gdma_origin   [ 0.0,  0.0,  0.0 ]
}
molecule test {
    units Angstrom
    1 1
    --
    1 1
    C               -1.499774036675441    -0.862782245193371    -0.140026862517673
    C               -1.158774036675441    -2.259782245193371    -0.708026862517673
    C               -0.667774036675441     1.400217754806629    -0.487026862517673
    N               -0.589774036675441     0.106217754806629    -0.754026862517673
    N               -1.597774036675441     1.820217754806629     0.367973137482327
    N                0.121225963324559     2.278217754806629    -1.102026862517673
    H               -2.538774036675441    -0.622782245193371    -0.380026862517673
    H               -1.359774036675441    -0.875782245193371     0.942973137482326
    H               -0.105774036675441    -2.449782245193371    -0.529026862517674
    H               -1.331774036675441    -2.267782245193371    -1.785026862517673
    H                0.132225963324559    -0.221782245193371    -1.400026862517673
    H               -2.159774036675441     1.151217754806629     0.888973137482327
    H               -1.715774036675441     2.805217754806629     0.538973137482327
    H                0.816225963324559     1.915217754806629    -1.765026862517673
    H                0.010225963324559     3.268217754806629    -0.965026862517673
    H               -1.771634036675441    -3.042882245193371    -0.237743862517673
    C                1.904225963324559    -1.471782245193371     1.249973137482327
    C                3.348225963324559    -1.041782245193371     1.522973137482327
    H                1.227225963324559    -0.629782245193371     1.392973137482327
    H                1.842225963324559    -1.826782245193371     0.222973137482327
    H                1.617225963324559    -2.274782245193371     1.928973137482327
    H                3.993225963324559    -1.890782245193371     1.288973137482327
    H                3.496955963324559    -0.788112245193371     2.582941137482326
    H                3.623845963324559    -0.233492245193371     0.829644437482327

}
e, wfn = energy('scf', return_wfn=True)
gdma(wfn)
dmavals = variable('DMA DISTRIBUTED MULTIPOLES')
charges = np.array(dmavals)
print(charges)
np.save('SSI-161ARG-288ALA-1-dimer.npy', np.array(charges))--------------------------------------------------------------------------

*** tstart() called on ds3
*** at Tue Apr 28 04:40:02 2020

   => Loading Basis Set <=

    Name: CC-PVDZ
    Role: ORBITAL
    Keyword: BASIS
    atoms 1-3, 17-18  entry C          line   138 file /theoryfs2/ds/metcalf/miniconda2/envs/tf2gpu/share/psi4/basis/cc-pvdz.gbs
    atoms 4-6         entry N          line   168 file /theoryfs2/ds/metcalf/miniconda2/envs/tf2gpu/share/psi4/basis/cc-pvdz.gbs
    atoms 7-16, 19-24 entry H          line    22 file /theoryfs2/ds/metcalf/miniconda2/envs/tf2gpu/share/psi4/basis/cc-pvdz.gbs

         ---------------------------------------------------------
                                   SCF
               by Justin Turney, Rob Parrish, Andy Simmonett
                          and Daniel G. A. Smith
                              RHF Reference
                        1 Threads,    500 MiB Core
         ---------------------------------------------------------

  ==> Geometry <==

    Molecular point group: c1
    Full point group: C1

    Geometry (in Angstrom), charge = 1, multiplicity = 1:

       Center              X                  Y                   Z               Mass
    ------------   -----------------  -----------------  -----------------  -----------------
         C           -1.499774036675    -0.862782245193    -0.140026862518    12.000000000000
         C           -1.158774036675    -2.259782245193    -0.708026862518    12.000000000000
         C           -0.667774036675     1.400217754807    -0.487026862518    12.000000000000
         N           -0.589774036675     0.106217754807    -0.754026862518    14.003074004430
         N           -1.597774036675     1.820217754807     0.367973137482    14.003074004430
         N            0.121225963325     2.278217754807    -1.102026862518    14.003074004430
         H           -2.538774036675    -0.622782245193    -0.380026862518     1.007825032230
         H           -1.359774036675    -0.875782245193     0.942973137482     1.007825032230
         H           -0.105774036675    -2.449782245193    -0.529026862518     1.007825032230
         H           -1.331774036675    -2.267782245193    -1.785026862518     1.007825032230
         H            0.132225963325    -0.221782245193    -1.400026862518     1.007825032230
         H           -2.159774036675     1.151217754807     0.888973137482     1.007825032230
         H           -1.715774036675     2.805217754807     0.538973137482     1.007825032230
         H            0.816225963325     1.915217754807    -1.765026862518     1.007825032230
         H            0.010225963325     3.268217754807    -0.965026862518     1.007825032230
         H           -1.771634036675    -3.042882245193    -0.237743862518     1.007825032230
         C            1.904225963325    -1.471782245193     1.249973137482    12.000000000000
         C            3.348225963325    -1.041782245193     1.522973137482    12.000000000000
         H            1.227225963325    -0.629782245193     1.392973137482     1.007825032230
         H            1.842225963325    -1.826782245193     0.222973137482     1.007825032230
         H            1.617225963325    -2.274782245193     1.928973137482     1.007825032230
         H            3.993225963325    -1.890782245193     1.288973137482     1.007825032230
         H            3.496955963325    -0.788112245193     2.582941137482     1.007825032230
         H            3.623845963325    -0.233492245193     0.829644437482     1.007825032230

  Running in c1 symmetry.

  Rotational constants: A =      0.05806  B =      0.03234  C =      0.02392 [cm^-1]
  Rotational constants: A =   1740.59042  B =    969.67854  C =    717.21485 [MHz]
  Nuclear repulsion =  400.196296507885904

  Charge       = 1
  Multiplicity = 1
  Electrons    = 66
  Nalpha       = 33
  Nbeta        = 33

  ==> Algorithm <==

  SCF Algorithm Type is PK.
  DIIS enabled.
  MOM disabled.
  Fractional occupation disabled.
  Guess Type is SAD.
  Energy threshold   = 1.00e-06
  Density threshold  = 1.00e-10
  Integral threshold = 0.00e+00

  ==> Primary Basis <==

  Basis Set: CC-PVDZ
    Blend: CC-PVDZ
    Number of shells: 96
    Number of basis function: 192
    Number of Cartesian functions: 200
    Spherical Harmonics?: true
    Max angular momentum: 2

  ==> Pre-Iterations <==

   -------------------------------------------------------
    Irrep   Nso     Nmo     Nalpha   Nbeta   Ndocc  Nsocc
   -------------------------------------------------------
     A        192     192       0       0       0       0
   -------------------------------------------------------
    Total     192     192      33      33      33       0
   -------------------------------------------------------

  ==> Integral Setup <==

  Using integral reordering PK algorithm.
  Sizing the integral batches needed.
  Building batch lookup table.
   Calculation information:
      Number of atoms:                  24
      Number of AO shells:              96
      Number of primitives:            256
      Number of atomic orbitals:       200
      Number of basis functions:       192

      Integral cutoff                 1.00e-12
      Number of threads:                 1

	Batch   1 pq = [       0,    9405] index = [             0,44231715] size =     44231715
	Batch   2 pq = [    9405,   13301] index = [      44231715,88464951] size =     44233236
	Batch   3 pq = [   13301,   16290] index = [      88464951,132690195] size =     44225244
	Batch   4 pq = [   16290,   18528] index = [     132690195,171652656] size =     38962461
  Task number: 16
  Buffer size: 11059200
  Buffer per thread: 2
  We computed 9618965 shell quartets total.
  Whereas there are 10841496 unique shell quartets.

  ==> DiskJK: Disk-Based J/K Matrices <==

    J tasked:                  Yes
    K tasked:                  Yes
    wK tasked:                  No
    Memory [MiB]:              375
    Schwarz Cutoff:          1E-12

    OpenMP threads:              1

  Minimum eigenvalue in the overlap matrix is 3.7516563141E-03.
  Using Symmetric Orthogonalization.

  SCF Guess: Superposition of Atomic Densities via on-the-fly atomic UHF.

  ==> Iterations <==

                        Total Energy        Delta E     RMS |[F,P]|

   @RHF iter SAD:  -361.08217990526623   -3.61082e+02   0.00000e+00
   @RHF iter   1:  -361.62207504306946   -5.39895e-01   3.19768e-03 DIIS
   @RHF iter   2:  -361.82151114740810   -1.99436e-01   1.26756e-03 DIIS
   @RHF iter   3:  -361.85119774067738   -2.96866e-02   3.02664e-04 DIIS
   @RHF iter   4:  -361.85402752402854   -2.82978e-03   5.40140e-05 DIIS
   @RHF iter   5:  -361.85411282316124   -8.52991e-05   2.01458e-05 DIIS
   @RHF iter   6:  -361.85412482828679   -1.20051e-05   3.96524e-06 DIIS
   @RHF iter   7:  -361.85412553551379   -7.07227e-07   1.35100e-06 DIIS
   @RHF iter   8:  -361.85412559256622   -5.70524e-08   4.03652e-07 DIIS
   @RHF iter   9:  -361.85412559749557   -4.92935e-09   1.08402e-07 DIIS
   @RHF iter  10:  -361.85412559788051   -3.84944e-10   2.84575e-08 DIIS
   @RHF iter  11:  -361.85412559790996   -2.94449e-11   8.56251e-09 DIIS
   @RHF iter  12:  -361.85412559791365   -3.69482e-12   2.73726e-09 DIIS
   @RHF iter  13:  -361.85412559791308    5.68434e-13   1.01274e-09 DIIS
   @RHF iter  14:  -361.85412559791484   -1.76215e-12   3.52575e-10 DIIS
   @RHF iter  15:  -361.85412559791723   -2.38742e-12   6.90365e-11 DIIS
  Energy and wave function converged.

  ==> Post-Iterations <==

    Orbital Energies [Eh]
    ---------------------

    Doubly Occupied:

       1A    -15.787663     2A    -15.785680     3A    -15.781793
       4A    -11.587375     5A    -11.436097     6A    -11.369290
       7A    -11.328749     8A    -11.317791     9A     -1.538100
      10A     -1.398650    11A     -1.384010    12A     -1.181973
      13A     -1.124218    14A     -1.046695    15A     -1.017827
      16A     -0.964372    17A     -0.941756    18A     -0.931518
      19A     -0.852467    20A     -0.850520    21A     -0.828559
      22A     -0.791747    23A     -0.760437    24A     -0.708866
      25A     -0.702616    26A     -0.681470    27A     -0.662813
      28A     -0.661123    29A     -0.614027    30A     -0.602073
      31A     -0.596069    32A     -0.586406    33A     -0.578954

    Virtual:

      34A     -0.007870    35A      0.024019    36A      0.025727
      37A      0.039966    38A      0.060772    39A      0.069011
      40A      0.086163    41A      0.110621    42A      0.122066
      43A      0.125431    44A      0.139313    45A      0.148452
      46A      0.155199    47A      0.173941    48A      0.182874
      49A      0.185716    50A      0.211834    51A      0.233109
      52A      0.241370    53A      0.293155    54A      0.298644
      55A      0.337042    56A      0.357342    57A      0.446955
      58A      0.451920    59A      0.464375    60A      0.478633
      61A      0.490752    62A      0.517422    63A      0.528580
      64A      0.532607    65A      0.540678    66A      0.549741
      67A      0.566316    68A      0.577559    69A      0.596055
      70A      0.612033    71A      0.648464    72A      0.689591
      73A      0.708464    74A      0.722606    75A      0.741268
      76A      0.744418    77A      0.755900    78A      0.769190
      79A      0.776549    80A      0.789971    81A      0.796763
      82A      0.798123    83A      0.802895    84A      0.813388
      85A      0.815850    86A      0.832655    87A      0.841791
      88A      0.848975    89A      0.876631    90A      0.887559
      91A      0.900105    92A      0.930770    93A      0.951488
      94A      0.959864    95A      0.976499    96A      1.028302
      97A      1.035690    98A      1.056691    99A      1.105448
     100A      1.119837   101A      1.136189   102A      1.166794
     103A      1.190427   104A      1.205200   105A      1.224493
     106A      1.245311   107A      1.318574   108A      1.345680
     109A      1.376635   110A      1.381804   111A      1.440668
     112A      1.471132   113A      1.503657   114A      1.524097
     115A      1.538560   116A      1.545157   117A      1.554488
     118A      1.560490   119A      1.578345   120A      1.591054
     121A      1.594896   122A      1.666659   123A      1.693700
     124A      1.718102   125A      1.720477   126A      1.737961
     127A      1.754927   128A      1.765938   129A      1.774721
     130A      1.778477   131A      1.793216   132A      1.802922
     133A      1.814771   134A      1.822419   135A      1.828141
     136A      1.837003   137A      1.843340   138A      1.851562
     139A      1.865799   140A      1.872568   141A      1.881097
     142A      1.927742   143A      1.950945   144A      1.958835
     145A      1.992210   146A      2.010793   147A      2.021466
     148A      2.037611   149A      2.053953   150A      2.088247
     151A      2.112828   152A      2.179390   153A      2.198190
     154A      2.209773   155A      2.242316   156A      2.252096
     157A      2.265113   158A      2.300284   159A      2.320170
     160A      2.342317   161A      2.348078   162A      2.361018
     163A      2.369034   164A      2.383321   165A      2.407347
     166A      2.457035   167A      2.462957   168A      2.469621
     169A      2.479295   170A      2.544445   171A      2.615710
     172A      2.632951   173A      2.652317   174A      2.660107
     175A      2.674302   176A      2.691298   177A      2.718738
     178A      2.730494   179A      2.752992   180A      2.764008
     181A      2.796193   182A      2.823972   183A      2.840324
     184A      2.846109   185A      2.871218   186A      2.875846
     187A      2.904124   188A      3.069079   189A      3.087485
     190A      3.145231   191A      3.548993   192A      3.639096

    Final Occupation by Irrep:
              A
    DOCC [    33 ]

  @RHF Final Energy:  -361.85412559791723

   => Energetics <=

    Nuclear Repulsion Energy =            400.1962965078859042
    One-Electron Energy =               -1271.2974341933772848
    Two-Electron Energy =                 509.2470120875741486
    Total Energy =                       -361.8541255979172320

Computation Completed

Properties will be evaluated at   0.000000,   0.000000,   0.000000 [a0]

Properties computed using the SCF density matrix

  Nuclear Dipole Moment: [e a0]
     X:     5.4209      Y:    -7.4976      Z:     3.3375

  Electronic Dipole Moment: [e a0]
     X:    -6.6522      Y:     9.4565      Z:    -4.1503

  Dipole Moment: [e a0]
     X:    -1.2313      Y:     1.9589      Z:    -0.8129     Total:     2.4524

  Dipole Moment: [D]
     X:    -3.1296      Y:     4.9791      Z:    -2.0661     Total:     6.2333

*** tstop() called on ds3 at Tue Apr 28 04:43:42 2020
Module time:
	user time   =      55.90 seconds =       0.93 minutes
	system time =      21.12 seconds =       0.35 minutes
	total time  =        220 seconds =       3.67 minutes
Total time:
	user time   =      55.90 seconds =       0.93 minutes
	system time =      21.12 seconds =       0.35 minutes
	total time  =        220 seconds =       3.67 minutes
                                     G D M A

                                 by Anthony Stone

                           version 2.2.06, 22 June 2011

               Distributed Multipoles from Gaussian wavefunctions

Starting at 4:43:42 on 28 Apr 2020

Using SCF density matrix from file ./SSI/SSI-161ARG-288ALA-1-dimer.test.27756.fchk

                         Distributed Multipole Analysis

Standard DMA

Positions and radii in angstrom
Multipole moments in atomic units, ea_0^k for rank k

C          x = -1.499774  y = -0.862782  z = -0.140027 angstrom
           Maximum rank =  0   Radius =  0.650 angstrom
                   Q00  =  -0.050140

C          x = -1.158774  y = -2.259782  z = -0.708027 angstrom
           Maximum rank =  0   Radius =  0.650 angstrom
                   Q00  =  -0.205780

C          x = -0.667774  y =  1.400218  z = -0.487027 angstrom
           Maximum rank =  0   Radius =  0.650 angstrom
                   Q00  =   1.082365

N          x = -0.589774  y =  0.106218  z = -0.754027 angstrom
           Maximum rank =  0   Radius =  0.650 angstrom
                   Q00  =  -0.494508

N          x = -1.597774  y =  1.820218  z =  0.367973 angstrom
           Maximum rank =  0   Radius =  0.650 angstrom
                   Q00  =  -0.589884

N          x =  0.121226  y =  2.278218  z = -1.102027 angstrom
           Maximum rank =  0   Radius =  0.650 angstrom
                   Q00  =  -0.607697

H          x = -2.538774  y = -0.622782  z = -0.380027 angstrom
           Maximum rank =  0   Radius =  0.325 angstrom
                   Q00  =   0.099039

H          x = -1.359774  y = -0.875782  z =  0.942973 angstrom
           Maximum rank =  0   Radius =  0.325 angstrom
                   Q00  =   0.090240

H          x = -0.105774  y = -2.449782  z = -0.529027 angstrom
           Maximum rank =  0   Radius =  0.325 angstrom
                   Q00  =   0.106771

H          x = -1.331774  y = -2.267782  z = -1.785027 angstrom
           Maximum rank =  0   Radius =  0.325 angstrom
                   Q00  =   0.101540

H          x =  0.132226  y = -0.221782  z = -1.400027 angstrom
           Maximum rank =  0   Radius =  0.325 angstrom
                   Q00  =   0.243412

H          x = -2.159774  y =  1.151218  z =  0.888973 angstrom
           Maximum rank =  0   Radius =  0.325 angstrom
                   Q00  =   0.280581

H          x = -1.715774  y =  2.805218  z =  0.538973 angstrom
           Maximum rank =  0   Radius =  0.325 angstrom
                   Q00  =   0.262580

H          x =  0.816226  y =  1.915218  z = -1.765027 angstrom
           Maximum rank =  0   Radius =  0.325 angstrom
                   Q00  =   0.269355

H          x =  0.010226  y =  3.268218  z = -0.965027 angstrom
           Maximum rank =  0   Radius =  0.325 angstrom
                   Q00  =   0.271653

H          x = -1.771634  y = -3.042882  z = -0.237744 angstrom
           Maximum rank =  0   Radius =  0.325 angstrom
                   Q00  =   0.140835

C          x =  1.904226  y = -1.471782  z =  1.249973 angstrom
           Maximum rank =  0   Radius =  0.650 angstrom
                   Q00  =  -0.262120

C          x =  3.348226  y = -1.041782  z =  1.522973 angstrom
           Maximum rank =  0   Radius =  0.650 angstrom
                   Q00  =  -0.217943

H          x =  1.227226  y = -0.629782  z =  1.392973 angstrom
           Maximum rank =  0   Radius =  0.325 angstrom
                   Q00  =   0.050081

H          x =  1.842226  y = -1.826782  z =  0.222973 angstrom
           Maximum rank =  0   Radius =  0.325 angstrom
                   Q00  =   0.060116

H          x =  1.617226  y = -2.274782  z =  1.928973 angstrom
           Maximum rank =  0   Radius =  0.325 angstrom
                   Q00  =   0.103454

H          x =  3.993226  y = -1.890782  z =  1.288973 angstrom
           Maximum rank =  0   Radius =  0.325 angstrom
                   Q00  =   0.096457

H          x =  3.496956  y = -0.788112  z =  2.582941 angstrom
           Maximum rank =  0   Radius =  0.325 angstrom
                   Q00  =   0.099207

H          x =  3.623846  y = -0.233492  z =  0.829644 angstrom
           Maximum rank =  0   Radius =  0.325 angstrom
                   Q00  =   0.070385

Total multipoles referred to origin at
           x =   0.000000,  y =    0.000000,  z =    0.000000 angstrom
                   Q00  =   1.000000

Finished at 4:43:42 on 28 Apr 2020

  DMA results are available in the Python driver through the
	  variable('DMA DISTRIBUTED MULTIPOLES')
  and
	  variable('DMA TOTAL MULTIPOLES')
  commands.

    Psi4 stopped on: Tuesday, 28 April 2020 04:43AM
    Psi4 wall time for execution: 0:03:40.97

*** Psi4 exiting successfully. Buy a developer a beer!
