                               Psi4 1.3.2 release

  ==> Input File <==

--------------------------------------------------------------------------
import numpy as np
set {scf_type pk
basis cc-pvdz
d_convergence 10
gdma_switch   0
gdma_limit    0
gdma_origin   [ 0.0,  0.0,  0.0 ]
}
molecule test {
    units Angstrom
    0 1
    --
    0 1
    C               -0.121011777938035     1.426984699731008     0.940741156490450
    C               -1.071011777938035     2.485984699731008     0.413741156490450
    H                0.784988222061965     1.393984699731008     0.336741156490450
    H                0.142988222061965     1.634984699731008     1.977741156490450
    H               -0.671011777938035     0.491984699731008     0.912741156490450
    H               -2.036011777938036     2.337984699731008     0.896741156490450
    H               -1.200389777938035     2.409076699731008    -0.675908843509550
    H               -0.706292777938035     3.488238499731009     0.682941156490450
    C                0.835988222061965    -1.267015300268992    -0.479258843509550
    C                0.365988222061965    -2.649015300268991    -0.871258843509550
    H                1.918988222061965    -1.181015300268992    -0.569258843509550
    H                0.362988222061965    -0.531015300268992    -1.130258843509550
    H                0.571988222061965    -1.068015300268992     0.540741156490450
    H                0.487988222061965    -2.737015300268991    -1.951258843509550
    H               -0.703011777938035    -2.740015300268992    -0.678258843509550
    H                0.928281222061965    -3.462728300268992    -0.389908843509550

}
e, wfn = energy('scf', return_wfn=True)
gdma(wfn)
dmavals = variable('DMA DISTRIBUTED MULTIPOLES')
charges = np.array(dmavals)
print(charges)
np.save('SSI-018LEU-039ILE-1-dimer.npy', np.array(charges))--------------------------------------------------------------------------

*** tstart() called on ds3
*** at Mon Apr 27 16:03:40 2020

   => Loading Basis Set <=

    Name: CC-PVDZ
    Role: ORBITAL
    Keyword: BASIS
    atoms 1-2, 9-10  entry C          line   138 file /theoryfs2/ds/metcalf/miniconda2/envs/tf2gpu/share/psi4/basis/cc-pvdz.gbs
    atoms 3-8, 11-16 entry H          line    22 file /theoryfs2/ds/metcalf/miniconda2/envs/tf2gpu/share/psi4/basis/cc-pvdz.gbs

         ---------------------------------------------------------
                                   SCF
               by Justin Turney, Rob Parrish, Andy Simmonett
                          and Daniel G. A. Smith
                              RHF Reference
                        1 Threads,    500 MiB Core
         ---------------------------------------------------------

  ==> Geometry <==

    Molecular point group: c1
    Full point group: C1

    Geometry (in Angstrom), charge = 0, multiplicity = 1:

       Center              X                  Y                   Z               Mass
    ------------   -----------------  -----------------  -----------------  -----------------
         C           -0.121011777938     1.426984699731     0.940741156490    12.000000000000
         C           -1.071011777938     2.485984699731     0.413741156490    12.000000000000
         H            0.784988222062     1.393984699731     0.336741156490     1.007825032230
         H            0.142988222062     1.634984699731     1.977741156490     1.007825032230
         H           -0.671011777938     0.491984699731     0.912741156490     1.007825032230
         H           -2.036011777938     2.337984699731     0.896741156490     1.007825032230
         H           -1.200389777938     2.409076699731    -0.675908843510     1.007825032230
         H           -0.706292777938     3.488238499731     0.682941156490     1.007825032230
         C            0.835988222062    -1.267015300269    -0.479258843510    12.000000000000
         C            0.365988222062    -2.649015300269    -0.871258843510    12.000000000000
         H            1.918988222062    -1.181015300269    -0.569258843510     1.007825032230
         H            0.362988222062    -0.531015300269    -1.130258843510     1.007825032230
         H            0.571988222062    -1.068015300269     0.540741156490     1.007825032230
         H            0.487988222062    -2.737015300269    -1.951258843510     1.007825032230
         H           -0.703011777938    -2.740015300269    -0.678258843510     1.007825032230
         H            0.928281222062    -3.462728300269    -0.389908843510     1.007825032230

  Running in c1 symmetry.

  Rotational constants: A =      0.60760  B =      0.05325  C =      0.05173 [cm^-1]
  Rotational constants: A =  18215.34487  B =   1596.24917  C =   1550.87508 [MHz]
  Nuclear repulsion =  125.789526247572368

  Charge       = 0
  Multiplicity = 1
  Electrons    = 36
  Nalpha       = 18
  Nbeta        = 18

  ==> Algorithm <==

  SCF Algorithm Type is PK.
  DIIS enabled.
  MOM disabled.
  Fractional occupation disabled.
  Guess Type is SAD.
  Energy threshold   = 1.00e-06
  Density threshold  = 1.00e-10
  Integral threshold = 0.00e+00

  ==> Primary Basis <==

  Basis Set: CC-PVDZ
    Blend: CC-PVDZ
    Number of shells: 60
    Number of basis function: 116
    Number of Cartesian functions: 120
    Spherical Harmonics?: true
    Max angular momentum: 2

  ==> Pre-Iterations <==

   -------------------------------------------------------
    Irrep   Nso     Nmo     Nalpha   Nbeta   Ndocc  Nsocc
   -------------------------------------------------------
     A        116     116       0       0       0       0
   -------------------------------------------------------
    Total     116     116      18      18      18       0
   -------------------------------------------------------

  ==> Integral Setup <==

  Using integral reordering PK algorithm.
  Sizing the integral batches needed.
  Building batch lookup table.
   Calculation information:
      Number of atoms:                  16
      Number of AO shells:              60
      Number of primitives:            148
      Number of atomic orbitals:       120
      Number of basis functions:       116

      Integral cutoff                 1.00e-12
      Number of threads:                 1

	Batch   1 pq = [       0,    6786] index = [             0,23028291] size =     23028291
  Task number: 3
  Buffer size: 11059200
  Buffer per thread: 2
  We computed 1494451 shell quartets total.
  Whereas there are 1675365 unique shell quartets.

  ==> DiskJK: Disk-Based J/K Matrices <==

    J tasked:                  Yes
    K tasked:                  Yes
    wK tasked:                  No
    Memory [MiB]:              375
    Schwarz Cutoff:          1E-12

    OpenMP threads:              1

  Minimum eigenvalue in the overlap matrix is 6.1486070639E-03.
  Using Symmetric Orthogonalization.

  SCF Guess: Superposition of Atomic Densities via on-the-fly atomic UHF.

  ==> Iterations <==

                        Total Energy        Delta E     RMS |[F,P]|

   @RHF iter SAD:  -157.47981816732579   -1.57480e+02   0.00000e+00
   @RHF iter   1:  -158.29427599542834   -8.14458e-01   4.27158e-03 DIIS
   @RHF iter   2:  -158.43179422391921   -1.37518e-01   1.80317e-03 DIIS
   @RHF iter   3:  -158.45538866498899   -2.35944e-02   3.55755e-04 DIIS
   @RHF iter   4:  -158.45727904682968   -1.89038e-03   4.05006e-05 DIIS
   @RHF iter   5:  -158.45730459492961   -2.55481e-05   8.02265e-06 DIIS
   @RHF iter   6:  -158.45730544366691   -8.48737e-07   1.77760e-06 DIIS
   @RHF iter   7:  -158.45730547424975   -3.05828e-08   3.50136e-07 DIIS
   @RHF iter   8:  -158.45730547568988   -1.44013e-09   5.20527e-08 DIIS
   @RHF iter   9:  -158.45730547573785   -4.79758e-11   1.08366e-08 DIIS
   @RHF iter  10:  -158.45730547573987   -2.01794e-12   2.45077e-09 DIIS
   @RHF iter  11:  -158.45730547574030   -4.26326e-13   5.00308e-10 DIIS
   @RHF iter  12:  -158.45730547574004    2.55795e-13   1.66067e-10 DIIS
   @RHF iter  13:  -158.45730547574016   -1.13687e-13   3.00046e-11 DIIS
  Energy and wave function converged.

  ==> Post-Iterations <==

    Orbital Energies [Eh]
    ---------------------

    Doubly Occupied:

       1A    -11.216434     2A    -11.214936     3A    -11.212398
       4A    -11.210447     5A     -1.025150     6A     -1.018554
       7A     -0.843388     8A     -0.827121     9A     -0.607565
      10A     -0.603512    11A     -0.598351    12A     -0.591966
      13A     -0.511030    14A     -0.498341    15A     -0.490267
      16A     -0.486114    17A     -0.481735    18A     -0.464693

    Virtual:

      19A      0.174317    20A      0.197632    21A      0.227522
      22A      0.230314    23A      0.248855    24A      0.254082
      25A      0.269629    26A      0.279740    27A      0.286765
      28A      0.293494    29A      0.315556    30A      0.319598
      31A      0.404842    32A      0.416420    33A      0.587537
      34A      0.601794    35A      0.604317    36A      0.612331
      37A      0.622916    38A      0.645065    39A      0.671067
      40A      0.689626    41A      0.702209    42A      0.828275
      43A      0.867018    44A      0.879076    45A      0.885658
      46A      0.893226    47A      0.896699    48A      0.899939
      49A      0.904841    50A      0.912814    51A      0.916183
      52A      0.927266    53A      0.938855    54A      0.954337
      55A      0.982600    56A      0.987094    57A      1.116714
      58A      1.120832    59A      1.129783    60A      1.218873
      61A      1.234453    62A      1.278843    63A      1.453515
      64A      1.489280    65A      1.492038    66A      1.502545
      67A      1.579421    68A      1.596499    69A      1.680738
      70A      1.687444    71A      1.694040    72A      1.718529
      73A      1.851712    74A      1.863590    75A      1.880609
      76A      1.891750    77A      1.918401    78A      1.926164
      79A      1.934064    80A      1.946742    81A      1.951303
      82A      1.952675    83A      1.957877    84A      1.971652
      85A      1.976502    86A      1.997191    87A      2.019698
      88A      2.060214    89A      2.093867    90A      2.122371
      91A      2.147326    92A      2.176584    93A      2.293497
      94A      2.315195    95A      2.318329    96A      2.345257
      97A      2.443237    98A      2.458651    99A      2.471151
     100A      2.510482   101A      2.566459   102A      2.588886
     103A      2.595708   104A      2.604633   105A      2.762381
     106A      2.773445   107A      2.789746   108A      2.817902
     109A      2.842837   110A      2.852585   111A      2.857081
     112A      2.890145   113A      2.946421   114A      2.965512
     115A      2.978228   116A      3.008374

    Final Occupation by Irrep:
              A
    DOCC [    18 ]

  @RHF Final Energy:  -158.45730547574016

   => Energetics <=

    Nuclear Repulsion Energy =            125.7895262475723683
    One-Electron Energy =                -460.6896559036520102
    Two-Electron Energy =                 176.4428241803394712
    Total Energy =                       -158.4573054757401565

Computation Completed

Properties will be evaluated at   0.000000,   0.000000,   0.000000 [a0]

Properties computed using the SCF density matrix

  Nuclear Dipole Moment: [e a0]
     X:    -0.1111      Y:     0.0342      Z:    -0.0443

  Electronic Dipole Moment: [e a0]
     X:     0.1093      Y:    -0.0296      Z:     0.0645

  Dipole Moment: [e a0]
     X:    -0.0018      Y:     0.0046      Z:     0.0202     Total:     0.0208

  Dipole Moment: [D]
     X:    -0.0045      Y:     0.0116      Z:     0.0514     Total:     0.0529

*** tstop() called on ds3 at Mon Apr 27 16:03:51 2020
Module time:
	user time   =       8.59 seconds =       0.14 minutes
	system time =       3.56 seconds =       0.06 minutes
	total time  =         11 seconds =       0.18 minutes
Total time:
	user time   =       8.59 seconds =       0.14 minutes
	system time =       3.56 seconds =       0.06 minutes
	total time  =         11 seconds =       0.18 minutes
                                     G D M A

                                 by Anthony Stone

                           version 2.2.06, 22 June 2011

               Distributed Multipoles from Gaussian wavefunctions

Starting at 16:3:51 on 27 Apr 2020

Using SCF density matrix from file ./SSI/SSI-018LEU-039ILE-1-dimer.test.9958.fchk

                         Distributed Multipole Analysis

Standard DMA

Positions and radii in angstrom
Multipole moments in atomic units, ea_0^k for rank k

C          x = -0.121012  y =  1.426985  z =  0.940741 angstrom
           Maximum rank =  0   Radius =  0.650 angstrom
                   Q00  =  -0.222416

C          x = -1.071012  y =  2.485985  z =  0.413741 angstrom
           Maximum rank =  0   Radius =  0.650 angstrom
                   Q00  =  -0.240164

H          x =  0.784988  y =  1.393985  z =  0.336741 angstrom
           Maximum rank =  0   Radius =  0.325 angstrom
                   Q00  =   0.079737

H          x =  0.142988  y =  1.634985  z =  1.977741 angstrom
           Maximum rank =  0   Radius =  0.325 angstrom
                   Q00  =   0.077560

H          x = -0.671012  y =  0.491985  z =  0.912741 angstrom
           Maximum rank =  0   Radius =  0.325 angstrom
                   Q00  =   0.076621

H          x = -2.036012  y =  2.337985  z =  0.896741 angstrom
           Maximum rank =  0   Radius =  0.325 angstrom
                   Q00  =   0.079623

H          x = -1.200390  y =  2.409077  z = -0.675909 angstrom
           Maximum rank =  0   Radius =  0.325 angstrom
                   Q00  =   0.077499

H          x = -0.706293  y =  3.488238  z =  0.682941 angstrom
           Maximum rank =  0   Radius =  0.325 angstrom
                   Q00  =   0.074865

C          x =  0.835988  y = -1.267015  z = -0.479259 angstrom
           Maximum rank =  0   Radius =  0.650 angstrom
                   Q00  =  -0.239140

C          x =  0.365988  y = -2.649015  z = -0.871259 angstrom
           Maximum rank =  0   Radius =  0.650 angstrom
                   Q00  =  -0.221751

H          x =  1.918988  y = -1.181015  z = -0.569259 angstrom
           Maximum rank =  0   Radius =  0.325 angstrom
                   Q00  =   0.077072

H          x =  0.362988  y = -0.531015  z = -1.130259 angstrom
           Maximum rank =  0   Radius =  0.325 angstrom
                   Q00  =   0.072310

H          x =  0.571988  y = -1.068015  z =  0.540741 angstrom
           Maximum rank =  0   Radius =  0.325 angstrom
                   Q00  =   0.079151

H          x =  0.487988  y = -2.737015  z = -1.951259 angstrom
           Maximum rank =  0   Radius =  0.325 angstrom
                   Q00  =   0.072213

H          x = -0.703012  y = -2.740015  z = -0.678259 angstrom
           Maximum rank =  0   Radius =  0.325 angstrom
                   Q00  =   0.075853

H          x =  0.928281  y = -3.462728  z = -0.389909 angstrom
           Maximum rank =  0   Radius =  0.325 angstrom
                   Q00  =   0.080967

Total multipoles referred to origin at
           x =   0.000000,  y =    0.000000,  z =    0.000000 angstrom
                   Q00  =  -0.000000

Finished at 16:3:51 on 27 Apr 2020

  DMA results are available in the Python driver through the
	  variable('DMA DISTRIBUTED MULTIPOLES')
  and
	  variable('DMA TOTAL MULTIPOLES')
  commands.

    Psi4 stopped on: Monday, 27 April 2020 04:03PM
    Psi4 wall time for execution: 0:00:11.79

*** Psi4 exiting successfully. Buy a developer a beer!
