                               Psi4 1.3.2 release

  ==> Input File <==

--------------------------------------------------------------------------
import numpy as np
set {scf_type pk
basis cc-pvdz
d_convergence 10
gdma_switch   0
gdma_limit    0
gdma_origin   [ 0.0,  0.0,  0.0 ]
}
molecule test {
    units Angstrom
    -1 1
    --
    -1 1
    C                1.613306547875651    -0.033980097317100     1.002523809145835
    C                0.264306547875651     0.661019902682900     1.180523809145836
    O               -0.532693452124349     0.633019902682900     0.211523809145836
    O               -0.060693452124349     1.121019902682900     2.300523809145836
    H                1.979306547875651     0.120019902682900    -0.013476190854164
    H                1.459306547875651    -1.107980097317100     1.122523809145836
    H                2.366436547875651     0.282447902682900     1.739185809145836
    C               -0.752693452124349    -0.940980097317100    -2.860476190854164
    O               -0.434693452124349    -1.284980097317100    -1.517476190854164
    H               -0.384693452124349    -0.452980097317100    -0.985476190854164
    H               -0.787693452124349     0.144019902682900    -2.945476190854164
    H                0.030386547875651    -1.339082097317100    -3.522520190854164
    H               -1.740893452124349    -1.352730097317100    -3.113305190854164

}
e, wfn = energy('scf', return_wfn=True)
gdma(wfn)
dmavals = variable('DMA DISTRIBUTED MULTIPOLES')
charges = np.array(dmavals)
print(charges)
np.save('SSI-019GLU-025THR-1-dimer.npy', np.array(charges))--------------------------------------------------------------------------

*** tstart() called on ds3
*** at Mon Apr 27 06:39:33 2020

   => Loading Basis Set <=

    Name: CC-PVDZ
    Role: ORBITAL
    Keyword: BASIS
    atoms 1-2, 8     entry C          line   138 file /theoryfs2/ds/metcalf/miniconda2/envs/tf2gpu/share/psi4/basis/cc-pvdz.gbs
    atoms 3-4, 9     entry O          line   198 file /theoryfs2/ds/metcalf/miniconda2/envs/tf2gpu/share/psi4/basis/cc-pvdz.gbs
    atoms 5-7, 10-13 entry H          line    22 file /theoryfs2/ds/metcalf/miniconda2/envs/tf2gpu/share/psi4/basis/cc-pvdz.gbs

         ---------------------------------------------------------
                                   SCF
               by Justin Turney, Rob Parrish, Andy Simmonett
                          and Daniel G. A. Smith
                              RHF Reference
                        1 Threads,    500 MiB Core
         ---------------------------------------------------------

  ==> Geometry <==

    Molecular point group: c1
    Full point group: C1

    Geometry (in Angstrom), charge = -1, multiplicity = 1:

       Center              X                  Y                   Z               Mass
    ------------   -----------------  -----------------  -----------------  -----------------
         C            1.613306547876    -0.033980097317     1.002523809146    12.000000000000
         C            0.264306547876     0.661019902683     1.180523809146    12.000000000000
         O           -0.532693452124     0.633019902683     0.211523809146    15.994914619570
         O           -0.060693452124     1.121019902683     2.300523809146    15.994914619570
         H            1.979306547876     0.120019902683    -0.013476190854     1.007825032230
         H            1.459306547876    -1.107980097317     1.122523809146     1.007825032230
         H            2.366436547876     0.282447902683     1.739185809146     1.007825032230
         C           -0.752693452124    -0.940980097317    -2.860476190854    12.000000000000
         O           -0.434693452124    -1.284980097317    -1.517476190854    15.994914619570
         H           -0.384693452124    -0.452980097317    -0.985476190854     1.007825032230
         H           -0.787693452124     0.144019902683    -2.945476190854     1.007825032230
         H            0.030386547876    -1.339082097317    -3.522520190854     1.007825032230
         H           -1.740893452124    -1.352730097317    -3.113305190854     1.007825032230

  Running in c1 symmetry.

  Rotational constants: A =      0.26863  B =      0.04574  C =      0.04093 [cm^-1]
  Rotational constants: A =   8053.42259  B =   1371.28208  C =   1227.18718 [MHz]
  Nuclear repulsion =  230.710718838997479

  Charge       = -1
  Multiplicity = 1
  Electrons    = 50
  Nalpha       = 25
  Nbeta        = 25

  ==> Algorithm <==

  SCF Algorithm Type is PK.
  DIIS enabled.
  MOM disabled.
  Fractional occupation disabled.
  Guess Type is SAD.
  Energy threshold   = 1.00e-06
  Density threshold  = 1.00e-10
  Integral threshold = 0.00e+00

  ==> Primary Basis <==

  Basis Set: CC-PVDZ
    Blend: CC-PVDZ
    Number of shells: 57
    Number of basis function: 119
    Number of Cartesian functions: 125
    Spherical Harmonics?: true
    Max angular momentum: 2

  ==> Pre-Iterations <==

   -------------------------------------------------------
    Irrep   Nso     Nmo     Nalpha   Nbeta   Ndocc  Nsocc
   -------------------------------------------------------
     A        119     119       0       0       0       0
   -------------------------------------------------------
    Total     119     119      25      25      25       0
   -------------------------------------------------------

  ==> Integral Setup <==

  Using integral reordering PK algorithm.
  Sizing the integral batches needed.
  Building batch lookup table.
   Calculation information:
      Number of atoms:                  13
      Number of AO shells:              57
      Number of primitives:            167
      Number of atomic orbitals:       125
      Number of basis functions:       119

      Integral cutoff                 1.00e-12
      Number of threads:                 1

	Batch   1 pq = [       0,    7140] index = [             0,25493370] size =     25493370
  Task number: 3
  Buffer size: 11059200
  Buffer per thread: 2
  We computed 1176018 shell quartets total.
  Whereas there are 1367031 unique shell quartets.

  ==> DiskJK: Disk-Based J/K Matrices <==

    J tasked:                  Yes
    K tasked:                  Yes
    wK tasked:                  No
    Memory [MiB]:              375
    Schwarz Cutoff:          1E-12

    OpenMP threads:              1

  Minimum eigenvalue in the overlap matrix is 5.5151512810E-03.
  Using Symmetric Orthogonalization.

  SCF Guess: Superposition of Atomic Densities via on-the-fly atomic UHF.

  ==> Iterations <==

                        Total Energy        Delta E     RMS |[F,P]|

   @RHF iter SAD:  -340.66001041478364   -3.40660e+02   0.00000e+00
   @RHF iter   1:  -342.07758100714886   -1.41757e+00   5.97337e-03 DIIS
   @RHF iter   2:  -342.24806930276628   -1.70488e-01   3.44775e-03 DIIS
   @RHF iter   3:  -342.30660066243900   -5.85314e-02   4.77858e-04 DIIS
   @RHF iter   4:  -342.30872241000759   -2.12175e-03   1.79199e-04 DIIS
   @RHF iter   5:  -342.30902680879501   -3.04399e-04   4.17664e-05 DIIS
   @RHF iter   6:  -342.30904215473737   -1.53459e-05   1.74570e-05 DIIS
   @RHF iter   7:  -342.30904470181162   -2.54707e-06   3.75241e-06 DIIS
   @RHF iter   8:  -342.30904496561618   -2.63805e-07   1.87155e-06 DIIS
   @RHF iter   9:  -342.30904500922611   -4.36099e-08   7.58129e-07 DIIS
   @RHF iter  10:  -342.30904502161070   -1.23846e-08   2.24803e-07 DIIS
   @RHF iter  11:  -342.30904502277792   -1.16722e-09   5.74677e-08 DIIS
   @RHF iter  12:  -342.30904502284295   -6.50289e-11   1.93999e-08 DIIS
   @RHF iter  13:  -342.30904502284613   -3.18323e-12   4.89639e-09 DIIS
   @RHF iter  14:  -342.30904502284761   -1.47793e-12   1.37815e-09 DIIS
   @RHF iter  15:  -342.30904502284534    2.27374e-12   4.91525e-10 DIIS
   @RHF iter  16:  -342.30904502284716   -1.81899e-12   1.33193e-10 DIIS
   @RHF iter  17:  -342.30904502284795   -7.95808e-13   5.39837e-11 DIIS
  Energy and wave function converged.

  ==> Post-Iterations <==

    Orbital Energies [Eh]
    ---------------------

    Doubly Occupied:

       1A    -20.357227     2A    -20.287233     3A    -20.276184
       4A    -11.137815     5A    -11.132638     6A    -11.060091
       7A     -1.174917     8A     -1.159549     9A     -1.057028
      10A     -0.806170    11A     -0.767748    12A     -0.537749
      13A     -0.504853    14A     -0.464943    15A     -0.435798
      16A     -0.422648    17A     -0.420112    18A     -0.408833
      19A     -0.360341    20A     -0.327387    21A     -0.317966
      22A     -0.269634    23A     -0.206693    24A     -0.190838
      25A     -0.183869

    Virtual:

      26A      0.320100    27A      0.353291    28A      0.386474
      29A      0.388065    30A      0.396123    31A      0.410275
      32A      0.464337    33A      0.471274    34A      0.559311
      35A      0.615328    36A      0.681953    37A      0.743692
      38A      0.763406    39A      0.781428    40A      0.811508
      41A      0.858243    42A      0.899723    43A      0.932016
      44A      0.946510    45A      0.988744    46A      0.989893
      47A      1.008349    48A      1.019621    49A      1.032992
      50A      1.051274    51A      1.064119    52A      1.083839
      53A      1.113275    54A      1.204859    55A      1.285380
      56A      1.299109    57A      1.324785    58A      1.335280
      59A      1.359514    60A      1.382571    61A      1.470140
      62A      1.527781    63A      1.554009    64A      1.572207
      65A      1.581085    66A      1.608067    67A      1.649002
      68A      1.687605    69A      1.729449    70A      1.796261
      71A      1.816883    72A      1.837566    73A      1.851064
      74A      1.891044    75A      1.937547    76A      1.986408
      77A      2.044404    78A      2.055785    79A      2.062570
      80A      2.082320    81A      2.088660    82A      2.092785
      83A      2.153870    84A      2.189024    85A      2.205441
      86A      2.233121    87A      2.289273    88A      2.327137
      89A      2.409075    90A      2.419163    91A      2.463132
      92A      2.533964    93A      2.537371    94A      2.567176
      95A      2.640440    96A      2.664170    97A      2.726618
      98A      2.868162    99A      2.881820   100A      2.911077
     101A      2.919621   102A      2.927696   103A      2.977139
     104A      2.984891   105A      3.228945   106A      3.269573
     107A      3.309450   108A      3.453730   109A      3.488152
     110A      3.560451   111A      3.601887   112A      3.679068
     113A      3.738873   114A      3.782124   115A      3.825057
     116A      4.026761   117A      4.087508   118A      4.155042
     119A      4.375184

    Final Occupation by Irrep:
              A
    DOCC [    25 ]

  @RHF Final Energy:  -342.30904502284795

   => Energetics <=

    Nuclear Repulsion Energy =            230.7107188389974795
    One-Electron Energy =                -937.5029944041822318
    Two-Electron Energy =                 364.4832305423368553
    Total Energy =                       -342.3090450228479540

Computation Completed

Properties will be evaluated at   0.000000,   0.000000,   0.000000 [a0]

Properties computed using the SCF density matrix

  Nuclear Dipole Moment: [e a0]
     X:     2.7345      Y:    -3.4723      Z:    -7.2311

  Electronic Dipole Moment: [e a0]
     X:    -1.8878      Y:     2.7766      Z:     5.4188

  Dipole Moment: [e a0]
     X:     0.8467      Y:    -0.6957      Z:    -1.8123     Total:     2.1179

  Dipole Moment: [D]
     X:     2.1521      Y:    -1.7683      Z:    -4.6064     Total:     5.3830

*** tstop() called on ds3 at Mon Apr 27 06:39:48 2020
Module time:
	user time   =      10.36 seconds =       0.17 minutes
	system time =       4.25 seconds =       0.07 minutes
	total time  =         15 seconds =       0.25 minutes
Total time:
	user time   =      10.36 seconds =       0.17 minutes
	system time =       4.25 seconds =       0.07 minutes
	total time  =         15 seconds =       0.25 minutes
                                     G D M A

                                 by Anthony Stone

                           version 2.2.06, 22 June 2011

               Distributed Multipoles from Gaussian wavefunctions

Starting at 6:39:48 on 27 Apr 2020

Using SCF density matrix from file ./SSI/SSI-019GLU-025THR-1-dimer.test.17743.fchk

                         Distributed Multipole Analysis

Standard DMA

Positions and radii in angstrom
Multipole moments in atomic units, ea_0^k for rank k

C          x =  1.613307  y = -0.033980  z =  1.002524 angstrom
           Maximum rank =  0   Radius =  0.650 angstrom
                   Q00  =  -0.294413

C          x =  0.264307  y =  0.661020  z =  1.180524 angstrom
           Maximum rank =  0   Radius =  0.650 angstrom
                   Q00  =   0.934992

O          x = -0.532693  y =  0.633020  z =  0.211524 angstrom
           Maximum rank =  0   Radius =  0.650 angstrom
                   Q00  =  -0.937321

O          x = -0.060693  y =  1.121020  z =  2.300524 angstrom
           Maximum rank =  0   Radius =  0.650 angstrom
                   Q00  =  -0.897308

H          x =  1.979307  y =  0.120020  z = -0.013476 angstrom
           Maximum rank =  0   Radius =  0.325 angstrom
                   Q00  =   0.063314

H          x =  1.459307  y = -1.107980  z =  1.122524 angstrom
           Maximum rank =  0   Radius =  0.325 angstrom
                   Q00  =   0.100860

H          x =  2.366437  y =  0.282448  z =  1.739186 angstrom
           Maximum rank =  0   Radius =  0.325 angstrom
                   Q00  =   0.057051

C          x = -0.752693  y = -0.940980  z = -2.860476 angstrom
           Maximum rank =  0   Radius =  0.650 angstrom
                   Q00  =   0.001051

O          x = -0.434693  y = -1.284980  z = -1.517476 angstrom
           Maximum rank =  0   Radius =  0.650 angstrom
                   Q00  =  -0.722110

H          x = -0.384693  y = -0.452980  z = -0.985476 angstrom
           Maximum rank =  0   Radius =  0.325 angstrom
                   Q00  =   0.560710

H          x = -0.787693  y =  0.144020  z = -2.945476 angstrom
           Maximum rank =  0   Radius =  0.325 angstrom
                   Q00  =   0.053600

H          x =  0.030387  y = -1.339082  z = -3.522520 angstrom
           Maximum rank =  0   Radius =  0.325 angstrom
                   Q00  =   0.038219

H          x = -1.740893  y = -1.352730  z = -3.113305 angstrom
           Maximum rank =  0   Radius =  0.325 angstrom
                   Q00  =   0.041355

Total multipoles referred to origin at
           x =   0.000000,  y =    0.000000,  z =    0.000000 angstrom
                   Q00  =  -1.000000

Finished at 6:39:48 on 27 Apr 2020

  DMA results are available in the Python driver through the
	  variable('DMA DISTRIBUTED MULTIPOLES')
  and
	  variable('DMA TOTAL MULTIPOLES')
  commands.

    Psi4 stopped on: Monday, 27 April 2020 06:39AM
    Psi4 wall time for execution: 0:00:14.77

*** Psi4 exiting successfully. Buy a developer a beer!
