                               Psi4 1.3.2 release

  ==> Input File <==

--------------------------------------------------------------------------
import numpy as np
set {scf_type pk
basis cc-pvdz
d_convergence 10
gdma_switch   0
gdma_limit    0
gdma_origin   [ 0.0,  0.0,  0.0 ]
}
molecule test {
    units Angstrom
    0 1
    --
    0 1
    C                1.076224233123249    -3.234470431217107    -1.085324242848888
    C                1.358224233123249    -3.899470431217107     0.263675757151112
    H                1.693224233123249    -3.686470431217107    -1.858324242848888
    H                0.029224233123249    -3.377470431217107    -1.344324242848888
    H                1.305224233123249    -2.173470431217107    -1.022324242848888
    H                1.190224233123249    -4.968470431217106     0.138675757151112
    H                2.390204233123248    -3.752146431217107     0.614825757151112
    H                0.637994233123249    -3.535078431217107     1.010995757151112
    C                1.850224233123249     1.850529568782893    -0.484324242848888
    C               -0.134775766876751     0.334529568782893    -0.733324242848888
    C                0.458224233123249     1.429529568782894    -0.117324242848888
    C               -1.400775766876751    -0.070470431217107    -0.373324242848888
    C               -2.087775766876751     0.641529568782893     0.611675757151112
    C               -0.229775766876751     2.136529568782893     0.875675757151112
    C               -1.515775766876751     1.746529568782893     1.239675757151112
    H                0.392224233123249    -0.196470431217107    -1.510324242848888
    H               -1.851775766876751    -0.931470431217107    -0.844324242848888
    H                1.986224233123249     2.898529568782893    -0.244324242848888
    H                1.946224233123249     1.736529568782893    -1.552324242848888
    H               -3.080775766876751     0.323529568782893     0.901675757151112
    H                0.233224233123249     2.986529568782893     1.358675757151112
    H               -2.058775766876751     2.285529568782893     2.002675757151112
    H                2.640794233123249     1.260299568782894     0.002125757151112

}
e, wfn = energy('scf', return_wfn=True)
gdma(wfn)
dmavals = variable('DMA DISTRIBUTED MULTIPOLES')
charges = np.array(dmavals)
print(charges)
np.save('SSI-028VAL-105PHE-1-dimer.npy', np.array(charges))--------------------------------------------------------------------------

*** tstart() called on ds3
*** at Sun Apr 26 18:02:57 2020

   => Loading Basis Set <=

    Name: CC-PVDZ
    Role: ORBITAL
    Keyword: BASIS
    atoms 1-2, 9-15  entry C          line   138 file /theoryfs2/ds/metcalf/miniconda2/envs/tf2gpu/share/psi4/basis/cc-pvdz.gbs
    atoms 3-8, 16-23 entry H          line    22 file /theoryfs2/ds/metcalf/miniconda2/envs/tf2gpu/share/psi4/basis/cc-pvdz.gbs

         ---------------------------------------------------------
                                   SCF
               by Justin Turney, Rob Parrish, Andy Simmonett
                          and Daniel G. A. Smith
                              RHF Reference
                        1 Threads,    500 MiB Core
         ---------------------------------------------------------

  ==> Geometry <==

    Molecular point group: c1
    Full point group: C1

    Geometry (in Angstrom), charge = 0, multiplicity = 1:

       Center              X                  Y                   Z               Mass
    ------------   -----------------  -----------------  -----------------  -----------------
         C            1.076224233123    -3.234470431217    -1.085324242849    12.000000000000
         C            1.358224233123    -3.899470431217     0.263675757151    12.000000000000
         H            1.693224233123    -3.686470431217    -1.858324242849     1.007825032230
         H            0.029224233123    -3.377470431217    -1.344324242849     1.007825032230
         H            1.305224233123    -2.173470431217    -1.022324242849     1.007825032230
         H            1.190224233123    -4.968470431217     0.138675757151     1.007825032230
         H            2.390204233123    -3.752146431217     0.614825757151     1.007825032230
         H            0.637994233123    -3.535078431217     1.010995757151     1.007825032230
         C            1.850224233123     1.850529568783    -0.484324242849    12.000000000000
         C           -0.134775766877     0.334529568783    -0.733324242849    12.000000000000
         C            0.458224233123     1.429529568783    -0.117324242849    12.000000000000
         C           -1.400775766877    -0.070470431217    -0.373324242849    12.000000000000
         C           -2.087775766877     0.641529568783     0.611675757151    12.000000000000
         C           -0.229775766877     2.136529568783     0.875675757151    12.000000000000
         C           -1.515775766877     1.746529568783     1.239675757151    12.000000000000
         H            0.392224233123    -0.196470431217    -1.510324242849     1.007825032230
         H           -1.851775766877    -0.931470431217    -0.844324242849     1.007825032230
         H            1.986224233123     2.898529568783    -0.244324242849     1.007825032230
         H            1.946224233123     1.736529568783    -1.552324242849     1.007825032230
         H           -3.080775766877     0.323529568783     0.901675757151     1.007825032230
         H            0.233224233123     2.986529568783     1.358675757151     1.007825032230
         H           -2.058775766877     2.285529568783     2.002675757151     1.007825032230
         H            2.640794233123     1.260299568783     0.002125757151     1.007825032230

  Running in c1 symmetry.

  Rotational constants: A =      0.06775  B =      0.02441  C =      0.02015 [cm^-1]
  Rotational constants: A =   2031.21657  B =    731.82751  C =    604.06146 [MHz]
  Nuclear repulsion =  404.330951365710121

  Charge       = 0
  Multiplicity = 1
  Electrons    = 68
  Nalpha       = 34
  Nbeta        = 34

  ==> Algorithm <==

  SCF Algorithm Type is PK.
  DIIS enabled.
  MOM disabled.
  Fractional occupation disabled.
  Guess Type is SAD.
  Energy threshold   = 1.00e-06
  Density threshold  = 1.00e-10
  Integral threshold = 0.00e+00

  ==> Primary Basis <==

  Basis Set: CC-PVDZ
    Blend: CC-PVDZ
    Number of shells: 96
    Number of basis function: 196
    Number of Cartesian functions: 205
    Spherical Harmonics?: true
    Max angular momentum: 2

  ==> Pre-Iterations <==

   -------------------------------------------------------
    Irrep   Nso     Nmo     Nalpha   Nbeta   Ndocc  Nsocc
   -------------------------------------------------------
     A        196     196       0       0       0       0
   -------------------------------------------------------
    Total     196     196      34      34      34       0
   -------------------------------------------------------

  ==> Integral Setup <==

  Using integral reordering PK algorithm.
  Sizing the integral batches needed.
  Building batch lookup table.
   Calculation information:
      Number of atoms:                  23
      Number of AO shells:              96
      Number of primitives:            268
      Number of atomic orbitals:       205
      Number of basis functions:       196

      Integral cutoff                 1.00e-12
      Number of threads:                 1

	Batch   1 pq = [       0,    9405] index = [             0,44231715] size =     44231715
	Batch   2 pq = [    9405,   13301] index = [      44231715,88464951] size =     44233236
	Batch   3 pq = [   13301,   16290] index = [      88464951,132690195] size =     44225244
	Batch   4 pq = [   16290,   18810] index = [     132690195,176917455] size =     44227260
	Batch   5 pq = [   18810,   19306] index = [     176917455,186370471] size =      9453016
  Task number: 17
  Buffer size: 11059200
  Buffer per thread: 2
  We computed 9135123 shell quartets total.
  Whereas there are 10841496 unique shell quartets.

  ==> DiskJK: Disk-Based J/K Matrices <==

    J tasked:                  Yes
    K tasked:                  Yes
    wK tasked:                  No
    Memory [MiB]:              375
    Schwarz Cutoff:          1E-12

    OpenMP threads:              1

  Minimum eigenvalue in the overlap matrix is 3.0864851601E-04.
  Using Symmetric Orthogonalization.

  SCF Guess: Superposition of Atomic Densities via on-the-fly atomic UHF.

  ==> Iterations <==

                        Total Energy        Delta E     RMS |[F,P]|

   @RHF iter SAD:  -347.90768878378049   -3.47908e+02   0.00000e+00
   @RHF iter   1:  -348.76463367738393   -8.56945e-01   2.90800e-03 DIIS
   @RHF iter   2:  -348.95812657442667   -1.93493e-01   1.20950e-03 DIIS
   @RHF iter   3:  -348.98869843603893   -3.05719e-02   2.60767e-04 DIIS
   @RHF iter   4:  -348.99118807171470   -2.48964e-03   5.68751e-05 DIIS
   @RHF iter   5:  -348.99127055717690   -8.24855e-05   1.86338e-05 DIIS
   @RHF iter   6:  -348.99127908769583   -8.53052e-06   4.99806e-06 DIIS
   @RHF iter   7:  -348.99127980900857   -7.21313e-07   1.27949e-06 DIIS
   @RHF iter   8:  -348.99127987174143   -6.27329e-08   3.85308e-07 DIIS
   @RHF iter   9:  -348.99127988353212   -1.17907e-08   1.95043e-07 DIIS
   @RHF iter  10:  -348.99127988692851   -3.39639e-09   8.98453e-08 DIIS
   @RHF iter  11:  -348.99127988800615   -1.07764e-09   2.91560e-08 DIIS
   @RHF iter  12:  -348.99127988808118   -7.50333e-11   1.26504e-08 DIIS
   @RHF iter  13:  -348.99127988809209   -1.09139e-11   4.24330e-09 DIIS
   @RHF iter  14:  -348.99127988809380   -1.70530e-12   1.34192e-09 DIIS
   @RHF iter  15:  -348.99127988809505   -1.25056e-12   5.07709e-10 DIIS
   @RHF iter  16:  -348.99127988809391    1.13687e-12   2.17914e-10 DIIS
   @RHF iter  17:  -348.99127988809335    5.68434e-13   8.11735e-11 DIIS
  Energy and wave function converged.

  ==> Post-Iterations <==

    Orbital Energies [Eh]
    ---------------------

    Doubly Occupied:

       1A    -11.238834     2A    -11.235519     3A    -11.234276
       4A    -11.230999     5A    -11.230744     6A    -11.227594
       7A    -11.225607     8A    -11.217373     9A    -11.215738
      10A     -1.153454    11A     -1.043644    12A     -1.017764
      13A     -1.014685    14A     -0.930084    15A     -0.836423
      16A     -0.824587    17A     -0.796063    18A     -0.690594
      19A     -0.632551    20A     -0.630967    21A     -0.598620
      22A     -0.597684    23A     -0.585924    24A     -0.576653
      25A     -0.557530    26A     -0.536913    27A     -0.499726
      28A     -0.489563    29A     -0.487479    30A     -0.485880
      31A     -0.482929    32A     -0.475750    33A     -0.334516
      34A     -0.319171

    Virtual:

      35A      0.135379    36A      0.139643    37A      0.173946
      38A      0.194954    39A      0.200132    40A      0.216269
      41A      0.237200    42A      0.242189    43A      0.255930
      44A      0.258123    45A      0.265136    46A      0.280353
      47A      0.283157    48A      0.289533    49A      0.306559
      50A      0.340589    51A      0.370681    52A      0.381343
      53A      0.399165    54A      0.454158    55A      0.461055
      56A      0.481910    57A      0.491337    58A      0.564128
      59A      0.588230    60A      0.600503    61A      0.602858
      62A      0.620531    63A      0.637736    64A      0.663861
      65A      0.681173    66A      0.691698    67A      0.693444
      68A      0.704955    69A      0.716775    70A      0.742025
      71A      0.742400    72A      0.747799    73A      0.767945
      74A      0.773539    75A      0.777626    76A      0.803832
      77A      0.842570    78A      0.844064    79A      0.859173
      80A      0.864128    81A      0.876393    82A      0.879933
      83A      0.892470    84A      0.895786    85A      0.898534
      86A      0.910671    87A      0.910981    88A      0.924290
      89A      0.931010    90A      0.933097    91A      0.950556
      92A      0.971518    93A      0.997856    94A      1.006875
      95A      1.015930    96A      1.052657    97A      1.117637
      98A      1.125334    99A      1.128089   100A      1.141764
     101A      1.156557   102A      1.166296   103A      1.191275
     104A      1.229907   105A      1.243121   106A      1.247155
     107A      1.256570   108A      1.272130   109A      1.306546
     110A      1.310577   111A      1.325656   112A      1.329894
     113A      1.410807   114A      1.470806   115A      1.492259
     116A      1.503081   117A      1.518884   118A      1.563154
     119A      1.578422   120A      1.607842   121A      1.684025
     122A      1.685667   123A      1.701174   124A      1.710403
     125A      1.737362   126A      1.748830   127A      1.757063
     128A      1.788212   129A      1.813591   130A      1.856322
     131A      1.862579   132A      1.869039   133A      1.884097
     134A      1.899572   135A      1.904832   136A      1.914400
     137A      1.918255   138A      1.920327   139A      1.938074
     140A      1.944503   141A      1.950356   142A      1.951953
     143A      1.961527   144A      1.964372   145A      1.982271
     146A      1.984577   147A      1.992132   148A      2.011363
     149A      2.045344   150A      2.061505   151A      2.072687
     152A      2.091979   153A      2.112647   154A      2.140005
     155A      2.151259   156A      2.158909   157A      2.159997
     158A      2.182310   159A      2.193281   160A      2.256268
     161A      2.281099   162A      2.292820   163A      2.299957
     164A      2.307511   165A      2.314306   166A      2.322327
     167A      2.328214   168A      2.455659   169A      2.475535
     170A      2.476546   171A      2.480121   172A      2.512184
     173A      2.550819   174A      2.559706   175A      2.582965
     176A      2.631188   177A      2.742698   178A      2.757337
     179A      2.764539   180A      2.779724   181A      2.790196
     182A      2.802275   183A      2.814842   184A      2.847884
     185A      2.859501   186A      2.866481   187A      2.886478
     188A      2.951750   189A      2.974868   190A      2.981657
     191A      3.020187   192A      3.031876   193A      3.158707
     194A      3.206209   195A      3.306951   196A      3.975929

    Final Occupation by Irrep:
              A
    DOCC [    34 ]

  @RHF Final Energy:  -348.99127988809335

   => Energetics <=

    Nuclear Repulsion Energy =            404.3309513657101206
    One-Electron Energy =               -1271.3327966948022549
    Two-Electron Energy =                 518.0105654409987892
    Total Energy =                       -348.9912798880933451

Computation Completed

Properties will be evaluated at   0.000000,   0.000000,   0.000000 [a0]

Properties computed using the SCF density matrix

  Nuclear Dipole Moment: [e a0]
     X:     6.9874      Y:   -10.4341      Z:    -2.1999

  Electronic Dipole Moment: [e a0]
     X:    -6.8841      Y:    10.4706      Z:     2.1787

  Dipole Moment: [e a0]
     X:     0.1033      Y:     0.0365      Z:    -0.0212     Total:     0.1116

  Dipole Moment: [D]
     X:     0.2627      Y:     0.0928      Z:    -0.0538     Total:     0.2837

*** tstop() called on ds3 at Sun Apr 26 18:04:26 2020
Module time:
	user time   =      63.35 seconds =       1.06 minutes
	system time =      28.64 seconds =       0.48 minutes
	total time  =         89 seconds =       1.48 minutes
Total time:
	user time   =      63.35 seconds =       1.06 minutes
	system time =      28.64 seconds =       0.48 minutes
	total time  =         89 seconds =       1.48 minutes
                                     G D M A

                                 by Anthony Stone

                           version 2.2.06, 22 June 2011

               Distributed Multipoles from Gaussian wavefunctions

Starting at 18:4:26 on 26 Apr 2020

Using SCF density matrix from file ./SSI/SSI-028VAL-105PHE-1-dimer.test.17934.fchk

                         Distributed Multipole Analysis

Standard DMA

Positions and radii in angstrom
Multipole moments in atomic units, ea_0^k for rank k

C          x =  1.076224  y = -3.234470  z = -1.085324 angstrom
           Maximum rank =  0   Radius =  0.650 angstrom
                   Q00  =  -0.245198

C          x =  1.358224  y = -3.899470  z =  0.263676 angstrom
           Maximum rank =  0   Radius =  0.650 angstrom
                   Q00  =  -0.228283

H          x =  1.693224  y = -3.686470  z = -1.858324 angstrom
           Maximum rank =  0   Radius =  0.325 angstrom
                   Q00  =   0.076891

H          x =  0.029224  y = -3.377470  z = -1.344324 angstrom
           Maximum rank =  0   Radius =  0.325 angstrom
                   Q00  =   0.078626

H          x =  1.305224  y = -2.173470  z = -1.022324 angstrom
           Maximum rank =  0   Radius =  0.325 angstrom
                   Q00  =   0.081772

H          x =  1.190224  y = -4.968470  z =  0.138676 angstrom
           Maximum rank =  0   Radius =  0.325 angstrom
                   Q00  =   0.073679

H          x =  2.390204  y = -3.752146  z =  0.614826 angstrom
           Maximum rank =  0   Radius =  0.325 angstrom
                   Q00  =   0.081729

H          x =  0.637994  y = -3.535078  z =  1.010996 angstrom
           Maximum rank =  0   Radius =  0.325 angstrom
                   Q00  =   0.081339

C          x =  1.850224  y =  1.850530  z = -0.484324 angstrom
           Maximum rank =  0   Radius =  0.650 angstrom
                   Q00  =  -0.194708

C          x = -0.134776  y =  0.334530  z = -0.733324 angstrom
           Maximum rank =  0   Radius =  0.650 angstrom
                   Q00  =  -0.093136

C          x =  0.458224  y =  1.429530  z = -0.117324 angstrom
           Maximum rank =  0   Radius =  0.650 angstrom
                   Q00  =  -0.085431

C          x = -1.400776  y = -0.070470  z = -0.373324 angstrom
           Maximum rank =  0   Radius =  0.650 angstrom
                   Q00  =  -0.067977

C          x = -2.087776  y =  0.641530  z =  0.611676 angstrom
           Maximum rank =  0   Radius =  0.650 angstrom
                   Q00  =  -0.003977

C          x = -0.229776  y =  2.136530  z =  0.875676 angstrom
           Maximum rank =  0   Radius =  0.650 angstrom
                   Q00  =  -0.088510

C          x = -1.515776  y =  1.746530  z =  1.239676 angstrom
           Maximum rank =  0   Radius =  0.650 angstrom
                   Q00  =  -0.073075

H          x =  0.392224  y = -0.196470  z = -1.510324 angstrom
           Maximum rank =  0   Radius =  0.325 angstrom
                   Q00  =   0.058012

H          x = -1.851776  y = -0.931470  z = -0.844324 angstrom
           Maximum rank =  0   Radius =  0.325 angstrom
                   Q00  =   0.066145

H          x =  1.986224  y =  2.898530  z = -0.244324 angstrom
           Maximum rank =  0   Radius =  0.325 angstrom
                   Q00  =   0.098063

H          x =  1.946224  y =  1.736530  z = -1.552324 angstrom
           Maximum rank =  0   Radius =  0.325 angstrom
                   Q00  =   0.097240

H          x = -3.080776  y =  0.323530  z =  0.901676 angstrom
           Maximum rank =  0   Radius =  0.325 angstrom
                   Q00  =   0.058996

H          x =  0.233224  y =  2.986530  z =  1.358676 angstrom
           Maximum rank =  0   Radius =  0.325 angstrom
                   Q00  =   0.058441

H          x = -2.058776  y =  2.285530  z =  2.002676 angstrom
           Maximum rank =  0   Radius =  0.325 angstrom
                   Q00  =   0.066512

H          x =  2.640794  y =  1.260300  z =  0.002126 angstrom
           Maximum rank =  0   Radius =  0.325 angstrom
                   Q00  =   0.102850

Total multipoles referred to origin at
           x =   0.000000,  y =    0.000000,  z =    0.000000 angstrom
                   Q00  =  -0.000000

Finished at 18:4:26 on 26 Apr 2020

  DMA results are available in the Python driver through the
	  variable('DMA DISTRIBUTED MULTIPOLES')
  and
	  variable('DMA TOTAL MULTIPOLES')
  commands.

    Psi4 stopped on: Sunday, 26 April 2020 06:04PM
    Psi4 wall time for execution: 0:01:29.16

*** Psi4 exiting successfully. Buy a developer a beer!
