                               Psi4 1.3.2 release

  ==> Input File <==

--------------------------------------------------------------------------
import numpy as np
set {scf_type pk
basis cc-pvdz
d_convergence 10
gdma_switch   0
gdma_limit    0
gdma_origin   [ 0.0,  0.0,  0.0 ]
}
molecule test {
    units Angstrom
    0 1
    --
    0 1
    C               -0.073800204798680     2.411496299988066    -0.992719659663476
    C                0.250199795201320     0.197496299988066     0.103280340336525
    C                0.664199795201320     1.125496299988066    -0.841719659663476
    C                0.915199795201320    -1.015503700011934     0.223280340336524
    C                1.736199795201320     0.817496299988066    -1.674719659663476
    C                1.987199795201320    -1.320503700011934    -0.611719659663476
    C                2.405199795201320    -0.396503700011934    -1.557719659663475
    H               -0.569800204798680     0.428496299988066     0.768280340336524
    H                0.599199795201320    -1.722503700011934     0.974280340336524
    H                0.622199795201320     3.244496299988067    -0.888719659663476
    H               -0.799800204798680     2.503496299988067    -0.182719659663476
    H                2.123199795201321     1.547496299988066    -2.368719659663475
    H                2.505199795201321    -2.265503700011934    -0.508719659663476
    H                3.256199795201321    -0.615503700011934    -2.188719659663476
    H               -0.620110204798680     2.477626299988066    -1.945169659663475
    C               -2.744800204798679    -0.598503700011934     2.111280340336525
    C               -4.031800204798680    -1.231503700011934     2.586280340336524
    H               -2.733800204798679    -0.552503700011934     1.020280340336524
    H               -2.667800204798679     0.415496299988066     2.507280340336525
    H               -1.887800204798680    -1.172503700011934     2.467280340336525
    H               -4.024800204798679    -1.218503700011934     3.674280340336525
    H               -4.080790204798680    -2.271173700011934     2.230360340336525
    H               -4.911660204798680    -0.673493700011934     2.233470340336524

}
e, wfn = energy('scf', return_wfn=True)
gdma(wfn)
dmavals = variable('DMA DISTRIBUTED MULTIPOLES')
charges = np.array(dmavals)
print(charges)
np.save('SSI-034PHE-072LEU-1-dimer.npy', np.array(charges))--------------------------------------------------------------------------

*** tstart() called on ds3
*** at Mon Apr 27 18:59:33 2020

   => Loading Basis Set <=

    Name: CC-PVDZ
    Role: ORBITAL
    Keyword: BASIS
    atoms 1-7, 16-17  entry C          line   138 file /theoryfs2/ds/metcalf/miniconda2/envs/tf2gpu/share/psi4/basis/cc-pvdz.gbs
    atoms 8-15, 18-23 entry H          line    22 file /theoryfs2/ds/metcalf/miniconda2/envs/tf2gpu/share/psi4/basis/cc-pvdz.gbs

         ---------------------------------------------------------
                                   SCF
               by Justin Turney, Rob Parrish, Andy Simmonett
                          and Daniel G. A. Smith
                              RHF Reference
                        1 Threads,    500 MiB Core
         ---------------------------------------------------------

  ==> Geometry <==

    Molecular point group: c1
    Full point group: C1

    Geometry (in Angstrom), charge = 0, multiplicity = 1:

       Center              X                  Y                   Z               Mass
    ------------   -----------------  -----------------  -----------------  -----------------
         C           -0.073800204799     2.411496299988    -0.992719659663    12.000000000000
         C            0.250199795201     0.197496299988     0.103280340337    12.000000000000
         C            0.664199795201     1.125496299988    -0.841719659663    12.000000000000
         C            0.915199795201    -1.015503700012     0.223280340337    12.000000000000
         C            1.736199795201     0.817496299988    -1.674719659663    12.000000000000
         C            1.987199795201    -1.320503700012    -0.611719659663    12.000000000000
         C            2.405199795201    -0.396503700012    -1.557719659663    12.000000000000
         H           -0.569800204799     0.428496299988     0.768280340337     1.007825032230
         H            0.599199795201    -1.722503700012     0.974280340337     1.007825032230
         H            0.622199795201     3.244496299988    -0.888719659663     1.007825032230
         H           -0.799800204799     2.503496299988    -0.182719659663     1.007825032230
         H            2.123199795201     1.547496299988    -2.368719659663     1.007825032230
         H            2.505199795201    -2.265503700012    -0.508719659663     1.007825032230
         H            3.256199795201    -0.615503700012    -2.188719659663     1.007825032230
         H           -0.620110204799     2.477626299988    -1.945169659663     1.007825032230
         C           -2.744800204799    -0.598503700012     2.111280340337    12.000000000000
         C           -4.031800204799    -1.231503700012     2.586280340337    12.000000000000
         H           -2.733800204799    -0.552503700012     1.020280340337     1.007825032230
         H           -2.667800204799     0.415496299988     2.507280340337     1.007825032230
         H           -1.887800204799    -1.172503700012     2.467280340337     1.007825032230
         H           -4.024800204799    -1.218503700012     3.674280340337     1.007825032230
         H           -4.080790204799    -2.271173700012     2.230360340337     1.007825032230
         H           -4.911660204799    -0.673493700012     2.233470340337     1.007825032230

  Running in c1 symmetry.

  Rotational constants: A =      0.08177  B =      0.02034  C =      0.01662 [cm^-1]
  Rotational constants: A =   2451.30549  B =    609.75377  C =    498.29047 [MHz]
  Nuclear repulsion =  399.220221778601001

  Charge       = 0
  Multiplicity = 1
  Electrons    = 68
  Nalpha       = 34
  Nbeta        = 34

  ==> Algorithm <==

  SCF Algorithm Type is PK.
  DIIS enabled.
  MOM disabled.
  Fractional occupation disabled.
  Guess Type is SAD.
  Energy threshold   = 1.00e-06
  Density threshold  = 1.00e-10
  Integral threshold = 0.00e+00

  ==> Primary Basis <==

  Basis Set: CC-PVDZ
    Blend: CC-PVDZ
    Number of shells: 96
    Number of basis function: 196
    Number of Cartesian functions: 205
    Spherical Harmonics?: true
    Max angular momentum: 2

  ==> Pre-Iterations <==

   -------------------------------------------------------
    Irrep   Nso     Nmo     Nalpha   Nbeta   Ndocc  Nsocc
   -------------------------------------------------------
     A        196     196       0       0       0       0
   -------------------------------------------------------
    Total     196     196      34      34      34       0
   -------------------------------------------------------

  ==> Integral Setup <==

  Using integral reordering PK algorithm.
  Sizing the integral batches needed.
  Building batch lookup table.
   Calculation information:
      Number of atoms:                  23
      Number of AO shells:              96
      Number of primitives:            268
      Number of atomic orbitals:       205
      Number of basis functions:       196

      Integral cutoff                 1.00e-12
      Number of threads:                 1

	Batch   1 pq = [       0,    9405] index = [             0,44231715] size =     44231715
	Batch   2 pq = [    9405,   13301] index = [      44231715,88464951] size =     44233236
	Batch   3 pq = [   13301,   16290] index = [      88464951,132690195] size =     44225244
	Batch   4 pq = [   16290,   18810] index = [     132690195,176917455] size =     44227260
	Batch   5 pq = [   18810,   19306] index = [     176917455,186370471] size =      9453016
  Task number: 17
  Buffer size: 11059200
  Buffer per thread: 2
  We computed 8531263 shell quartets total.
  Whereas there are 10841496 unique shell quartets.

  ==> DiskJK: Disk-Based J/K Matrices <==

    J tasked:                  Yes
    K tasked:                  Yes
    wK tasked:                  No
    Memory [MiB]:              375
    Schwarz Cutoff:          1E-12

    OpenMP threads:              1

  Minimum eigenvalue in the overlap matrix is 3.0023428164E-04.
  Using Symmetric Orthogonalization.

  SCF Guess: Superposition of Atomic Densities via on-the-fly atomic UHF.

  ==> Iterations <==

                        Total Energy        Delta E     RMS |[F,P]|

   @RHF iter SAD:  -347.96022363267241   -3.47960e+02   0.00000e+00
   @RHF iter   1:  -348.76310238793752   -8.02879e-01   2.92321e-03 DIIS
   @RHF iter   2:  -348.95853248974197   -1.95430e-01   1.22009e-03 DIIS
   @RHF iter   3:  -348.98962005167624   -3.10876e-02   2.62051e-04 DIIS
   @RHF iter   4:  -348.99214853531379   -2.52848e-03   5.66125e-05 DIIS
   @RHF iter   5:  -348.99223050773583   -8.19724e-05   1.90239e-05 DIIS
   @RHF iter   6:  -348.99223934516539   -8.83743e-06   5.03704e-06 DIIS
   @RHF iter   7:  -348.99224007091271   -7.25747e-07   1.22779e-06 DIIS
   @RHF iter   8:  -348.99224012098267   -5.00700e-08   3.00499e-07 DIIS
   @RHF iter   9:  -348.99224012649631   -5.51364e-09   1.24432e-07 DIIS
   @RHF iter  10:  -348.99224012765330   -1.15699e-09   5.62319e-08 DIIS
   @RHF iter  11:  -348.99224012805894   -4.05635e-10   2.13005e-08 DIIS
   @RHF iter  12:  -348.99224012811999   -6.10498e-11   9.46083e-09 DIIS
   @RHF iter  13:  -348.99224012812590   -5.91172e-12   3.84329e-09 DIIS
   @RHF iter  14:  -348.99224012812823   -2.33058e-12   1.02858e-09 DIIS
   @RHF iter  15:  -348.99224012812726    9.66338e-13   3.56078e-10 DIIS
   @RHF iter  16:  -348.99224012812607    1.19371e-12   1.11105e-10 DIIS
   @RHF iter  17:  -348.99224012812715   -1.08002e-12   4.97330e-11 DIIS
  Energy and wave function converged.

  ==> Post-Iterations <==

    Orbital Energies [Eh]
    ---------------------

    Doubly Occupied:

       1A    -11.236659     2A    -11.233394     3A    -11.232459
       4A    -11.228951     5A    -11.227597     6A    -11.226592
       7A    -11.226192     8A    -11.219929     9A    -11.219076
      10A     -1.153173    11A     -1.045403    12A     -1.025892
      13A     -1.010812    14A     -0.930060    15A     -0.837982
      16A     -0.823325    17A     -0.794130    18A     -0.689635
      19A     -0.632088    20A     -0.627436    21A     -0.604121
      22A     -0.602187    23A     -0.581848    24A     -0.578800
      25A     -0.562161    26A     -0.530627    27A     -0.506799
      28A     -0.488869    29A     -0.487528    30A     -0.486159
      31A     -0.480677    32A     -0.478509    33A     -0.331182
      34A     -0.320387

    Virtual:

      35A      0.136939    36A      0.144066    37A      0.173734
      38A      0.192741    39A      0.199580    40A      0.212950
      41A      0.231023    42A      0.242336    43A      0.254694
      44A      0.264076    45A      0.270794    46A      0.274508
      47A      0.280437    48A      0.290595    49A      0.315326
      50A      0.319866    51A      0.370762    52A      0.379243
      53A      0.424432    54A      0.459074    55A      0.467804
      56A      0.479908    57A      0.504144    58A      0.563619
      59A      0.597385    60A      0.599123    61A      0.604189
      62A      0.628384    63A      0.662659    64A      0.678836
      65A      0.687168    66A      0.689177    67A      0.697681
      68A      0.705306    69A      0.726015    70A      0.740535
      71A      0.742311    72A      0.753155    73A      0.765692
      74A      0.770662    75A      0.778666    76A      0.791713
      77A      0.828269    78A      0.855395    79A      0.861901
      80A      0.873143    81A      0.883300    82A      0.889078
      83A      0.890840    84A      0.893092    85A      0.897213
      86A      0.909109    87A      0.912153    88A      0.921353
      89A      0.924780    90A      0.942404    91A      0.951599
      92A      0.970999    93A      0.985549    94A      1.014635
      95A      1.036835    96A      1.071749    97A      1.113754
      98A      1.125447    99A      1.132138   100A      1.150146
     101A      1.159959   102A      1.175855   103A      1.204885
     104A      1.230977   105A      1.237229   106A      1.244890
     107A      1.259369   108A      1.274486   109A      1.303158
     110A      1.319223   111A      1.332273   112A      1.382896
     113A      1.420923   114A      1.471826   115A      1.483360
     116A      1.516064   117A      1.533879   118A      1.565126
     119A      1.583573   120A      1.612932   121A      1.676086
     122A      1.679191   123A      1.689252   124A      1.690726
     125A      1.738991   126A      1.741149   127A      1.760313
     128A      1.789379   129A      1.823109   130A      1.852930
     131A      1.859051   132A      1.866964   133A      1.891883
     134A      1.900012   135A      1.905743   136A      1.917398
     137A      1.919854   138A      1.927641   139A      1.935579
     140A      1.942798   141A      1.950753   142A      1.956597
     143A      1.959161   144A      1.965929   145A      1.978756
     146A      1.997953   147A      2.014148   148A      2.030696
     149A      2.056619   150A      2.064255   151A      2.079230
     152A      2.090702   153A      2.117333   154A      2.128943
     155A      2.141208   156A      2.166239   157A      2.172177
     158A      2.182504   159A      2.203533   160A      2.254497
     161A      2.273631   162A      2.292235   163A      2.300573
     164A      2.304610   165A      2.322041   166A      2.340915
     167A      2.395346   168A      2.451817   169A      2.454031
     170A      2.465770   171A      2.505177   172A      2.526194
     173A      2.542626   174A      2.556372   175A      2.576992
     176A      2.642839   177A      2.741922   178A      2.752562
     179A      2.762323   180A      2.771915   181A      2.785843
     182A      2.795575   183A      2.832225   184A      2.846365
     185A      2.849575   186A      2.859547   187A      2.880620
     188A      2.945842   189A      2.959014   190A      2.993799
     191A      3.015582   192A      3.030597   193A      3.165468
     194A      3.219589   195A      3.310486   196A      3.981189

    Final Occupation by Irrep:
              A
    DOCC [    34 ]

  @RHF Final Energy:  -348.99224012812715

   => Energetics <=

    Nuclear Repulsion Energy =            399.2202217786010010
    One-Electron Energy =               -1261.1036420665732294
    Two-Electron Energy =                 512.8911801598451348
    Total Energy =                       -348.9922401281271505

Computation Completed

Properties will be evaluated at   0.000000,   0.000000,   0.000000 [a0]

Properties computed using the SCF density matrix

  Nuclear Dipole Moment: [e a0]
     X:   -12.3656      Y:     0.1176      Z:     7.3055

  Electronic Dipole Moment: [e a0]
     X:    12.2985      Y:    -0.0067      Z:    -7.2815

  Dipole Moment: [e a0]
     X:    -0.0671      Y:     0.1109      Z:     0.0239     Total:     0.1318

  Dipole Moment: [D]
     X:    -0.1706      Y:     0.2819      Z:     0.0608     Total:     0.3350

*** tstop() called on ds3 at Mon Apr 27 19:00:55 2020
Module time:
	user time   =      58.07 seconds =       0.97 minutes
	system time =      27.66 seconds =       0.46 minutes
	total time  =         82 seconds =       1.37 minutes
Total time:
	user time   =      58.07 seconds =       0.97 minutes
	system time =      27.66 seconds =       0.46 minutes
	total time  =         82 seconds =       1.37 minutes
                                     G D M A

                                 by Anthony Stone

                           version 2.2.06, 22 June 2011

               Distributed Multipoles from Gaussian wavefunctions

Starting at 19:0:55 on 27 Apr 2020

Using SCF density matrix from file ./SSI/SSI-034PHE-072LEU-1-dimer.test.1166.fchk

                         Distributed Multipole Analysis

Standard DMA

Positions and radii in angstrom
Multipole moments in atomic units, ea_0^k for rank k

C          x = -0.073800  y =  2.411496  z = -0.992720 angstrom
           Maximum rank =  0   Radius =  0.650 angstrom
                   Q00  =  -0.205779

C          x =  0.250200  y =  0.197496  z =  0.103280 angstrom
           Maximum rank =  0   Radius =  0.650 angstrom
                   Q00  =  -0.079262

C          x =  0.664200  y =  1.125496  z = -0.841720 angstrom
           Maximum rank =  0   Radius =  0.650 angstrom
                   Q00  =  -0.090450

C          x =  0.915200  y = -1.015504  z =  0.223280 angstrom
           Maximum rank =  0   Radius =  0.650 angstrom
                   Q00  =  -0.069325

C          x =  1.736200  y =  0.817496  z = -1.674720 angstrom
           Maximum rank =  0   Radius =  0.650 angstrom
                   Q00  =  -0.001510

C          x =  1.987200  y = -1.320504  z = -0.611720 angstrom
           Maximum rank =  0   Radius =  0.650 angstrom
                   Q00  =  -0.080307

C          x =  2.405200  y = -0.396504  z = -1.557720 angstrom
           Maximum rank =  0   Radius =  0.650 angstrom
                   Q00  =  -0.076218

H          x = -0.569800  y =  0.428496  z =  0.768280 angstrom
           Maximum rank =  0   Radius =  0.325 angstrom
                   Q00  =   0.059897

H          x =  0.599200  y = -1.722504  z =  0.974280 angstrom
           Maximum rank =  0   Radius =  0.325 angstrom
                   Q00  =   0.061572

H          x =  0.622200  y =  3.244496  z = -0.888720 angstrom
           Maximum rank =  0   Radius =  0.325 angstrom
                   Q00  =   0.101258

H          x = -0.799800  y =  2.503496  z = -0.182720 angstrom
           Maximum rank =  0   Radius =  0.325 angstrom
                   Q00  =   0.093561

H          x =  2.123200  y =  1.547496  z = -2.368720 angstrom
           Maximum rank =  0   Radius =  0.325 angstrom
                   Q00  =   0.054297

H          x =  2.505200  y = -2.265504  z = -0.508720 angstrom
           Maximum rank =  0   Radius =  0.325 angstrom
                   Q00  =   0.059866

H          x =  3.256200  y = -0.615504  z = -2.188720 angstrom
           Maximum rank =  0   Radius =  0.325 angstrom
                   Q00  =   0.064499

H          x = -0.620110  y =  2.477626  z = -1.945170 angstrom
           Maximum rank =  0   Radius =  0.325 angstrom
                   Q00  =   0.103913

C          x = -2.744800  y = -0.598504  z =  2.111280 angstrom
           Maximum rank =  0   Radius =  0.650 angstrom
                   Q00  =  -0.246335

C          x = -4.031800  y = -1.231504  z =  2.586280 angstrom
           Maximum rank =  0   Radius =  0.650 angstrom
                   Q00  =  -0.220684

H          x = -2.733800  y = -0.552504  z =  1.020280 angstrom
           Maximum rank =  0   Radius =  0.325 angstrom
                   Q00  =   0.078114

H          x = -2.667800  y =  0.415496  z =  2.507280 angstrom
           Maximum rank =  0   Radius =  0.325 angstrom
                   Q00  =   0.075203

H          x = -1.887800  y = -1.172504  z =  2.467280 angstrom
           Maximum rank =  0   Radius =  0.325 angstrom
                   Q00  =   0.078888

H          x = -4.024800  y = -1.218504  z =  3.674280 angstrom
           Maximum rank =  0   Radius =  0.325 angstrom
                   Q00  =   0.078210

H          x = -4.080790  y = -2.271174  z =  2.230360 angstrom
           Maximum rank =  0   Radius =  0.325 angstrom
                   Q00  =   0.079703

H          x = -4.911660  y = -0.673494  z =  2.233470 angstrom
           Maximum rank =  0   Radius =  0.325 angstrom
                   Q00  =   0.080888

Total multipoles referred to origin at
           x =   0.000000,  y =    0.000000,  z =    0.000000 angstrom
                   Q00  =  -0.000000

Finished at 19:0:55 on 27 Apr 2020

  DMA results are available in the Python driver through the
	  variable('DMA DISTRIBUTED MULTIPOLES')
  and
	  variable('DMA TOTAL MULTIPOLES')
  commands.

    Psi4 stopped on: Monday, 27 April 2020 07:00PM
    Psi4 wall time for execution: 0:01:22.51

*** Psi4 exiting successfully. Buy a developer a beer!
