                               Psi4 1.3.2 release

  ==> Input File <==

--------------------------------------------------------------------------
import numpy as np
set {scf_type pk
basis cc-pvdz
d_convergence 10
gdma_switch   0
gdma_limit    0
gdma_origin   [ 0.0,  0.0,  0.0 ]
}
molecule test {
    units Angstrom
    0 1
    --
    0 1
    C                2.047927721338497     2.754946705586653    -2.295641768105141
    C                2.310927721338497     3.185946705586653    -0.848641768105141
    H                1.054927721338497     3.056946705586653    -2.621641768105141
    H                2.108927721338496     1.669946705586654    -2.367641768105141
    H                2.792927721338497     3.194946705586653    -2.960641768105141
    H                1.568927721338497     2.743946705586654    -0.188641768105141
    H                2.261580721338497     4.282316705586654    -0.774261768105141
    H                3.299784721338497     2.823506705586654    -0.531151768105141
    C               -0.963072278661503     1.655946705586653    -0.317641768105141
    C               -2.417072278661503     1.712946705586654    -0.869641768105141
    C               -0.599072278661503     0.278946705586654     0.154358231894859
    C               -0.081072278661503    -0.648053294413346    -0.745641768105141
    C               -0.801072278661503    -0.107053294413346     1.470358231894859
    C                0.251927721338497    -1.929053294413346    -0.360641768105141
    C               -0.480072278661503    -1.410053294413346     1.863358231894859
    C                0.046927721338497    -2.324053294413346     0.940358231894859
    O                0.344927721338497    -3.596053294413347     1.304358231894859
    H               -0.294072278661503     1.932946705586654    -1.126641768105141
    H               -0.845072278661503     2.372946705586654     0.496358231894859
    H               -2.496072278661503     0.945946705586654    -1.641641768105141
    H                0.069927721338497    -0.357053294413346    -1.777641768105141
    H               -1.230072278661503     0.589946705586654     2.177358231894859
    H                0.653927721338497    -2.631053294413346    -1.075641768105141
    H               -0.653072278661503    -1.718053294413346     2.884358231894859
    H                0.111927721338497    -3.767053294413346     2.222358231894859
    H               -2.595605878661503     2.699776705586654    -1.321621768105141
    H               -3.142175378661503     1.481806705586653    -0.075411768105141

}
e, wfn = energy('scf', return_wfn=True)
gdma(wfn)
dmavals = variable('DMA DISTRIBUTED MULTIPOLES')
charges = np.array(dmavals)
print(charges)
np.save('SSI-060VAL-063TYR-1-dimer.npy', np.array(charges))--------------------------------------------------------------------------

*** tstart() called on ds3
*** at Mon Apr 27 00:46:58 2020

   => Loading Basis Set <=

    Name: CC-PVDZ
    Role: ORBITAL
    Keyword: BASIS
    atoms 1-2, 9-16  entry C          line   138 file /theoryfs2/ds/metcalf/miniconda2/envs/tf2gpu/share/psi4/basis/cc-pvdz.gbs
    atoms 3-8, 18-27 entry H          line    22 file /theoryfs2/ds/metcalf/miniconda2/envs/tf2gpu/share/psi4/basis/cc-pvdz.gbs
    atoms 17         entry O          line   198 file /theoryfs2/ds/metcalf/miniconda2/envs/tf2gpu/share/psi4/basis/cc-pvdz.gbs

         ---------------------------------------------------------
                                   SCF
               by Justin Turney, Rob Parrish, Andy Simmonett
                          and Daniel G. A. Smith
                              RHF Reference
                        1 Threads,    500 MiB Core
         ---------------------------------------------------------

  ==> Geometry <==

    Molecular point group: c1
    Full point group: C1

    Geometry (in Angstrom), charge = 0, multiplicity = 1:

       Center              X                  Y                   Z               Mass
    ------------   -----------------  -----------------  -----------------  -----------------
         C            2.047927721338     2.754946705587    -2.295641768105    12.000000000000
         C            2.310927721338     3.185946705587    -0.848641768105    12.000000000000
         H            1.054927721338     3.056946705587    -2.621641768105     1.007825032230
         H            2.108927721338     1.669946705587    -2.367641768105     1.007825032230
         H            2.792927721338     3.194946705587    -2.960641768105     1.007825032230
         H            1.568927721338     2.743946705587    -0.188641768105     1.007825032230
         H            2.261580721338     4.282316705587    -0.774261768105     1.007825032230
         H            3.299784721338     2.823506705587    -0.531151768105     1.007825032230
         C           -0.963072278662     1.655946705587    -0.317641768105    12.000000000000
         C           -2.417072278662     1.712946705587    -0.869641768105    12.000000000000
         C           -0.599072278662     0.278946705587     0.154358231895    12.000000000000
         C           -0.081072278662    -0.648053294413    -0.745641768105    12.000000000000
         C           -0.801072278662    -0.107053294413     1.470358231895    12.000000000000
         C            0.251927721338    -1.929053294413    -0.360641768105    12.000000000000
         C           -0.480072278662    -1.410053294413     1.863358231895    12.000000000000
         C            0.046927721338    -2.324053294413     0.940358231895    12.000000000000
         O            0.344927721338    -3.596053294413     1.304358231895    15.994914619570
         H           -0.294072278662     1.932946705587    -1.126641768105     1.007825032230
         H           -0.845072278662     2.372946705587     0.496358231895     1.007825032230
         H           -2.496072278662     0.945946705587    -1.641641768105     1.007825032230
         H            0.069927721338    -0.357053294413    -1.777641768105     1.007825032230
         H           -1.230072278662     0.589946705587     2.177358231895     1.007825032230
         H            0.653927721338    -2.631053294413    -1.075641768105     1.007825032230
         H           -0.653072278662    -1.718053294413     2.884358231895     1.007825032230
         H            0.111927721338    -3.767053294413     2.222358231895     1.007825032230
         H           -2.595605878662     2.699776705587    -1.321621768105     1.007825032230
         H           -3.142175378662     1.481806705587    -0.075411768105     1.007825032230

  Running in c1 symmetry.

  Rotational constants: A =      0.04729  B =      0.01707  C =      0.01466 [cm^-1]
  Rotational constants: A =   1417.64381  B =    511.86443  C =    439.40633 [MHz]
  Nuclear repulsion =  585.138640967195215

  Charge       = 0
  Multiplicity = 1
  Electrons    = 84
  Nalpha       = 42
  Nbeta        = 42

  ==> Algorithm <==

  SCF Algorithm Type is PK.
  DIIS enabled.
  MOM disabled.
  Fractional occupation disabled.
  Guess Type is SAD.
  Energy threshold   = 1.00e-06
  Density threshold  = 1.00e-10
  Integral threshold = 0.00e+00

  ==> Primary Basis <==

  Basis Set: CC-PVDZ
    Blend: CC-PVDZ
    Number of shells: 114
    Number of basis function: 234
    Number of Cartesian functions: 245
    Spherical Harmonics?: true
    Max angular momentum: 2

  ==> Pre-Iterations <==

   -------------------------------------------------------
    Irrep   Nso     Nmo     Nalpha   Nbeta   Ndocc  Nsocc
   -------------------------------------------------------
     A        234     234       0       0       0       0
   -------------------------------------------------------
    Total     234     234      42      42      42       0
   -------------------------------------------------------

  ==> Integral Setup <==

  Using integral reordering PK algorithm.
  Sizing the integral batches needed.
  Building batch lookup table.
   Calculation information:
      Number of atoms:                  27
      Number of AO shells:             114
      Number of primitives:            322
      Number of atomic orbitals:       245
      Number of basis functions:       234

      Integral cutoff                 1.00e-12
      Number of threads:                 1

	Batch   1 pq = [       0,    9405] index = [             0,44231715] size =     44231715
	Batch   2 pq = [    9405,   13301] index = [      44231715,88464951] size =     44233236
	Batch   3 pq = [   13301,   16290] index = [      88464951,132690195] size =     44225244
	Batch   4 pq = [   16290,   18810] index = [     132690195,176917455] size =     44227260
	Batch   5 pq = [   18810,   21030] index = [     176917455,221140965] size =     44223510
	Batch   6 pq = [   21030,   23037] index = [     221140965,265363203] size =     44222238
	Batch   7 pq = [   23037,   24883] index = [     265363203,309594286] size =     44231083
	Batch   8 pq = [   24883,   26601] index = [     309594286,353819901] size =     44225615
	Batch   9 pq = [   26601,   27495] index = [     353819901,378001260] size =     24181359
  Task number: 35
  Buffer size: 11059200
  Buffer per thread: 2
  We computed 20263394 shell quartets total.
  Whereas there are 21487290 unique shell quartets.

  ==> DiskJK: Disk-Based J/K Matrices <==

    J tasked:                  Yes
    K tasked:                  Yes
    wK tasked:                  No
    Memory [MiB]:              375
    Schwarz Cutoff:          1E-12

    OpenMP threads:              1

  Minimum eigenvalue in the overlap matrix is 3.1331080949E-04.
  Using Symmetric Orthogonalization.

  SCF Guess: Superposition of Atomic Densities via on-the-fly atomic UHF.

  ==> Iterations <==

                        Total Energy        Delta E     RMS |[F,P]|

   @RHF iter SAD:  -461.75953546499829   -4.61760e+02   0.00000e+00
   @RHF iter   1:  -462.60888447032613   -8.49349e-01   2.80299e-03 DIIS
   @RHF iter   2:  -462.84830380667438   -2.39419e-01   1.19259e-03 DIIS
   @RHF iter   3:  -462.88781748626491   -3.95137e-02   2.77186e-04 DIIS
   @RHF iter   4:  -462.89113430507257   -3.31682e-03   1.19596e-04 DIIS
   @RHF iter   5:  -462.89159219657790   -4.57892e-04   1.90445e-05 DIIS
   @RHF iter   6:  -462.89161170635981   -1.95098e-05   5.31927e-06 DIIS
   @RHF iter   7:  -462.89161313635861   -1.43000e-06   1.91788e-06 DIIS
   @RHF iter   8:  -462.89161333467860   -1.98320e-07   6.70353e-07 DIIS
   @RHF iter   9:  -462.89161336449189   -2.98133e-08   2.20778e-07 DIIS
   @RHF iter  10:  -462.89161336840402   -3.91213e-09   7.95705e-08 DIIS
   @RHF iter  11:  -462.89161336929880   -8.94772e-10   3.77417e-08 DIIS
   @RHF iter  12:  -462.89161336950718   -2.08388e-10   1.81980e-08 DIIS
   @RHF iter  13:  -462.89161336956522   -5.80371e-11   7.14347e-09 DIIS
   @RHF iter  14:  -462.89161336957238   -7.16227e-12   1.70520e-09 DIIS
   @RHF iter  15:  -462.89161336957409   -1.70530e-12   5.42665e-10 DIIS
   @RHF iter  16:  -462.89161336957483   -7.38964e-13   1.73756e-10 DIIS
   @RHF iter  17:  -462.89161336957500   -1.70530e-13   7.12089e-11 DIIS
  Energy and wave function converged.

  ==> Post-Iterations <==

    Orbital Energies [Eh]
    ---------------------

    Doubly Occupied:

       1A    -20.584211     2A    -11.297954     3A    -11.238822
       4A    -11.235069     5A    -11.234042     6A    -11.228018
       7A    -11.226867     8A    -11.226066     9A    -11.223308
      10A    -11.217596    11A    -11.216818    12A     -1.403395
      13A     -1.154866    14A     -1.057587    15A     -1.019013
      16A     -1.016870    17A     -0.973588    18A     -0.862774
      19A     -0.843753    20A     -0.837164    21A     -0.792855
      22A     -0.733645    23A     -0.671842    24A     -0.647129
      25A     -0.614839    26A     -0.603682    27A     -0.597357
      28A     -0.591069    29A     -0.586487    30A     -0.583887
      31A     -0.566336    32A     -0.548815    33A     -0.516417
      34A     -0.499093    35A     -0.497619    36A     -0.486426
      37A     -0.485486    38A     -0.478327    39A     -0.476113
      40A     -0.461812    41A     -0.339271    42A     -0.300869

    Virtual:

      43A      0.130436    44A      0.153831    45A      0.176234
      46A      0.180421    47A      0.199507    48A      0.205116
      49A      0.213914    50A      0.240465    51A      0.244151
      52A      0.249075    53A      0.260341    54A      0.266329
      55A      0.278174    56A      0.288033    57A      0.293077
      58A      0.314187    59A      0.316899    60A      0.337100
      61A      0.363557    62A      0.387658    63A      0.396814
      64A      0.426031    65A      0.428810    66A      0.473822
      67A      0.487346    68A      0.501352    69A      0.525924
      70A      0.590201    71A      0.595205    72A      0.605371
      73A      0.607371    74A      0.629826    75A      0.645371
      76A      0.656467    77A      0.667875    78A      0.674995
      79A      0.692795    80A      0.704955    81A      0.712418
      82A      0.727828    83A      0.735557    84A      0.743968
      85A      0.753734    86A      0.765613    87A      0.772248
      88A      0.806497    89A      0.812657    90A      0.822327
      91A      0.836558    92A      0.851163    93A      0.860847
      94A      0.870471    95A      0.876740    96A      0.878473
      97A      0.894839    98A      0.895418    99A      0.903027
     100A      0.906390   101A      0.911275   102A      0.923313
     103A      0.931074   104A      0.936341   105A      0.946679
     106A      0.952839   107A      0.964187   108A      0.973603
     109A      0.986551   110A      1.018263   111A      1.026034
     112A      1.028420   113A      1.090864   114A      1.108048
     115A      1.123082   116A      1.135148   117A      1.141769
     118A      1.145669   119A      1.169800   120A      1.175390
     121A      1.201023   122A      1.226507   123A      1.245459
     124A      1.260971   125A      1.275117   126A      1.285869
     127A      1.303575   128A      1.307589   129A      1.326059
     130A      1.356016   131A      1.361008   132A      1.384618
     133A      1.413368   134A      1.439981   135A      1.474523
     136A      1.477830   137A      1.494052   138A      1.506188
     139A      1.548653   140A      1.575069   141A      1.614007
     142A      1.627294   143A      1.634531   144A      1.669430
     145A      1.682317   146A      1.704883   147A      1.710757
     148A      1.735686   149A      1.746217   150A      1.777231
     151A      1.802669   152A      1.848467   153A      1.859320
     154A      1.867880   155A      1.871920   156A      1.875277
     157A      1.886934   158A      1.891991   159A      1.895924
     160A      1.898943   161A      1.905654   162A      1.911795
     163A      1.923454   164A      1.941829   165A      1.947460
     166A      1.949625   167A      1.952677   168A      1.956151
     169A      1.961419   170A      1.979075   171A      1.983439
     172A      2.003132   173A      2.005947   174A      2.024418
     175A      2.053169   176A      2.058776   177A      2.069678
     178A      2.072624   179A      2.088761   180A      2.099186
     181A      2.107313   182A      2.133106   183A      2.145763
     184A      2.157688   185A      2.163626   186A      2.202440
     187A      2.231053   188A      2.257672   189A      2.274059
     190A      2.292713   191A      2.313944   192A      2.319193
     193A      2.328216   194A      2.365915   195A      2.381415
     196A      2.450257   197A      2.459532   198A      2.462359
     199A      2.474719   200A      2.480209   201A      2.496540
     202A      2.499754   203A      2.532828   204A      2.555661
     205A      2.561805   206A      2.572238   207A      2.588107
     208A      2.641660   209A      2.643524   210A      2.762645
     211A      2.767688   212A      2.778732   213A      2.798435
     214A      2.803710   215A      2.815823   216A      2.852083
     217A      2.855546   218A      2.864360   219A      2.878031
     220A      2.917509   221A      2.960148   222A      2.968040
     223A      2.988617   224A      3.008410   225A      3.034163
     226A      3.103965   227A      3.186074   228A      3.254416
     229A      3.298557   230A      3.350657   231A      3.580762
     232A      3.693109   233A      3.968812   234A      4.205521

    Final Occupation by Irrep:
              A
    DOCC [    42 ]

  @RHF Final Energy:  -462.89161336957500

   => Energetics <=

    Nuclear Repulsion Energy =            585.1386409671952151
    One-Electron Energy =               -1787.7061895622055090
    Two-Electron Energy =                 739.6759352254352962
    Total Energy =                       -462.8916133695749977

Computation Completed

Properties will be evaluated at   0.000000,   0.000000,   0.000000 [a0]

Properties computed using the SCF density matrix

  Nuclear Dipole Moment: [e a0]
     X:     2.5016      Y:    18.0963      Z:    -8.1330

  Electronic Dipole Moment: [e a0]
     X:    -2.7377      Y:   -17.8922      Z:     8.5692

  Dipole Moment: [e a0]
     X:    -0.2361      Y:     0.2041      Z:     0.4362     Total:     0.5363

  Dipole Moment: [D]
     X:    -0.6000      Y:     0.5188      Z:     1.1086     Total:     1.3632

*** tstop() called on ds3 at Mon Apr 27 00:58:12 2020
Module time:
	user time   =     141.45 seconds =       2.36 minutes
	system time =      52.03 seconds =       0.87 minutes
	total time  =        674 seconds =      11.23 minutes
Total time:
	user time   =     141.45 seconds =       2.36 minutes
	system time =      52.03 seconds =       0.87 minutes
	total time  =        674 seconds =      11.23 minutes
                                     G D M A

                                 by Anthony Stone

                           version 2.2.06, 22 June 2011

               Distributed Multipoles from Gaussian wavefunctions

Starting at 0:58:12 on 27 Apr 2020

Using SCF density matrix from file ./SSI/SSI-060VAL-063TYR-1-dimer.test.10871.fchk

                         Distributed Multipole Analysis

Standard DMA

Positions and radii in angstrom
Multipole moments in atomic units, ea_0^k for rank k

C          x =  2.047928  y =  2.754947  z = -2.295642 angstrom
           Maximum rank =  0   Radius =  0.650 angstrom
                   Q00  =  -0.245990

C          x =  2.310928  y =  3.185947  z = -0.848642 angstrom
           Maximum rank =  0   Radius =  0.650 angstrom
                   Q00  =  -0.237488

H          x =  1.054928  y =  3.056947  z = -2.621642 angstrom
           Maximum rank =  0   Radius =  0.325 angstrom
                   Q00  =   0.075772

H          x =  2.108928  y =  1.669947  z = -2.367642 angstrom
           Maximum rank =  0   Radius =  0.325 angstrom
                   Q00  =   0.078600

H          x =  2.792928  y =  3.194947  z = -2.960642 angstrom
           Maximum rank =  0   Radius =  0.325 angstrom
                   Q00  =   0.082563

H          x =  1.568928  y =  2.743947  z = -0.188642 angstrom
           Maximum rank =  0   Radius =  0.325 angstrom
                   Q00  =   0.085697

H          x =  2.261581  y =  4.282317  z = -0.774262 angstrom
           Maximum rank =  0   Radius =  0.325 angstrom
                   Q00  =   0.076167

H          x =  3.299785  y =  2.823507  z = -0.531152 angstrom
           Maximum rank =  0   Radius =  0.325 angstrom
                   Q00  =   0.080991

C          x = -0.963072  y =  1.655947  z = -0.317642 angstrom
           Maximum rank =  0   Radius =  0.650 angstrom
                   Q00  =  -0.037092

C          x = -2.417072  y =  1.712947  z = -0.869642 angstrom
           Maximum rank =  0   Radius =  0.650 angstrom
                   Q00  =  -0.238728

C          x = -0.599072  y =  0.278947  z =  0.154358 angstrom
           Maximum rank =  0   Radius =  0.650 angstrom
                   Q00  =  -0.136575

C          x = -0.081072  y = -0.648053  z = -0.745642 angstrom
           Maximum rank =  0   Radius =  0.650 angstrom
                   Q00  =   0.052549

C          x = -0.801072  y = -0.107053  z =  1.470358 angstrom
           Maximum rank =  0   Radius =  0.650 angstrom
                   Q00  =  -0.055886

C          x =  0.251928  y = -1.929053  z = -0.360642 angstrom
           Maximum rank =  0   Radius =  0.650 angstrom
                   Q00  =  -0.112600

C          x = -0.480072  y = -1.410053  z =  1.863358 angstrom
           Maximum rank =  0   Radius =  0.650 angstrom
                   Q00  =  -0.193648

C          x =  0.046928  y = -2.324053  z =  0.940358 angstrom
           Maximum rank =  0   Radius =  0.650 angstrom
                   Q00  =   0.328586

O          x =  0.344928  y = -3.596053  z =  1.304358 angstrom
           Maximum rank =  0   Radius =  0.650 angstrom
                   Q00  =  -0.671744

H          x = -0.294072  y =  1.932947  z = -1.126642 angstrom
           Maximum rank =  0   Radius =  0.325 angstrom
                   Q00  =   0.069041

H          x = -0.845072  y =  2.372947  z =  0.496358 angstrom
           Maximum rank =  0   Radius =  0.325 angstrom
                   Q00  =   0.065035

H          x = -2.496072  y =  0.945947  z = -1.641642 angstrom
           Maximum rank =  0   Radius =  0.325 angstrom
                   Q00  =   0.083466

H          x =  0.069928  y = -0.357053  z = -1.777642 angstrom
           Maximum rank =  0   Radius =  0.325 angstrom
                   Q00  =   0.059387

H          x = -1.230072  y =  0.589947  z =  2.177358 angstrom
           Maximum rank =  0   Radius =  0.325 angstrom
                   Q00  =   0.069103

H          x =  0.653928  y = -2.631053  z = -1.075642 angstrom
           Maximum rank =  0   Radius =  0.325 angstrom
                   Q00  =   0.078424

H          x = -0.653072  y = -1.718053  z =  2.884358 angstrom
           Maximum rank =  0   Radius =  0.325 angstrom
                   Q00  =   0.072114

H          x =  0.111928  y = -3.767053  z =  2.222358 angstrom
           Maximum rank =  0   Radius =  0.325 angstrom
                   Q00  =   0.405504

H          x = -2.595606  y =  2.699777  z = -1.321622 angstrom
           Maximum rank =  0   Radius =  0.325 angstrom
                   Q00  =   0.081424

H          x = -3.142175  y =  1.481807  z = -0.075412 angstrom
           Maximum rank =  0   Radius =  0.325 angstrom
                   Q00  =   0.085327

Total multipoles referred to origin at
           x =   0.000000,  y =    0.000000,  z =    0.000000 angstrom
                   Q00  =  -0.000000

Finished at 0:58:12 on 27 Apr 2020

  DMA results are available in the Python driver through the
	  variable('DMA DISTRIBUTED MULTIPOLES')
  and
	  variable('DMA TOTAL MULTIPOLES')
  commands.

    Psi4 stopped on: Monday, 27 April 2020 12:58AM
    Psi4 wall time for execution: 0:11:13.87

*** Psi4 exiting successfully. Buy a developer a beer!
