                               Psi4 1.3.2 release

  ==> Input File <==

--------------------------------------------------------------------------
import numpy as np
set {scf_type pk
basis cc-pvdz
d_convergence 10
gdma_switch   0
gdma_limit    0
gdma_origin   [ 0.0,  0.0,  0.0 ]
}
molecule test {
    units Angstrom
    1 1
    --
    1 1
    C                1.490435959375470     1.777344890624793     2.479131881357696
    C                1.254435959375470     1.616344890624793     0.030131881357696
    N                1.807435959375470     1.199344890624793     1.165131881357696
    N                0.429435959375470     2.638344890624793     0.012131881357696
    N                1.567435959375470     0.998344890624793    -1.086868118642304
    H                2.422435959375470     0.398344890624793     1.132131881357696
    H                0.172435959375470     3.101344890624793     0.865131881357696
    H               -0.097564040624530     2.816344890624793    -0.847868118642304
    H                2.126435959375470     0.158344890624793    -1.072868118642304
    H                0.988435959375470     1.196344890624793    -1.885868118642304
    H                0.429435959375470     1.619344890624793     2.689131881357696
    H                1.689435959375470     2.852344890624793     2.482131881357696
    H                2.065525959375470     1.307814890624793     3.290801881357696
    C               -2.118564040624531    -0.531655109375207    -2.967868118642305
    C               -1.824564040624530    -0.102655109375207    -0.476868118642304
    C               -1.460564040624530    -0.810655109375207    -1.635868118642304
    C               -1.282564040624530    -0.404655109375207     0.764131881357696
    C               -0.510564040624530    -1.832655109375207    -1.491868118642304
    C               -0.330564040624530    -1.415655109375207     0.876131881357696
    C                0.069435959375470    -2.130655109375207    -0.256868118642304
    O                0.192435959375470    -1.683655109375207     2.099131881357696
    H               -2.564564040624530     0.683344890624793    -0.551868118642304
    H               -1.573564040624530     0.151344890624793     1.642131881357696
    H               -3.193564040624530    -0.494655109375207    -2.794868118642304
    H               -1.958564040624530    -1.389655109375207    -3.608868118642304
    H               -0.209564040624530    -2.398655109375207    -2.364868118642304
    H                0.821435959375470    -2.900655109375207    -0.181868118642304
    H                0.941435959375470    -2.291655109375207     2.070131881357696
    H               -1.854321040624530     0.379074890624793    -3.525308118642304

}
e, wfn = energy('scf', return_wfn=True)
gdma(wfn)
dmavals = variable('DMA DISTRIBUTED MULTIPOLES')
charges = np.array(dmavals)
print(charges)
np.save('SSI-154ARG-208TYR-1-dimer.npy', np.array(charges))--------------------------------------------------------------------------

*** tstart() called on ds3
*** at Mon Apr 27 13:42:13 2020

   => Loading Basis Set <=

    Name: CC-PVDZ
    Role: ORBITAL
    Keyword: BASIS
    atoms 1-2, 14-20  entry C          line   138 file /theoryfs2/ds/metcalf/miniconda2/envs/tf2gpu/share/psi4/basis/cc-pvdz.gbs
    atoms 3-5         entry N          line   168 file /theoryfs2/ds/metcalf/miniconda2/envs/tf2gpu/share/psi4/basis/cc-pvdz.gbs
    atoms 6-13, 22-29 entry H          line    22 file /theoryfs2/ds/metcalf/miniconda2/envs/tf2gpu/share/psi4/basis/cc-pvdz.gbs
    atoms 21          entry O          line   198 file /theoryfs2/ds/metcalf/miniconda2/envs/tf2gpu/share/psi4/basis/cc-pvdz.gbs

         ---------------------------------------------------------
                                   SCF
               by Justin Turney, Rob Parrish, Andy Simmonett
                          and Daniel G. A. Smith
                              RHF Reference
                        1 Threads,    500 MiB Core
         ---------------------------------------------------------

  ==> Geometry <==

    Molecular point group: c1
    Full point group: C1

    Geometry (in Angstrom), charge = 1, multiplicity = 1:

       Center              X                  Y                   Z               Mass
    ------------   -----------------  -----------------  -----------------  -----------------
         C            1.490435959375     1.777344890625     2.479131881358    12.000000000000
         C            1.254435959375     1.616344890625     0.030131881358    12.000000000000
         N            1.807435959375     1.199344890625     1.165131881358    14.003074004430
         N            0.429435959375     2.638344890625     0.012131881358    14.003074004430
         N            1.567435959375     0.998344890625    -1.086868118642    14.003074004430
         H            2.422435959375     0.398344890625     1.132131881358     1.007825032230
         H            0.172435959375     3.101344890625     0.865131881358     1.007825032230
         H           -0.097564040625     2.816344890625    -0.847868118642     1.007825032230
         H            2.126435959375     0.158344890625    -1.072868118642     1.007825032230
         H            0.988435959375     1.196344890625    -1.885868118642     1.007825032230
         H            0.429435959375     1.619344890625     2.689131881358     1.007825032230
         H            1.689435959375     2.852344890625     2.482131881358     1.007825032230
         H            2.065525959375     1.307814890625     3.290801881358     1.007825032230
         C           -2.118564040625    -0.531655109375    -2.967868118642    12.000000000000
         C           -1.824564040625    -0.102655109375    -0.476868118642    12.000000000000
         C           -1.460564040625    -0.810655109375    -1.635868118642    12.000000000000
         C           -1.282564040625    -0.404655109375     0.764131881358    12.000000000000
         C           -0.510564040625    -1.832655109375    -1.491868118642    12.000000000000
         C           -0.330564040625    -1.415655109375     0.876131881358    12.000000000000
         C            0.069435959375    -2.130655109375    -0.256868118642    12.000000000000
         O            0.192435959375    -1.683655109375     2.099131881358    15.994914619570
         H           -2.564564040625     0.683344890625    -0.551868118642     1.007825032230
         H           -1.573564040625     0.151344890625     1.642131881358     1.007825032230
         H           -3.193564040625    -0.494655109375    -2.794868118642     1.007825032230
         H           -1.958564040625    -1.389655109375    -3.608868118642     1.007825032230
         H           -0.209564040625    -2.398655109375    -2.364868118642     1.007825032230
         H            0.821435959375    -2.900655109375    -0.181868118642     1.007825032230
         H            0.941435959375    -2.291655109375     2.070131881358     1.007825032230
         H           -1.854321040625     0.379074890625    -3.525308118642     1.007825032230

  Running in c1 symmetry.

  Rotational constants: A =      0.03433  B =      0.02017  C =      0.01586 [cm^-1]
  Rotational constants: A =   1029.23391  B =    604.55844  C =    475.51457 [MHz]
  Nuclear repulsion =  832.435054472536763

  Charge       = 1
  Multiplicity = 1
  Electrons    = 98
  Nalpha       = 49
  Nbeta        = 49

  ==> Algorithm <==

  SCF Algorithm Type is PK.
  DIIS enabled.
  MOM disabled.
  Fractional occupation disabled.
  Guess Type is SAD.
  Energy threshold   = 1.00e-06
  Density threshold  = 1.00e-10
  Integral threshold = 0.00e+00

  ==> Primary Basis <==

  Basis Set: CC-PVDZ
    Blend: CC-PVDZ
    Number of shells: 126
    Number of basis function: 262
    Number of Cartesian functions: 275
    Spherical Harmonics?: true
    Max angular momentum: 2

  ==> Pre-Iterations <==

   -------------------------------------------------------
    Irrep   Nso     Nmo     Nalpha   Nbeta   Ndocc  Nsocc
   -------------------------------------------------------
     A        262     262       0       0       0       0
   -------------------------------------------------------
    Total     262     262      49      49      49       0
   -------------------------------------------------------

  ==> Integral Setup <==

  Using integral reordering PK algorithm.
  Sizing the integral batches needed.
  Building batch lookup table.
   Calculation information:
      Number of atoms:                  29
      Number of AO shells:             126
      Number of primitives:            366
      Number of atomic orbitals:       275
      Number of basis functions:       262

      Integral cutoff                 1.00e-12
      Number of threads:                 1

	Batch   1 pq = [       0,    9405] index = [             0,44231715] size =     44231715
	Batch   2 pq = [    9405,   13301] index = [      44231715,88464951] size =     44233236
	Batch   3 pq = [   13301,   16290] index = [      88464951,132690195] size =     44225244
	Batch   4 pq = [   16290,   18810] index = [     132690195,176917455] size =     44227260
	Batch   5 pq = [   18810,   21030] index = [     176917455,221140965] size =     44223510
	Batch   6 pq = [   21030,   23037] index = [     221140965,265363203] size =     44222238
	Batch   7 pq = [   23037,   24883] index = [     265363203,309594286] size =     44231083
	Batch   8 pq = [   24883,   26601] index = [     309594286,353819901] size =     44225615
	Batch   9 pq = [   26601,   28214] index = [     353819901,398029005] size =     44209104
	Batch  10 pq = [   28214,   29740] index = [     398029005,442248670] size =     44219665
	Batch  11 pq = [   29740,   31191] index = [     442248670,486454836] size =     44206166
	Batch  12 pq = [   31191,   32578] index = [     486454836,530679331] size =     44224495
	Batch  13 pq = [   32578,   33908] index = [     530679331,574893186] size =     44213855
	Batch  14 pq = [   33908,   34453] index = [     574893186,593521831] size =     18628645
  Task number: 54
  Buffer size: 11059200
  Buffer per thread: 2
  We computed 38425435 shell quartets total.
  Whereas there are 32012001 unique shell quartets.
    20.03 percent of shell quartets recomputed by reordering.

  ==> DiskJK: Disk-Based J/K Matrices <==

    J tasked:                  Yes
    K tasked:                  Yes
    wK tasked:                  No
    Memory [MiB]:              375
    Schwarz Cutoff:          1E-12

    OpenMP threads:              1

  Minimum eigenvalue in the overlap matrix is 3.1938712906E-04.
  Using Symmetric Orthogonalization.

  SCF Guess: Superposition of Atomic Densities via on-the-fly atomic UHF.

  ==> Iterations <==

                        Total Energy        Delta E     RMS |[F,P]|

   @RHF iter SAD:  -587.43937309872035   -5.87439e+02   0.00000e+00
   @RHF iter   1:  -587.91920324446323   -4.79830e-01   2.63431e-03 DIIS
   @RHF iter   2:  -588.17114087122491   -2.51938e-01   1.04551e-03 DIIS
   @RHF iter   3:  -588.20672292668701   -3.55821e-02   2.66086e-04 DIIS
   @RHF iter   4:  -588.21023809817029   -3.51517e-03   9.42985e-05 DIIS
   @RHF iter   5:  -588.21059613970021   -3.58042e-04   2.16131e-05 DIIS
   @RHF iter   6:  -588.21062574340237   -2.96037e-05   7.30625e-06 DIIS
   @RHF iter   7:  -588.21062894749093   -3.20409e-06   2.23444e-06 DIIS
   @RHF iter   8:  -588.21062940988270   -4.62392e-07   7.99173e-07 DIIS
   @RHF iter   9:  -588.21062947118025   -6.12976e-08   3.55425e-07 DIIS
   @RHF iter  10:  -588.21062948714132   -1.59611e-08   1.64205e-07 DIIS
   @RHF iter  11:  -588.21062949292218   -5.78086e-09   6.37741e-08 DIIS
   @RHF iter  12:  -588.21062949368411   -7.61929e-10   2.68440e-08 DIIS
   @RHF iter  13:  -588.21062949376528   -8.11724e-11   8.56123e-09 DIIS
   @RHF iter  14:  -588.21062949377460   -9.32232e-12   2.54670e-09 DIIS
   @RHF iter  15:  -588.21062949378074   -6.13909e-12   8.41156e-10 DIIS
   @RHF iter  16:  -588.21062949377972    1.02318e-12   3.59954e-10 DIIS
   @RHF iter  17:  -588.21062949377688    2.84217e-12   1.68636e-10 DIIS
   @RHF iter  18:  -588.21062949377358    3.29692e-12   8.10308e-11 DIIS
  Energy and wave function converged.

  ==> Post-Iterations <==

    Orbital Energies [Eh]
    ---------------------

    Doubly Occupied:

       1A    -20.704322     2A    -15.779765     3A    -15.771623
       4A    -15.770357     5A    -11.574068     6A    -11.430749
       7A    -11.422194     8A    -11.359485     9A    -11.358752
      10A    -11.354573    11A    -11.353044    12A    -11.351056
      13A    -11.333571    14A     -1.534175    15A     -1.522025
      16A     -1.387720    17A     -1.380955    18A     -1.268293
      19A     -1.152198    20A     -1.137682    21A     -1.126067
      22A     -1.040283    23A     -1.025921    24A     -0.966582
      25A     -0.962066    26A     -0.924410    27A     -0.922188
      28A     -0.852467    29A     -0.849189    30A     -0.846109
      31A     -0.813218    32A     -0.785075    33A     -0.778242
      34A     -0.760868    35A     -0.730753    36A     -0.723131
      37A     -0.711783    38A     -0.706551    39A     -0.704401
      40A     -0.684232    41A     -0.675609    42A     -0.634959
      43A     -0.616826    44A     -0.608592    45A     -0.599168
      46A     -0.585272    47A     -0.569790    48A     -0.460583
      49A     -0.421022

    Virtual:

      50A     -0.011162    51A      0.010123    52A      0.025543
      53A      0.029434    54A      0.040844    55A      0.043540
      56A      0.067491    57A      0.080178    58A      0.090270
      59A      0.094420    60A      0.103357    61A      0.121766
      62A      0.132625    63A      0.136866    64A      0.146630
      65A      0.158412    66A      0.176440    67A      0.195688
      68A      0.201960    69A      0.214315    70A      0.253217
      71A      0.261357    72A      0.286957    73A      0.313119
      74A      0.342292    75A      0.346978    76A      0.350734
      77A      0.361433    78A      0.381164    79A      0.393955
      80A      0.436863    81A      0.467720    82A      0.491768
      83A      0.502304    84A      0.504623    85A      0.513532
      86A      0.516008    87A      0.530083    88A      0.542492
      89A      0.548028    90A      0.556349    91A      0.571063
      92A      0.582140    93A      0.598453    94A      0.619180
      95A      0.623207    96A      0.643076    97A      0.653915
      98A      0.659938    99A      0.671619   100A      0.679261
     101A      0.698514   102A      0.703518   103A      0.709293
     104A      0.719207   105A      0.721203   106A      0.737664
     107A      0.749320   108A      0.757702   109A      0.764999
     110A      0.776418   111A      0.779094   112A      0.779607
     113A      0.787051   114A      0.802595   115A      0.814871
     116A      0.817271   117A      0.833397   118A      0.850890
     119A      0.860111   120A      0.877814   121A      0.886145
     122A      0.899881   123A      0.904041   124A      0.917885
     125A      0.934838   126A      0.951769   127A      0.966253
     128A      0.978082   129A      1.002098   130A      1.010286
     131A      1.023607   132A      1.036118   133A      1.046930
     134A      1.066560   135A      1.090584   136A      1.108088
     137A      1.121372   138A      1.130941   139A      1.149679
     140A      1.155678   141A      1.173166   142A      1.176118
     143A      1.182635   144A      1.188803   145A      1.191836
     146A      1.211376   147A      1.218002   148A      1.236500
     149A      1.247864   150A      1.269621   151A      1.295744
     152A      1.317727   153A      1.372555   154A      1.379053
     155A      1.406625   156A      1.411351   157A      1.433637
     158A      1.494485   159A      1.513711   160A      1.519323
     161A      1.533811   162A      1.559272   163A      1.571401
     164A      1.595178   165A      1.596423   166A      1.605239
     167A      1.609892   168A      1.626667   169A      1.637943
     170A      1.664023   171A      1.676923   172A      1.699623
     173A      1.707428   174A      1.708597   175A      1.744743
     176A      1.752466   177A      1.756565   178A      1.776912
     179A      1.784448   180A      1.792943   181A      1.798092
     182A      1.804009   183A      1.810569   184A      1.819322
     185A      1.831015   186A      1.835985   187A      1.837548
     188A      1.847190   189A      1.865307   190A      1.880501
     191A      1.882270   192A      1.897638   193A      1.906749
     194A      1.913213   195A      1.944179   196A      1.948998
     197A      1.962497   198A      1.965178   199A      2.021566
     200A      2.025556   201A      2.029015   202A      2.048779
     203A      2.061481   204A      2.084650   205A      2.100422
     206A      2.107288   207A      2.118441   208A      2.144516
     209A      2.149409   210A      2.153660   211A      2.189248
     212A      2.202836   213A      2.218818   214A      2.238747
     215A      2.260261   216A      2.284723   217A      2.295619
     218A      2.305373   219A      2.339602   220A      2.347002
     221A      2.365151   222A      2.377425   223A      2.410895
     224A      2.416127   225A      2.423444   226A      2.436603
     227A      2.469983   228A      2.483203   229A      2.514151
     230A      2.534292   231A      2.554159   232A      2.608557
     233A      2.624286   234A      2.641299   235A      2.663066
     236A      2.664127   237A      2.682874   238A      2.691493
     239A      2.713498   240A      2.761955   241A      2.772499
     242A      2.788062   243A      2.808822   244A      2.841152
     245A      2.861223   246A      2.884284   247A      2.900893
     248A      2.917980   249A      2.968392   250A      3.001367
     251A      3.092714   252A      3.111277   253A      3.130837
     254A      3.146255   255A      3.160744   256A      3.237312
     257A      3.453613   258A      3.551440   259A      3.583477
     260A      3.642937   261A      3.843491   262A      4.072793

    Final Occupation by Irrep:
              A
    DOCC [    49 ]

  @RHF Final Energy:  -588.21062949377358

   => Energetics <=

    Nuclear Repulsion Energy =            832.4350544725367627
    One-Electron Energy =               -2437.2274375551965022
    Two-Electron Energy =                1016.5817535888862722
    Total Energy =                       -588.2106294937735811

Computation Completed

Properties will be evaluated at   0.000000,   0.000000,   0.000000 [a0]

Properties computed using the SCF density matrix

  Nuclear Dipole Moment: [e a0]
     X:     0.1823      Y:     4.8421      Z:    -2.4863

  Electronic Dipole Moment: [e a0]
     X:     1.8538      Y:    -2.7378      Z:     2.4514

  Dipole Moment: [e a0]
     X:     2.0362      Y:     2.1043      Z:    -0.0349     Total:     2.9284

  Dipole Moment: [D]
     X:     5.1754      Y:     5.3487      Z:    -0.0888     Total:     7.4432

*** tstop() called on ds3 at Mon Apr 27 13:51:06 2020
Module time:
	user time   =     317.40 seconds =       5.29 minutes
	system time =     101.27 seconds =       1.69 minutes
	total time  =        533 seconds =       8.88 minutes
Total time:
	user time   =     317.40 seconds =       5.29 minutes
	system time =     101.27 seconds =       1.69 minutes
	total time  =        533 seconds =       8.88 minutes
                                     G D M A

                                 by Anthony Stone

                           version 2.2.06, 22 June 2011

               Distributed Multipoles from Gaussian wavefunctions

Starting at 13:51:6 on 27 Apr 2020

Using SCF density matrix from file ./SSI/SSI-154ARG-208TYR-1-dimer.test.7550.fchk

                         Distributed Multipole Analysis

Standard DMA

Positions and radii in angstrom
Multipole moments in atomic units, ea_0^k for rank k

C          x =  1.490436  y =  1.777345  z =  2.479132 angstrom
           Maximum rank =  0   Radius =  0.650 angstrom
                   Q00  =  -0.123150

C          x =  1.254436  y =  1.616345  z =  0.030132 angstrom
           Maximum rank =  0   Radius =  0.650 angstrom
                   Q00  =   1.069705

N          x =  1.807436  y =  1.199345  z =  1.165132 angstrom
           Maximum rank =  0   Radius =  0.650 angstrom
                   Q00  =  -0.480499

N          x =  0.429436  y =  2.638345  z =  0.012132 angstrom
           Maximum rank =  0   Radius =  0.650 angstrom
                   Q00  =  -0.571212

N          x =  1.567436  y =  0.998345  z = -1.086868 angstrom
           Maximum rank =  0   Radius =  0.650 angstrom
                   Q00  =  -0.560590

H          x =  2.422436  y =  0.398345  z =  1.132132 angstrom
           Maximum rank =  0   Radius =  0.325 angstrom
                   Q00  =   0.231248

H          x =  0.172436  y =  3.101345  z =  0.865132 angstrom
           Maximum rank =  0   Radius =  0.325 angstrom
                   Q00  =   0.271447

H          x = -0.097564  y =  2.816345  z = -0.847868 angstrom
           Maximum rank =  0   Radius =  0.325 angstrom
                   Q00  =   0.266634

H          x =  2.126436  y =  0.158345  z = -1.072868 angstrom
           Maximum rank =  0   Radius =  0.325 angstrom
                   Q00  =   0.266772

H          x =  0.988436  y =  1.196345  z = -1.885868 angstrom
           Maximum rank =  0   Radius =  0.325 angstrom
                   Q00  =   0.253594

H          x =  0.429436  y =  1.619345  z =  2.689132 angstrom
           Maximum rank =  0   Radius =  0.325 angstrom
                   Q00  =   0.111787

H          x =  1.689436  y =  2.852345  z =  2.482132 angstrom
           Maximum rank =  0   Radius =  0.325 angstrom
                   Q00  =   0.108542

H          x =  2.065526  y =  1.307815  z =  3.290802 angstrom
           Maximum rank =  0   Radius =  0.325 angstrom
                   Q00  =   0.166578

C          x = -2.118564  y = -0.531655  z = -2.967868 angstrom
           Maximum rank =  0   Radius =  0.650 angstrom
                   Q00  =  -0.202504

C          x = -1.824564  y = -0.102655  z = -0.476868 angstrom
           Maximum rank =  0   Radius =  0.650 angstrom
                   Q00  =   0.007872

C          x = -1.460564  y = -0.810655  z = -1.635868 angstrom
           Maximum rank =  0   Radius =  0.650 angstrom
                   Q00  =  -0.161372

C          x = -1.282564  y = -0.404655  z =  0.764132 angstrom
           Maximum rank =  0   Radius =  0.650 angstrom
                   Q00  =  -0.134965

C          x = -0.510564  y = -1.832655  z = -1.491868 angstrom
           Maximum rank =  0   Radius =  0.650 angstrom
                   Q00  =  -0.022836

C          x = -0.330564  y = -1.415655  z =  0.876132 angstrom
           Maximum rank =  0   Radius =  0.650 angstrom
                   Q00  =   0.311636

C          x =  0.069436  y = -2.130655  z = -0.256868 angstrom
           Maximum rank =  0   Radius =  0.650 angstrom
                   Q00  =  -0.213439

O          x =  0.192436  y = -1.683655  z =  2.099132 angstrom
           Maximum rank =  0   Radius =  0.650 angstrom
                   Q00  =  -0.668744

H          x = -2.564564  y =  0.683345  z = -0.551868 angstrom
           Maximum rank =  0   Radius =  0.325 angstrom
                   Q00  =   0.070951

H          x = -1.573564  y =  0.151345  z =  1.642132 angstrom
           Maximum rank =  0   Radius =  0.325 angstrom
                   Q00  =   0.084264

H          x = -3.193564  y = -0.494655  z = -2.794868 angstrom
           Maximum rank =  0   Radius =  0.325 angstrom
                   Q00  =   0.117318

H          x = -1.958564  y = -1.389655  z = -3.608868 angstrom
           Maximum rank =  0   Radius =  0.325 angstrom
                   Q00  =   0.117855

H          x = -0.209564  y = -2.398655  z = -2.364868 angstrom
           Maximum rank =  0   Radius =  0.325 angstrom
                   Q00  =   0.087570

H          x =  0.821436  y = -2.900655  z = -0.181868 angstrom
           Maximum rank =  0   Radius =  0.325 angstrom
                   Q00  =   0.087848

H          x =  0.941436  y = -2.291655  z =  2.070132 angstrom
           Maximum rank =  0   Radius =  0.325 angstrom
                   Q00  =   0.416712

H          x = -1.854321  y =  0.379075  z = -3.525308 angstrom
           Maximum rank =  0   Radius =  0.325 angstrom
                   Q00  =   0.090973

Total multipoles referred to origin at
           x =   0.000000,  y =    0.000000,  z =    0.000000 angstrom
                   Q00  =   1.000000

Finished at 13:51:6 on 27 Apr 2020

  DMA results are available in the Python driver through the
	  variable('DMA DISTRIBUTED MULTIPOLES')
  and
	  variable('DMA TOTAL MULTIPOLES')
  commands.

    Psi4 stopped on: Monday, 27 April 2020 01:51PM
    Psi4 wall time for execution: 0:08:52.77

*** Psi4 exiting successfully. Buy a developer a beer!
