                               Psi4 1.3.2 release

  ==> Input File <==

--------------------------------------------------------------------------
import numpy as np
set {scf_type pk
basis cc-pvdz
d_convergence 10
gdma_switch   0
gdma_limit    0
gdma_origin   [ 0.0,  0.0,  0.0 ]
}
molecule test {
    units Angstrom
    0 1
    --
    0 1
    C                0.675895127846745    -1.443594758181473    -0.193718952850054
    C                0.749895127846745    -2.783594758181474    -0.943718952850054
    C               -0.492104872153255    -0.603594758181473    -0.703718952850054
    O               -1.620104872153255    -0.706594758181473    -0.195718952850054
    N               -0.248104872153255     0.218405241818527    -1.695718952850054
    H                0.542895127846745    -1.618594758181473     0.874281047149946
    H                1.599895127846745    -0.881594758181473    -0.334718952850054
    H                0.842895127846745    -2.567594758181473    -2.010718952850054
    H               -1.013104872153255     0.765405241818527    -2.062718952850053
    H                0.670895127846745     0.277405241818527    -2.107718952850054
    H               -0.143384872153255    -3.395225758181474    -0.748898952850054
    H                1.651175127846745    -3.345174758181473    -0.656788952850054
    C                0.851895127846745     2.004405241818526     1.522281047149946
    C                0.082895127846745     3.127405241818527     2.209281047149946
    H                1.896895127846745     2.038405241818527     1.825281047149946
    H                0.428895127846745     1.043405241818526     1.817281047149946
    H                0.775895127846745     2.085405241818527     0.437281047149946
    H               -0.939104872153255     3.116405241818527     1.828281047149946
    H                0.540955127846745     4.105274241818527     1.999631047149946
    H                0.057075127846745     2.971784241818527     3.297911047149947

}
e, wfn = energy('scf', return_wfn=True)
gdma(wfn)
dmavals = variable('DMA DISTRIBUTED MULTIPOLES')
charges = np.array(dmavals)
print(charges)
np.save('SSI-053ASN-131VAL-1-dimer.npy', np.array(charges))--------------------------------------------------------------------------

*** tstart() called on ds3
*** at Mon Apr 27 07:29:58 2020

   => Loading Basis Set <=

    Name: CC-PVDZ
    Role: ORBITAL
    Keyword: BASIS
    atoms 1-3, 13-14  entry C          line   138 file /theoryfs2/ds/metcalf/miniconda2/envs/tf2gpu/share/psi4/basis/cc-pvdz.gbs
    atoms 4           entry O          line   198 file /theoryfs2/ds/metcalf/miniconda2/envs/tf2gpu/share/psi4/basis/cc-pvdz.gbs
    atoms 5           entry N          line   168 file /theoryfs2/ds/metcalf/miniconda2/envs/tf2gpu/share/psi4/basis/cc-pvdz.gbs
    atoms 6-12, 15-20 entry H          line    22 file /theoryfs2/ds/metcalf/miniconda2/envs/tf2gpu/share/psi4/basis/cc-pvdz.gbs

         ---------------------------------------------------------
                                   SCF
               by Justin Turney, Rob Parrish, Andy Simmonett
                          and Daniel G. A. Smith
                              RHF Reference
                        1 Threads,    500 MiB Core
         ---------------------------------------------------------

  ==> Geometry <==

    Molecular point group: c1
    Full point group: C1

    Geometry (in Angstrom), charge = 0, multiplicity = 1:

       Center              X                  Y                   Z               Mass
    ------------   -----------------  -----------------  -----------------  -----------------
         C            0.675895127847    -1.443594758181    -0.193718952850    12.000000000000
         C            0.749895127847    -2.783594758181    -0.943718952850    12.000000000000
         C           -0.492104872153    -0.603594758181    -0.703718952850    12.000000000000
         O           -1.620104872153    -0.706594758181    -0.195718952850    15.994914619570
         N           -0.248104872153     0.218405241819    -1.695718952850    14.003074004430
         H            0.542895127847    -1.618594758181     0.874281047150     1.007825032230
         H            1.599895127847    -0.881594758181    -0.334718952850     1.007825032230
         H            0.842895127847    -2.567594758181    -2.010718952850     1.007825032230
         H           -1.013104872153     0.765405241819    -2.062718952850     1.007825032230
         H            0.670895127847     0.277405241819    -2.107718952850     1.007825032230
         H           -0.143384872153    -3.395225758181    -0.748898952850     1.007825032230
         H            1.651175127847    -3.345174758181    -0.656788952850     1.007825032230
         C            0.851895127847     2.004405241819     1.522281047150    12.000000000000
         C            0.082895127847     3.127405241819     2.209281047150    12.000000000000
         H            1.896895127847     2.038405241819     1.825281047150     1.007825032230
         H            0.428895127847     1.043405241819     1.817281047150     1.007825032230
         H            0.775895127847     2.085405241819     0.437281047150     1.007825032230
         H           -0.939104872153     3.116405241819     1.828281047150     1.007825032230
         H            0.540955127847     4.105274241819     1.999631047150     1.007825032230
         H            0.057075127847     2.971784241819     3.297911047150     1.007825032230

  Running in c1 symmetry.

  Rotational constants: A =      0.11743  B =      0.03080  C =      0.02861 [cm^-1]
  Rotational constants: A =   3520.48837  B =    923.30007  C =    857.63647 [MHz]
  Nuclear repulsion =  303.908996463420181

  Charge       = 0
  Multiplicity = 1
  Electrons    = 58
  Nalpha       = 29
  Nbeta        = 29

  ==> Algorithm <==

  SCF Algorithm Type is PK.
  DIIS enabled.
  MOM disabled.
  Fractional occupation disabled.
  Guess Type is SAD.
  Energy threshold   = 1.00e-06
  Density threshold  = 1.00e-10
  Integral threshold = 0.00e+00

  ==> Primary Basis <==

  Basis Set: CC-PVDZ
    Blend: CC-PVDZ
    Number of shells: 81
    Number of basis function: 163
    Number of Cartesian functions: 170
    Spherical Harmonics?: true
    Max angular momentum: 2

  ==> Pre-Iterations <==

   -------------------------------------------------------
    Irrep   Nso     Nmo     Nalpha   Nbeta   Ndocc  Nsocc
   -------------------------------------------------------
     A        163     163       0       0       0       0
   -------------------------------------------------------
    Total     163     163      29      29      29       0
   -------------------------------------------------------

  ==> Integral Setup <==

  Using integral reordering PK algorithm.
  Sizing the integral batches needed.
  Building batch lookup table.
   Calculation information:
      Number of atoms:                  20
      Number of AO shells:              81
      Number of primitives:            219
      Number of atomic orbitals:       170
      Number of basis functions:       163

      Integral cutoff                 1.00e-12
      Number of threads:                 1

	Batch   1 pq = [       0,    9405] index = [             0,44231715] size =     44231715
	Batch   2 pq = [    9405,   13366] index = [      44231715,89331661] size =     45099946
  Task number: 9
  Buffer size: 11059200
  Buffer per thread: 2
  We computed 4797190 shell quartets total.
  Whereas there are 5516181 unique shell quartets.

  ==> DiskJK: Disk-Based J/K Matrices <==

    J tasked:                  Yes
    K tasked:                  Yes
    wK tasked:                  No
    Memory [MiB]:              375
    Schwarz Cutoff:          1E-12

    OpenMP threads:              1

  Minimum eigenvalue in the overlap matrix is 4.0216159220E-03.
  Using Symmetric Orthogonalization.

  SCF Guess: Superposition of Atomic Densities via on-the-fly atomic UHF.

  ==> Iterations <==

                        Total Energy        Delta E     RMS |[F,P]|

   @RHF iter SAD:  -324.90883617669226   -3.24909e+02   0.00000e+00
   @RHF iter   1:  -326.00630606765310   -1.09747e+00   4.11948e-03 DIIS
   @RHF iter   2:  -326.20203446742437   -1.95728e-01   2.29925e-03 DIIS
   @RHF iter   3:  -326.25725397650820   -5.52195e-02   4.95057e-04 DIIS
   @RHF iter   4:  -326.26107460468995   -3.82063e-03   2.03471e-04 DIIS
   @RHF iter   5:  -326.26175208420125   -6.77480e-04   2.91490e-05 DIIS
   @RHF iter   6:  -326.26178306379541   -3.09796e-05   1.15565e-05 DIIS
   @RHF iter   7:  -326.26178712974217   -4.06595e-06   4.88378e-06 DIIS
   @RHF iter   8:  -326.26178800382337   -8.74081e-07   1.93298e-06 DIIS
   @RHF iter   9:  -326.26178814928767   -1.45464e-07   4.58345e-07 DIIS
   @RHF iter  10:  -326.26178815630641   -7.01874e-09   1.42488e-07 DIIS
   @RHF iter  11:  -326.26178815689440   -5.87988e-10   3.92783e-08 DIIS
   @RHF iter  12:  -326.26178815694243   -4.80327e-11   1.04457e-08 DIIS
   @RHF iter  13:  -326.26178815694561   -3.18323e-12   2.30063e-09 DIIS
   @RHF iter  14:  -326.26178815694664   -1.02318e-12   9.19419e-10 DIIS
   @RHF iter  15:  -326.26178815694675   -1.13687e-13   4.31759e-10 DIIS
   @RHF iter  16:  -326.26178815694783   -1.08002e-12   1.59575e-10 DIIS
   @RHF iter  17:  -326.26178815694544    2.38742e-12   5.73689e-11 DIIS
  Energy and wave function converged.

  ==> Post-Iterations <==

    Orbital Energies [Eh]
    ---------------------

    Doubly Occupied:

       1A    -20.499312     2A    -15.592402     3A    -11.342978
       4A    -11.241702     5A    -11.237800     6A    -11.215912
       7A    -11.214469     8A     -1.359871     9A     -1.220676
      10A     -1.049834    11A     -1.016523    12A     -0.889590
      13A     -0.834009    14A     -0.795569    15A     -0.730403
      16A     -0.661145    17A     -0.612123    18A     -0.599266
      19A     -0.593677    20A     -0.591646    21A     -0.567310
      22A     -0.525110    23A     -0.506439    24A     -0.503005
      25A     -0.499100    26A     -0.482729    27A     -0.481233
      28A     -0.402693    29A     -0.400080

    Virtual:

      30A      0.153820    31A      0.188828    32A      0.194243
      33A      0.214556    34A      0.222953    35A      0.225528
      36A      0.248388    37A      0.260800    38A      0.264964
      39A      0.274522    40A      0.278224    41A      0.283000
      42A      0.294616    43A      0.323361    44A      0.368631
      45A      0.398045    46A      0.413675    47A      0.471017
      48A      0.542513    49A      0.590843    50A      0.597509
      51A      0.600749    52A      0.618148    53A      0.627146
      54A      0.663528    55A      0.675778    56A      0.681329
      57A      0.700193    58A      0.730349    59A      0.765342
      60A      0.824041    61A      0.842119    62A      0.858767
      63A      0.862673    64A      0.882817    65A      0.888443
      66A      0.893883    67A      0.896146    68A      0.901525
      69A      0.903266    70A      0.911205    71A      0.924743
      72A      0.929126    73A      0.941762    74A      0.945494
      75A      0.960583    76A      0.998406    77A      1.041942
      78A      1.055382    79A      1.078690    80A      1.114160
      81A      1.119558    82A      1.132808    83A      1.147774
      84A      1.238996    85A      1.318003    86A      1.333225
      87A      1.369499    88A      1.380065    89A      1.417996
      90A      1.438070    91A      1.447205    92A      1.474152
      93A      1.479941    94A      1.487235    95A      1.489678
      96A      1.582903    97A      1.655869    98A      1.673874
      99A      1.682994   100A      1.693725   101A      1.757292
     102A      1.806801   103A      1.837128   104A      1.862394
     105A      1.866268   106A      1.869185   107A      1.879086
     108A      1.891717   109A      1.910868   110A      1.922882
     111A      1.928364   112A      1.934089   113A      1.946205
     114A      1.952652   115A      1.958867   116A      1.964800
     117A      1.972260   118A      1.979968   119A      1.982400
     120A      2.017800   121A      2.049241   122A      2.066798
     123A      2.095144   124A      2.103816   125A      2.124276
     126A      2.128053   127A      2.218822   128A      2.283557
     129A      2.305041   130A      2.317347   131A      2.340246
     132A      2.404120   133A      2.442084   134A      2.463484
     135A      2.468806   136A      2.496442   137A      2.531801
     138A      2.558527   139A      2.564122   140A      2.572138
     141A      2.580775   142A      2.591780   143A      2.622039
     144A      2.742104   145A      2.753354   146A      2.765813
     147A      2.798268   148A      2.809771   149A      2.855187
     150A      2.858763   151A      2.860067   152A      2.883374
     153A      2.948125   154A      2.969226   155A      2.980025
     156A      3.035308   157A      3.093883   158A      3.140193
     159A      3.296591   160A      3.508164   161A      3.527077
     162A      3.860338   163A      3.903173

    Final Occupation by Irrep:
              A
    DOCC [    29 ]

  @RHF Final Energy:  -326.26178815694544

   => Energetics <=

    Nuclear Repulsion Energy =            303.9089964634201806
    One-Electron Energy =               -1045.0083586767641464
    Two-Electron Energy =                 414.8375740563985232
    Total Energy =                       -326.2617881569454426

Computation Completed

Properties will be evaluated at   0.000000,   0.000000,   0.000000 [a0]

Properties computed using the SCF density matrix

  Nuclear Dipole Moment: [e a0]
     X:     6.4726      Y:     4.3039      Z:     3.9023

  Electronic Dipole Moment: [e a0]
     X:    -5.1088      Y:    -4.0488      Z:    -4.8446

  Dipole Moment: [e a0]
     X:     1.3638      Y:     0.2551      Z:    -0.9423     Total:     1.6772

  Dipole Moment: [D]
     X:     3.4665      Y:     0.6485      Z:    -2.3950     Total:     4.2630

*** tstop() called on ds3 at Mon Apr 27 07:30:51 2020
Module time:
	user time   =      30.88 seconds =       0.51 minutes
	system time =      13.78 seconds =       0.23 minutes
	total time  =         53 seconds =       0.88 minutes
Total time:
	user time   =      30.88 seconds =       0.51 minutes
	system time =      13.78 seconds =       0.23 minutes
	total time  =         53 seconds =       0.88 minutes
                                     G D M A

                                 by Anthony Stone

                           version 2.2.06, 22 June 2011

               Distributed Multipoles from Gaussian wavefunctions

Starting at 7:30:51 on 27 Apr 2020

Using SCF density matrix from file ./SSI/SSI-053ASN-131VAL-1-dimer.test.20714.fchk

                         Distributed Multipole Analysis

Standard DMA

Positions and radii in angstrom
Multipole moments in atomic units, ea_0^k for rank k

C          x =  0.675895  y = -1.443595  z = -0.193719 angstrom
           Maximum rank =  0   Radius =  0.650 angstrom
                   Q00  =  -0.109621

C          x =  0.749895  y = -2.783595  z = -0.943719 angstrom
           Maximum rank =  0   Radius =  0.650 angstrom
                   Q00  =  -0.216992

C          x = -0.492105  y = -0.603595  z = -0.703719 angstrom
           Maximum rank =  0   Radius =  0.650 angstrom
                   Q00  =   0.805663

O          x = -1.620105  y = -0.706595  z = -0.195719 angstrom
           Maximum rank =  0   Radius =  0.650 angstrom
                   Q00  =  -0.813529

N          x = -0.248105  y =  0.218405  z = -1.695719 angstrom
           Maximum rank =  0   Radius =  0.650 angstrom
                   Q00  =  -0.514590

H          x =  0.542895  y = -1.618595  z =  0.874281 angstrom
           Maximum rank =  0   Radius =  0.325 angstrom
                   Q00  =   0.105875

H          x =  1.599895  y = -0.881595  z = -0.334719 angstrom
           Maximum rank =  0   Radius =  0.325 angstrom
                   Q00  =   0.049407

H          x =  0.842895  y = -2.567595  z = -2.010719 angstrom
           Maximum rank =  0   Radius =  0.325 angstrom
                   Q00  =   0.071742

H          x = -1.013105  y =  0.765405  z = -2.062719 angstrom
           Maximum rank =  0   Radius =  0.325 angstrom
                   Q00  =   0.221515

H          x =  0.670895  y =  0.277405  z = -2.107719 angstrom
           Maximum rank =  0   Radius =  0.325 angstrom
                   Q00  =   0.207879

H          x = -0.143385  y = -3.395226  z = -0.748899 angstrom
           Maximum rank =  0   Radius =  0.325 angstrom
                   Q00  =   0.105094

H          x =  1.651175  y = -3.345175  z = -0.656789 angstrom
           Maximum rank =  0   Radius =  0.325 angstrom
                   Q00  =   0.091255

C          x =  0.851895  y =  2.004405  z =  1.522281 angstrom
           Maximum rank =  0   Radius =  0.650 angstrom
                   Q00  =  -0.248325

C          x =  0.082895  y =  3.127405  z =  2.209281 angstrom
           Maximum rank =  0   Radius =  0.650 angstrom
                   Q00  =  -0.220644

H          x =  1.896895  y =  2.038405  z =  1.825281 angstrom
           Maximum rank =  0   Radius =  0.325 angstrom
                   Q00  =   0.072016

H          x =  0.428895  y =  1.043405  z =  1.817281 angstrom
           Maximum rank =  0   Radius =  0.325 angstrom
                   Q00  =   0.085729

H          x =  0.775895  y =  2.085405  z =  0.437281 angstrom
           Maximum rank =  0   Radius =  0.325 angstrom
                   Q00  =   0.069548

H          x = -0.939105  y =  3.116405  z =  1.828281 angstrom
           Maximum rank =  0   Radius =  0.325 angstrom
                   Q00  =   0.084001

H          x =  0.540955  y =  4.105274  z =  1.999631 angstrom
           Maximum rank =  0   Radius =  0.325 angstrom
                   Q00  =   0.073857

H          x =  0.057075  y =  2.971784  z =  3.297911 angstrom
           Maximum rank =  0   Radius =  0.325 angstrom
                   Q00  =   0.080121

Total multipoles referred to origin at
           x =   0.000000,  y =    0.000000,  z =    0.000000 angstrom
                   Q00  =  -0.000000

Finished at 7:30:51 on 27 Apr 2020

  DMA results are available in the Python driver through the
	  variable('DMA DISTRIBUTED MULTIPOLES')
  and
	  variable('DMA TOTAL MULTIPOLES')
  commands.

    Psi4 stopped on: Monday, 27 April 2020 07:30AM
    Psi4 wall time for execution: 0:00:53.89

*** Psi4 exiting successfully. Buy a developer a beer!
