                               Psi4 1.3.2 release

  ==> Input File <==

--------------------------------------------------------------------------
import numpy as np
set {scf_type pk
basis cc-pvdz
d_convergence 10
gdma_switch   0
gdma_limit    0
gdma_origin   [ 0.0,  0.0,  0.0 ]
}
molecule test {
    units Angstrom
    0 1
    --
    0 1
    C                2.118636195502481    -0.123838083779244     0.055782200007812
    C                2.308636195502481     0.596161916220756    -1.292217799992188
    H                1.802636195502481    -1.153838083779244    -0.116217799992188
    H                3.064636195502481    -0.134838083779244     0.593782200007811
    H                1.373636195502481     0.396161916220756     0.653782200007812
    H                3.152636195502481     0.131161916220756    -1.799217799992189
    H                1.409646195502481     0.565433916220756    -1.925367799992189
    H                2.527496195502481     1.657940916220756    -1.105867799992188
    C               -1.585363804497519     0.176161916220756     0.757782200007812
    C               -2.847363804497519    -0.655838083779244     0.478782200007812
    H               -0.711363804497519    -0.475838083779244     0.750782200007811
    H               -1.455363804497519     0.946161916220756    -0.001217799992188
    H               -1.649363804497519     0.682161916220756     1.720782200007811
    H               -3.725363804497519    -0.034838083779244     0.660782200007812
    H               -2.885503804497519    -1.530799083779244     1.144352200007811
    H               -2.838773804497519    -0.961328083779244    -0.577907799992189

}
e, wfn = energy('scf', return_wfn=True)
gdma(wfn)
dmavals = variable('DMA DISTRIBUTED MULTIPOLES')
charges = np.array(dmavals)
print(charges)
np.save('SSI-062LEU-075ILE-1-dimer.npy', np.array(charges))--------------------------------------------------------------------------

*** tstart() called on ds3
*** at Sun Apr 26 18:12:27 2020

   => Loading Basis Set <=

    Name: CC-PVDZ
    Role: ORBITAL
    Keyword: BASIS
    atoms 1-2, 9-10  entry C          line   138 file /theoryfs2/ds/metcalf/miniconda2/envs/tf2gpu/share/psi4/basis/cc-pvdz.gbs
    atoms 3-8, 11-16 entry H          line    22 file /theoryfs2/ds/metcalf/miniconda2/envs/tf2gpu/share/psi4/basis/cc-pvdz.gbs

         ---------------------------------------------------------
                                   SCF
               by Justin Turney, Rob Parrish, Andy Simmonett
                          and Daniel G. A. Smith
                              RHF Reference
                        1 Threads,    500 MiB Core
         ---------------------------------------------------------

  ==> Geometry <==

    Molecular point group: c1
    Full point group: C1

    Geometry (in Angstrom), charge = 0, multiplicity = 1:

       Center              X                  Y                   Z               Mass
    ------------   -----------------  -----------------  -----------------  -----------------
         C            2.118636195502    -0.123838083779     0.055782200008    12.000000000000
         C            2.308636195502     0.596161916221    -1.292217799992    12.000000000000
         H            1.802636195502    -1.153838083779    -0.116217799992     1.007825032230
         H            3.064636195502    -0.134838083779     0.593782200008     1.007825032230
         H            1.373636195502     0.396161916221     0.653782200008     1.007825032230
         H            3.152636195502     0.131161916221    -1.799217799992     1.007825032230
         H            1.409646195502     0.565433916221    -1.925367799992     1.007825032230
         H            2.527496195502     1.657940916221    -1.105867799992     1.007825032230
         C           -1.585363804498     0.176161916221     0.757782200008    12.000000000000
         C           -2.847363804498    -0.655838083779     0.478782200008    12.000000000000
         H           -0.711363804498    -0.475838083779     0.750782200008     1.007825032230
         H           -1.455363804498     0.946161916221    -0.001217799992     1.007825032230
         H           -1.649363804498     0.682161916221     1.720782200008     1.007825032230
         H           -3.725363804498    -0.034838083779     0.660782200008     1.007825032230
         H           -2.885503804498    -1.530799083779     1.144352200008     1.007825032230
         H           -2.838773804498    -0.961328083779    -0.577907799992     1.007825032230

  Running in c1 symmetry.

  Rotational constants: A =      0.47666  B =      0.04744  C =      0.04611 [cm^-1]
  Rotational constants: A =  14289.86126  B =   1422.26392  C =   1382.26539 [MHz]
  Nuclear repulsion =  121.572793535606138

  Charge       = 0
  Multiplicity = 1
  Electrons    = 36
  Nalpha       = 18
  Nbeta        = 18

  ==> Algorithm <==

  SCF Algorithm Type is PK.
  DIIS enabled.
  MOM disabled.
  Fractional occupation disabled.
  Guess Type is SAD.
  Energy threshold   = 1.00e-06
  Density threshold  = 1.00e-10
  Integral threshold = 0.00e+00

  ==> Primary Basis <==

  Basis Set: CC-PVDZ
    Blend: CC-PVDZ
    Number of shells: 60
    Number of basis function: 116
    Number of Cartesian functions: 120
    Spherical Harmonics?: true
    Max angular momentum: 2

  ==> Pre-Iterations <==

   -------------------------------------------------------
    Irrep   Nso     Nmo     Nalpha   Nbeta   Ndocc  Nsocc
   -------------------------------------------------------
     A        116     116       0       0       0       0
   -------------------------------------------------------
    Total     116     116      18      18      18       0
   -------------------------------------------------------

  ==> Integral Setup <==

  Using integral reordering PK algorithm.
  Sizing the integral batches needed.
  Building batch lookup table.
   Calculation information:
      Number of atoms:                  16
      Number of AO shells:              60
      Number of primitives:            148
      Number of atomic orbitals:       120
      Number of basis functions:       116

      Integral cutoff                 1.00e-12
      Number of threads:                 1

	Batch   1 pq = [       0,    6786] index = [             0,23028291] size =     23028291
  Task number: 3
  Buffer size: 11059200
  Buffer per thread: 2
  We computed 1426275 shell quartets total.
  Whereas there are 1675365 unique shell quartets.

  ==> DiskJK: Disk-Based J/K Matrices <==

    J tasked:                  Yes
    K tasked:                  Yes
    wK tasked:                  No
    Memory [MiB]:              375
    Schwarz Cutoff:          1E-12

    OpenMP threads:              1

  Minimum eigenvalue in the overlap matrix is 6.9807419938E-03.
  Using Symmetric Orthogonalization.

  SCF Guess: Superposition of Atomic Densities via on-the-fly atomic UHF.

  ==> Iterations <==

                        Total Energy        Delta E     RMS |[F,P]|

   @RHF iter SAD:  -157.32222247084815   -1.57322e+02   0.00000e+00
   @RHF iter   1:  -158.30869593721357   -9.86473e-01   4.17966e-03 DIIS
   @RHF iter   2:  -158.44057680691833   -1.31881e-01   1.77288e-03 DIIS
   @RHF iter   3:  -158.46345567993225   -2.28789e-02   3.48394e-04 DIIS
   @RHF iter   4:  -158.46527966495049   -1.82399e-03   3.90881e-05 DIIS
   @RHF iter   5:  -158.46530395160997   -2.42867e-05   6.67637e-06 DIIS
   @RHF iter   6:  -158.46530461673569   -6.65126e-07   1.15408e-06 DIIS
   @RHF iter   7:  -158.46530463017581   -1.34401e-08   3.31242e-07 DIIS
   @RHF iter   8:  -158.46530463119561   -1.01980e-09   4.46451e-08 DIIS
   @RHF iter   9:  -158.46530463122963   -3.40208e-11   8.84102e-09 DIIS
   @RHF iter  10:  -158.46530463123133   -1.70530e-12   2.15299e-09 DIIS
   @RHF iter  11:  -158.46530463123116    1.70530e-13   5.31037e-10 DIIS
   @RHF iter  12:  -158.46530463123116    0.00000e+00   1.61064e-10 DIIS
   @RHF iter  13:  -158.46530463123145   -2.84217e-13   2.62759e-11 DIIS
  Energy and wave function converged.

  ==> Post-Iterations <==

    Orbital Energies [Eh]
    ---------------------

    Doubly Occupied:

       1A    -11.220180     2A    -11.219596     3A    -11.216683
       4A    -11.216205     5A     -1.016942     6A     -1.014413
       7A     -0.839889     8A     -0.834854     9A     -0.603836
      10A     -0.596586    11A     -0.596205    12A     -0.591596
      13A     -0.500738    14A     -0.498544    15A     -0.492699
      16A     -0.486159    17A     -0.484233    18A     -0.477194

    Virtual:

      19A      0.172061    20A      0.197120    21A      0.227656
      22A      0.232254    23A      0.243572    24A      0.260467
      25A      0.261579    26A      0.272020    27A      0.286841
      28A      0.289449    29A      0.308281    30A      0.321263
      31A      0.387266    32A      0.415191    33A      0.572157
      34A      0.594496    35A      0.602963    36A      0.605091
      37A      0.614989    38A      0.644082    39A      0.669870
      40A      0.681481    41A      0.696086    42A      0.792501
      43A      0.834625    44A      0.860936    45A      0.883919
      46A      0.889976    47A      0.893332    48A      0.894996
      49A      0.898175    50A      0.905145    51A      0.913222
      52A      0.918796    53A      0.925148    54A      0.960641
      55A      0.986444    56A      0.993381    57A      1.118479
      58A      1.124092    59A      1.126661    60A      1.162451
      61A      1.230748    62A      1.259304    63A      1.460017
      64A      1.475007    65A      1.482025    66A      1.488352
      67A      1.559207    68A      1.583455    69A      1.678130
      70A      1.681987    71A      1.692682    72A      1.699624
      73A      1.856319    74A      1.861787    75A      1.869848
      76A      1.881449    77A      1.887784    78A      1.906693
      79A      1.931157    80A      1.938319    81A      1.941833
      82A      1.944951    83A      1.947876    84A      1.950010
      85A      1.954176    86A      1.967468    87A      1.999187
      88A      2.009266    89A      2.094761    90A      2.110655
      91A      2.121906    92A      2.137814    93A      2.294858
      94A      2.295729    95A      2.309045    96A      2.322532
      97A      2.438431    98A      2.447644    99A      2.455878
     100A      2.475664   101A      2.559645   102A      2.564946
     103A      2.573528   104A      2.586888   105A      2.761075
     106A      2.764673   107A      2.783664   108A      2.795718
     109A      2.836481   110A      2.842714   111A      2.851315
     112A      2.859577   113A      2.938280   114A      2.942918
     115A      2.966504   116A      2.981783

    Final Occupation by Irrep:
              A
    DOCC [    18 ]

  @RHF Final Energy:  -158.46530463123145

   => Energetics <=

    Nuclear Repulsion Energy =            121.5727935356061380
    One-Electron Energy =                -452.2630963499949530
    Two-Electron Energy =                 172.2249981831573677
    Total Energy =                       -158.4653046312314473

Computation Completed

Properties will be evaluated at   0.000000,   0.000000,   0.000000 [a0]

Properties computed using the SCF density matrix

  Nuclear Dipole Moment: [e a0]
     X:     0.0609      Y:     0.0821      Z:    -0.0014

  Electronic Dipole Moment: [e a0]
     X:    -0.0495      Y:    -0.0732      Z:     0.0137

  Dipole Moment: [e a0]
     X:     0.0114      Y:     0.0088      Z:     0.0123     Total:     0.0189

  Dipole Moment: [D]
     X:     0.0289      Y:     0.0225      Z:     0.0312     Total:     0.0481

*** tstop() called on ds3 at Sun Apr 26 18:12:37 2020
Module time:
	user time   =       7.54 seconds =       0.13 minutes
	system time =       3.07 seconds =       0.05 minutes
	total time  =         10 seconds =       0.17 minutes
Total time:
	user time   =       7.54 seconds =       0.13 minutes
	system time =       3.07 seconds =       0.05 minutes
	total time  =         10 seconds =       0.17 minutes
                                     G D M A

                                 by Anthony Stone

                           version 2.2.06, 22 June 2011

               Distributed Multipoles from Gaussian wavefunctions

Starting at 18:12:37 on 26 Apr 2020

Using SCF density matrix from file ./SSI/SSI-062LEU-075ILE-1-dimer.test.6350.fchk

                         Distributed Multipole Analysis

Standard DMA

Positions and radii in angstrom
Multipole moments in atomic units, ea_0^k for rank k

C          x =  2.118636  y = -0.123838  z =  0.055782 angstrom
           Maximum rank =  0   Radius =  0.650 angstrom
                   Q00  =  -0.242125

C          x =  2.308636  y =  0.596162  z = -1.292218 angstrom
           Maximum rank =  0   Radius =  0.650 angstrom
                   Q00  =  -0.237618

H          x =  1.802636  y = -1.153838  z = -0.116218 angstrom
           Maximum rank =  0   Radius =  0.325 angstrom
                   Q00  =   0.077760

H          x =  3.064636  y = -0.134838  z =  0.593782 angstrom
           Maximum rank =  0   Radius =  0.325 angstrom
                   Q00  =   0.079797

H          x =  1.373636  y =  0.396162  z =  0.653782 angstrom
           Maximum rank =  0   Radius =  0.325 angstrom
                   Q00  =   0.084767

H          x =  3.152636  y =  0.131162  z = -1.799218 angstrom
           Maximum rank =  0   Radius =  0.325 angstrom
                   Q00  =   0.079529

H          x =  1.409646  y =  0.565434  z = -1.925368 angstrom
           Maximum rank =  0   Radius =  0.325 angstrom
                   Q00  =   0.080923

H          x =  2.527496  y =  1.657941  z = -1.105868 angstrom
           Maximum rank =  0   Radius =  0.325 angstrom
                   Q00  =   0.076473

C          x = -1.585364  y =  0.176162  z =  0.757782 angstrom
           Maximum rank =  0   Radius =  0.650 angstrom
                   Q00  =  -0.252919

C          x = -2.847364  y = -0.655838  z =  0.478782 angstrom
           Maximum rank =  0   Radius =  0.650 angstrom
                   Q00  =  -0.227198

H          x = -0.711364  y = -0.475838  z =  0.750782 angstrom
           Maximum rank =  0   Radius =  0.325 angstrom
                   Q00  =   0.083350

H          x = -1.455364  y =  0.946162  z = -0.001218 angstrom
           Maximum rank =  0   Radius =  0.325 angstrom
                   Q00  =   0.078234

H          x = -1.649364  y =  0.682162  z =  1.720782 angstrom
           Maximum rank =  0   Radius =  0.325 angstrom
                   Q00  =   0.078939

H          x = -3.725364  y = -0.034838  z =  0.660782 angstrom
           Maximum rank =  0   Radius =  0.325 angstrom
                   Q00  =   0.079369

H          x = -2.885504  y = -1.530799  z =  1.144352 angstrom
           Maximum rank =  0   Radius =  0.325 angstrom
                   Q00  =   0.081288

H          x = -2.838774  y = -0.961328  z = -0.577908 angstrom
           Maximum rank =  0   Radius =  0.325 angstrom
                   Q00  =   0.079431

Total multipoles referred to origin at
           x =   0.000000,  y =    0.000000,  z =    0.000000 angstrom
                   Q00  =  -0.000000

Finished at 18:12:37 on 26 Apr 2020

  DMA results are available in the Python driver through the
	  variable('DMA DISTRIBUTED MULTIPOLES')
  and
	  variable('DMA TOTAL MULTIPOLES')
  commands.

    Psi4 stopped on: Sunday, 26 April 2020 06:12PM
    Psi4 wall time for execution: 0:00:10.36

*** Psi4 exiting successfully. Buy a developer a beer!
