                               Psi4 1.3.2 release

  ==> Input File <==

--------------------------------------------------------------------------
import numpy as np
set {scf_type pk
basis cc-pvdz
d_convergence 10
gdma_switch   0
gdma_limit    0
gdma_origin   [ 0.0,  0.0,  0.0 ]
}
molecule test {
    units Angstrom
    0 1
    --
    0 1
    C                1.100812177485841    -0.650324794419634    -3.007481802992365
    N                0.336812177485841     0.436675205580366    -2.287481802992364
    H                0.360812177485841     0.323675205580366    -1.271481802992365
    H                0.746812177485841     1.343675205580366    -2.476481802992364
    H               -0.630187822514159     0.476675205580366    -2.583481802992365
    H                2.119812177485842    -0.724324794419633    -2.615481802992365
    H                1.140812177485841    -0.465324794419634    -4.086481802992365
    H                0.544092177485841    -1.577944794419634    -2.808497802992365
    C               -1.830187822514159    -0.216324794419634     1.421518197007636
    C               -0.294187822514159     0.061675205580366     1.435518197007635
    O                0.204812177485841     0.610675205580366     0.421518197007635
    O                0.415812177485841    -0.299324794419634     2.426518197007635
    H               -2.099187822514159    -0.732324794419633     0.499518197007635
    H               -2.351187822514159     0.742675205580366     1.435518197007635
    H               -2.173927822514159    -0.810764794419633     2.280867197007635

}
e, wfn = energy('scf', return_wfn=True)
gdma(wfn)
dmavals = variable('DMA DISTRIBUTED MULTIPOLES')
charges = np.array(dmavals)
print(charges)
np.save('SSI-015LYS-220ASP-1-dimer.npy', np.array(charges))--------------------------------------------------------------------------

*** tstart() called on ds3
*** at Tue Apr 28 09:14:13 2020

   => Loading Basis Set <=

    Name: CC-PVDZ
    Role: ORBITAL
    Keyword: BASIS
    atoms 1, 9-10    entry C          line   138 file /theoryfs2/ds/metcalf/miniconda2/envs/tf2gpu/share/psi4/basis/cc-pvdz.gbs
    atoms 2          entry N          line   168 file /theoryfs2/ds/metcalf/miniconda2/envs/tf2gpu/share/psi4/basis/cc-pvdz.gbs
    atoms 3-8, 13-15 entry H          line    22 file /theoryfs2/ds/metcalf/miniconda2/envs/tf2gpu/share/psi4/basis/cc-pvdz.gbs
    atoms 11-12      entry O          line   198 file /theoryfs2/ds/metcalf/miniconda2/envs/tf2gpu/share/psi4/basis/cc-pvdz.gbs

         ---------------------------------------------------------
                                   SCF
               by Justin Turney, Rob Parrish, Andy Simmonett
                          and Daniel G. A. Smith
                              RHF Reference
                        1 Threads,    500 MiB Core
         ---------------------------------------------------------

  ==> Geometry <==

    Molecular point group: c1
    Full point group: C1

    Geometry (in Angstrom), charge = 0, multiplicity = 1:

       Center              X                  Y                   Z               Mass
    ------------   -----------------  -----------------  -----------------  -----------------
         C            1.100812177486    -0.650324794420    -3.007481802992    12.000000000000
         N            0.336812177486     0.436675205580    -2.287481802992    14.003074004430
         H            0.360812177486     0.323675205580    -1.271481802992     1.007825032230
         H            0.746812177486     1.343675205580    -2.476481802992     1.007825032230
         H           -0.630187822514     0.476675205580    -2.583481802992     1.007825032230
         H            2.119812177486    -0.724324794420    -2.615481802992     1.007825032230
         H            1.140812177486    -0.465324794420    -4.086481802992     1.007825032230
         H            0.544092177486    -1.577944794420    -2.808497802992     1.007825032230
         C           -1.830187822514    -0.216324794420     1.421518197008    12.000000000000
         C           -0.294187822514     0.061675205580     1.435518197008    12.000000000000
         O            0.204812177486     0.610675205580     0.421518197008    15.994914619570
         O            0.415812177486    -0.299324794420     2.426518197008    15.994914619570
         H           -2.099187822514    -0.732324794420     0.499518197008     1.007825032230
         H           -2.351187822514     0.742675205580     1.435518197008     1.007825032230
         H           -2.173927822514    -0.810764794420     2.280867197008     1.007825032230

  Running in c1 symmetry.

  Rotational constants: A =      0.21059  B =      0.03920  C =      0.03629 [cm^-1]
  Rotational constants: A =   6313.21959  B =   1175.15500  C =   1087.93206 [MHz]
  Nuclear repulsion =  233.916570879434431

  Charge       = 0
  Multiplicity = 1
  Electrons    = 50
  Nalpha       = 25
  Nbeta        = 25

  ==> Algorithm <==

  SCF Algorithm Type is PK.
  DIIS enabled.
  MOM disabled.
  Fractional occupation disabled.
  Guess Type is SAD.
  Energy threshold   = 1.00e-06
  Density threshold  = 1.00e-10
  Integral threshold = 0.00e+00

  ==> Primary Basis <==

  Basis Set: CC-PVDZ
    Blend: CC-PVDZ
    Number of shells: 63
    Number of basis function: 129
    Number of Cartesian functions: 135
    Spherical Harmonics?: true
    Max angular momentum: 2

  ==> Pre-Iterations <==

   -------------------------------------------------------
    Irrep   Nso     Nmo     Nalpha   Nbeta   Ndocc  Nsocc
   -------------------------------------------------------
     A        129     129       0       0       0       0
   -------------------------------------------------------
    Total     129     129      25      25      25       0
   -------------------------------------------------------

  ==> Integral Setup <==

  Using integral reordering PK algorithm.
  Sizing the integral batches needed.
  Building batch lookup table.
   Calculation information:
      Number of atoms:                  15
      Number of AO shells:              63
      Number of primitives:            177
      Number of atomic orbitals:       135
      Number of basis functions:       129

      Integral cutoff                 1.00e-12
      Number of threads:                 1

	Batch   1 pq = [       0,    8385] index = [             0,35158305] size =     35158305
  Task number: 4
  Buffer size: 11059200
  Buffer per thread: 2
  We computed 1694851 shell quartets total.
  Whereas there are 2033136 unique shell quartets.

  ==> DiskJK: Disk-Based J/K Matrices <==

    J tasked:                  Yes
    K tasked:                  Yes
    wK tasked:                  No
    Memory [MiB]:              375
    Schwarz Cutoff:          1E-12

    OpenMP threads:              1

  Minimum eigenvalue in the overlap matrix is 6.1564196807E-03.
  Using Symmetric Orthogonalization.

  SCF Guess: Superposition of Atomic Densities via on-the-fly atomic UHF.

  ==> Iterations <==

                        Total Energy        Delta E     RMS |[F,P]|

   @RHF iter SAD:  -321.58191441371372   -3.21582e+02   0.00000e+00
   @RHF iter   1:  -322.76979022929646   -1.18788e+00   5.25075e-03 DIIS
   @RHF iter   2:  -322.93650884871005   -1.66719e-01   3.06495e-03 DIIS
   @RHF iter   3:  -322.99175210328673   -5.52433e-02   5.17572e-04 DIIS
   @RHF iter   4:  -322.99455386816487   -2.80176e-03   1.95382e-04 DIIS
   @RHF iter   5:  -322.99494237771114   -3.88510e-04   4.66807e-05 DIIS
   @RHF iter   6:  -322.99496720714222   -2.48294e-05   2.14365e-05 DIIS
   @RHF iter   7:  -322.99497257962497   -5.37248e-06   5.29947e-06 DIIS
   @RHF iter   8:  -322.99497339738951   -8.17765e-07   2.28021e-06 DIIS
   @RHF iter   9:  -322.99497354592717   -1.48538e-07   6.54102e-07 DIIS
   @RHF iter  10:  -322.99497355601460   -1.00874e-08   2.06493e-07 DIIS
   @RHF iter  11:  -322.99497355676738   -7.52777e-10   4.74026e-08 DIIS
   @RHF iter  12:  -322.99497355681024   -4.28599e-11   1.40985e-08 DIIS
   @RHF iter  13:  -322.99497355681382   -3.58114e-12   4.53306e-09 DIIS
   @RHF iter  14:  -322.99497355681467   -8.52651e-13   1.49658e-09 DIIS
   @RHF iter  15:  -322.99497355681450    1.70530e-13   5.50640e-10 DIIS
   @RHF iter  16:  -322.99497355681444    5.68434e-14   2.49869e-10 DIIS
   @RHF iter  17:  -322.99497355681393    5.11591e-13   8.99885e-11 DIIS
  Energy and wave function converged.

  ==> Post-Iterations <==

    Orbital Energies [Eh]
    ---------------------

    Doubly Occupied:

       1A    -20.429948     2A    -20.402365     3A    -15.734847
       4A    -11.361147     5A    -11.271899     6A    -11.182572
       7A     -1.357058     8A     -1.297358     9A     -1.179636
      10A     -1.026422    11A     -0.921959    12A     -0.820568
      13A     -0.811819    14A     -0.710581    15A     -0.651471
      16A     -0.635908    17A     -0.629420    18A     -0.549560
      19A     -0.541022    20A     -0.537825    21A     -0.482366
      22A     -0.451398    23A     -0.342268    24A     -0.314602
      25A     -0.312434

    Virtual:

      26A      0.091406    27A      0.148478    28A      0.155858
      29A      0.188721    30A      0.205671    31A      0.236286
      32A      0.257711    33A      0.269171    34A      0.304903
      35A      0.334498    36A      0.353597    37A      0.437355
      38A      0.505666    39A      0.512953    40A      0.560028
      41A      0.564669    42A      0.602899    43A      0.652744
      44A      0.691082    45A      0.696937    46A      0.744045
      47A      0.777630    48A      0.785211    49A      0.795367
      50A      0.812821    51A      0.821156    52A      0.826909
      53A      0.885956    54A      0.903231    55A      0.910644
      56A      0.918986    57A      0.936812    58A      0.948189
      59A      0.971497    60A      1.007581    61A      1.057058
      62A      1.063575    63A      1.095046    64A      1.198089
      65A      1.208665    66A      1.226997    67A      1.305451
      68A      1.382602    69A      1.414287    70A      1.432196
      71A      1.433229    72A      1.457843    73A      1.498464
      74A      1.526260    75A      1.578087    76A      1.579709
      77A      1.618226    78A      1.671481    79A      1.703808
      80A      1.720150    81A      1.753357    82A      1.798875
      83A      1.801154    84A      1.843902    85A      1.880497
      86A      1.888899    87A      1.927948    88A      1.948712
      89A      1.963360    90A      1.973780    91A      2.037011
      92A      2.072073    93A      2.077685    94A      2.093466
      95A      2.108333    96A      2.111400    97A      2.140760
      98A      2.238884    99A      2.274075   100A      2.290973
     101A      2.319916   102A      2.384524   103A      2.420733
     104A      2.427034   105A      2.511650   106A      2.548880
     107A      2.573470   108A      2.605322   109A      2.626081
     110A      2.646942   111A      2.674380   112A      2.791240
     113A      2.834695   114A      2.838530   115A      2.843169
     116A      2.868028   117A      2.933065   118A      3.110495
     119A      3.122228   120A      3.139416   121A      3.195497
     122A      3.238930   123A      3.267738   124A      3.522705
     125A      3.598831   126A      3.668916   127A      3.889590
     128A      3.949642   129A      4.016202

    Final Occupation by Irrep:
              A
    DOCC [    25 ]

  @RHF Final Energy:  -322.99497355681393

   => Energetics <=

    Nuclear Repulsion Energy =            233.9165708794344312
    One-Electron Energy =                -905.9101835359215329
    Two-Electron Energy =                 348.9986390996731984
    Total Energy =                       -322.9949735568139317

Computation Completed

Properties will be evaluated at   0.000000,   0.000000,   0.000000 [a0]

Properties computed using the SCF density matrix

  Nuclear Dipole Moment: [e a0]
     X:    -2.1937      Y:    -1.3347      Z:   -10.8787

  Electronic Dipole Moment: [e a0]
     X:     1.9663      Y:     1.4853      Z:     4.9357

  Dipole Moment: [e a0]
     X:    -0.2274      Y:     0.1506      Z:    -5.9429     Total:     5.9492

  Dipole Moment: [D]
     X:    -0.5780      Y:     0.3829      Z:   -15.1055     Total:    15.1214

*** tstop() called on ds3 at Tue Apr 28 09:14:37 2020
Module time:
	user time   =      16.31 seconds =       0.27 minutes
	system time =       7.80 seconds =       0.13 minutes
	total time  =         24 seconds =       0.40 minutes
Total time:
	user time   =      16.31 seconds =       0.27 minutes
	system time =       7.80 seconds =       0.13 minutes
	total time  =         24 seconds =       0.40 minutes
                                     G D M A

                                 by Anthony Stone

                           version 2.2.06, 22 June 2011

               Distributed Multipoles from Gaussian wavefunctions

Starting at 9:14:37 on 28 Apr 2020

Using SCF density matrix from file ./SSI/SSI-015LYS-220ASP-1-dimer.test.9775.fchk

                         Distributed Multipole Analysis

Standard DMA

Positions and radii in angstrom
Multipole moments in atomic units, ea_0^k for rank k

C          x =  1.100812  y = -0.650325  z = -3.007482 angstrom
           Maximum rank =  0   Radius =  0.650 angstrom
                   Q00  =  -0.137183

N          x =  0.336812  y =  0.436675  z = -2.287482 angstrom
           Maximum rank =  0   Radius =  0.650 angstrom
                   Q00  =  -0.138689

H          x =  0.360812  y =  0.323675  z = -1.271482 angstrom
           Maximum rank =  0   Radius =  0.325 angstrom
                   Q00  =   0.354400

H          x =  0.746812  y =  1.343675  z = -2.476482 angstrom
           Maximum rank =  0   Radius =  0.325 angstrom
                   Q00  =   0.226615

H          x = -0.630188  y =  0.476675  z = -2.583482 angstrom
           Maximum rank =  0   Radius =  0.325 angstrom
                   Q00  =   0.230158

H          x =  2.119812  y = -0.724325  z = -2.615482 angstrom
           Maximum rank =  0   Radius =  0.325 angstrom
                   Q00  =   0.160258

H          x =  1.140812  y = -0.465325  z = -4.086482 angstrom
           Maximum rank =  0   Radius =  0.325 angstrom
                   Q00  =   0.130123

H          x =  0.544092  y = -1.577945  z = -2.808498 angstrom
           Maximum rank =  0   Radius =  0.325 angstrom
                   Q00  =   0.146726

C          x = -1.830188  y = -0.216325  z =  1.421518 angstrom
           Maximum rank =  0   Radius =  0.650 angstrom
                   Q00  =  -0.275614

C          x = -0.294188  y =  0.061675  z =  1.435518 angstrom
           Maximum rank =  0   Radius =  0.650 angstrom
                   Q00  =   0.896348

O          x =  0.204812  y =  0.610675  z =  0.421518 angstrom
           Maximum rank =  0   Radius =  0.650 angstrom
                   Q00  =  -0.976224

O          x =  0.415812  y = -0.299325  z =  2.426518 angstrom
           Maximum rank =  0   Radius =  0.650 angstrom
                   Q00  =  -0.856154

H          x = -2.099188  y = -0.732325  z =  0.499518 angstrom
           Maximum rank =  0   Radius =  0.325 angstrom
                   Q00  =   0.052092

H          x = -2.351188  y =  0.742675  z =  1.435518 angstrom
           Maximum rank =  0   Radius =  0.325 angstrom
                   Q00  =   0.090722

H          x = -2.173928  y = -0.810765  z =  2.280867 angstrom
           Maximum rank =  0   Radius =  0.325 angstrom
                   Q00  =   0.096423

Total multipoles referred to origin at
           x =   0.000000,  y =    0.000000,  z =    0.000000 angstrom
                   Q00  =  -0.000000

Finished at 9:14:37 on 28 Apr 2020

  DMA results are available in the Python driver through the
	  variable('DMA DISTRIBUTED MULTIPOLES')
  and
	  variable('DMA TOTAL MULTIPOLES')
  commands.

    Psi4 stopped on: Tuesday, 28 April 2020 09:14AM
    Psi4 wall time for execution: 0:00:23.88

*** Psi4 exiting successfully. Buy a developer a beer!
