                               Psi4 1.3.2 release

  ==> Input File <==

--------------------------------------------------------------------------
import numpy as np
set {scf_type pk
basis cc-pvdz
d_convergence 10
gdma_switch   0
gdma_limit    0
gdma_origin   [ 0.0,  0.0,  0.0 ]
}
molecule test {
    units Angstrom
    0 1
    --
    0 1
    C               -3.509855660771297    -1.659361099766939    -2.674806840978491
    C               -0.634855660771297    -2.380361099766938    -0.445806840978491
    C               -1.160855660771297    -1.820361099766938    -1.634806840978491
    C               -2.560855660771297    -2.090361099766939    -1.649806840978491
    C               -2.839855660771297    -2.785361099766939    -0.528806840978491
    C                0.716144339228703    -2.288361099766938    -0.122806840978491
    C                1.548144339228703    -1.601361099766939    -0.989806840978491
    C                1.060144339228703    -1.043361099766938    -2.173806840978491
    C               -0.292855660771297    -1.145361099766939    -2.498806840978491
    N               -1.684855660771297    -2.972361099766939     0.205193159021509
    H                1.098144339228703    -2.726361099766939     0.788193159021509
    H                2.596144339228703    -1.504361099766939    -0.762806840978491
    H               -1.641855660771297    -3.465361099766939     1.090193159021509
    H                1.736144339228703    -0.524361099766939    -2.840806840978491
    H               -3.827855660771297    -3.135361099766939    -0.243806840978491
    H               -0.666855660771297    -0.717361099766939    -3.416806840978491
    H               -4.325855660771298    -2.383361099766939    -2.722806840978491
    H               -3.005855660771297    -1.662361099766938    -3.641806840978491
    H               -3.930705660771297    -0.660911099766939    -2.485136840978491
    C                1.274144339228703     4.649638900233061    -0.375806840978491
    C                0.476144339228703     1.265638900233061     1.178193159021509
    C                1.138144339228703     1.346638900233061     2.394193159021509
    C                0.520144339228703     2.326638900233062     0.278193159021509
    C                1.212144339228703     3.503638900233061     0.592193159021509
    C                1.827144339228703     2.510638900233062     2.717193159021509
    C                1.867144339228703     3.578638900233061     1.819193159021509
    O                1.110144339228703     0.308638900233061     3.285193159021509
    H               -0.069855660771297     0.366638900233061     0.929193159021509
    H               -0.008855660771297     2.241638900233061    -0.661806840978491
    H                2.332144339228703     2.592638900233061     3.669193159021509
    H                1.577144339228703     0.516638900233061     4.103193159021509
    H                0.921144339228703     4.326638900233061    -1.356806840978491
    H                2.311144339228703     4.959638900233061    -0.485806840978491
    H                2.392144339228703     4.482638900233061     2.084193159021509
    H                0.680664339228703     5.507918900233062    -0.027756840978491

}
e, wfn = energy('scf', return_wfn=True)
gdma(wfn)
dmavals = variable('DMA DISTRIBUTED MULTIPOLES')
charges = np.array(dmavals)
print(charges)
np.save('SSI-044TRP-048TYR-1-dimer.npy', np.array(charges))--------------------------------------------------------------------------

*** tstart() called on ds3
*** at Tue Apr 28 04:11:27 2020

   => Loading Basis Set <=

    Name: CC-PVDZ
    Role: ORBITAL
    Keyword: BASIS
    atoms 1-9, 20-26   entry C          line   138 file /theoryfs2/ds/metcalf/miniconda2/envs/tf2gpu/share/psi4/basis/cc-pvdz.gbs
    atoms 10           entry N          line   168 file /theoryfs2/ds/metcalf/miniconda2/envs/tf2gpu/share/psi4/basis/cc-pvdz.gbs
    atoms 11-19, 28-35 entry H          line    22 file /theoryfs2/ds/metcalf/miniconda2/envs/tf2gpu/share/psi4/basis/cc-pvdz.gbs
    atoms 27           entry O          line   198 file /theoryfs2/ds/metcalf/miniconda2/envs/tf2gpu/share/psi4/basis/cc-pvdz.gbs

         ---------------------------------------------------------
                                   SCF
               by Justin Turney, Rob Parrish, Andy Simmonett
                          and Daniel G. A. Smith
                              RHF Reference
                        1 Threads,    500 MiB Core
         ---------------------------------------------------------

  ==> Geometry <==

    Molecular point group: c1
    Full point group: C1

    Geometry (in Angstrom), charge = 0, multiplicity = 1:

       Center              X                  Y                   Z               Mass
    ------------   -----------------  -----------------  -----------------  -----------------
         C           -3.509855660771    -1.659361099767    -2.674806840978    12.000000000000
         C           -0.634855660771    -2.380361099767    -0.445806840978    12.000000000000
         C           -1.160855660771    -1.820361099767    -1.634806840978    12.000000000000
         C           -2.560855660771    -2.090361099767    -1.649806840978    12.000000000000
         C           -2.839855660771    -2.785361099767    -0.528806840978    12.000000000000
         C            0.716144339229    -2.288361099767    -0.122806840978    12.000000000000
         C            1.548144339229    -1.601361099767    -0.989806840978    12.000000000000
         C            1.060144339229    -1.043361099767    -2.173806840978    12.000000000000
         C           -0.292855660771    -1.145361099767    -2.498806840978    12.000000000000
         N           -1.684855660771    -2.972361099767     0.205193159022    14.003074004430
         H            1.098144339229    -2.726361099767     0.788193159022     1.007825032230
         H            2.596144339229    -1.504361099767    -0.762806840978     1.007825032230
         H           -1.641855660771    -3.465361099767     1.090193159022     1.007825032230
         H            1.736144339229    -0.524361099767    -2.840806840978     1.007825032230
         H           -3.827855660771    -3.135361099767    -0.243806840978     1.007825032230
         H           -0.666855660771    -0.717361099767    -3.416806840978     1.007825032230
         H           -4.325855660771    -2.383361099767    -2.722806840978     1.007825032230
         H           -3.005855660771    -1.662361099767    -3.641806840978     1.007825032230
         H           -3.930705660771    -0.660911099767    -2.485136840978     1.007825032230
         C            1.274144339229     4.649638900233    -0.375806840978    12.000000000000
         C            0.476144339229     1.265638900233     1.178193159022    12.000000000000
         C            1.138144339229     1.346638900233     2.394193159022    12.000000000000
         C            0.520144339229     2.326638900233     0.278193159022    12.000000000000
         C            1.212144339229     3.503638900233     0.592193159022    12.000000000000
         C            1.827144339229     2.510638900233     2.717193159022    12.000000000000
         C            1.867144339229     3.578638900233     1.819193159022    12.000000000000
         O            1.110144339229     0.308638900233     3.285193159022    15.994914619570
         H           -0.069855660771     0.366638900233     0.929193159022     1.007825032230
         H           -0.008855660771     2.241638900233    -0.661806840978     1.007825032230
         H            2.332144339229     2.592638900233     3.669193159022     1.007825032230
         H            1.577144339229     0.516638900233     4.103193159022     1.007825032230
         H            0.921144339229     4.326638900233    -1.356806840978     1.007825032230
         H            2.311144339229     4.959638900233    -0.485806840978     1.007825032230
         H            2.392144339229     4.482638900233     2.084193159022     1.007825032230
         H            0.680664339229     5.507918900233    -0.027756840978     1.007825032230

  Running in c1 symmetry.

  Rotational constants: A =      0.02177  B =      0.00708  C =      0.00641 [cm^-1]
  Rotational constants: A =    652.56029  B =    212.14059  C =    192.30099 [MHz]
  Nuclear repulsion = 1190.637250021543196

  Charge       = 0
  Multiplicity = 1
  Electrons    = 128
  Nalpha       = 64
  Nbeta        = 64

  ==> Algorithm <==

  SCF Algorithm Type is PK.
  DIIS enabled.
  MOM disabled.
  Fractional occupation disabled.
  Guess Type is SAD.
  Energy threshold   = 1.00e-06
  Density threshold  = 1.00e-10
  Integral threshold = 0.00e+00

  ==> Primary Basis <==

  Basis Set: CC-PVDZ
    Blend: CC-PVDZ
    Number of shells: 159
    Number of basis function: 337
    Number of Cartesian functions: 355
    Spherical Harmonics?: true
    Max angular momentum: 2

  ==> Pre-Iterations <==

   -------------------------------------------------------
    Irrep   Nso     Nmo     Nalpha   Nbeta   Ndocc  Nsocc
   -------------------------------------------------------
     A        337     337       0       0       0       0
   -------------------------------------------------------
    Total     337     337      64      64      64       0
   -------------------------------------------------------

  ==> Integral Setup <==

  Using integral reordering PK algorithm.
  Sizing the integral batches needed.
  Building batch lookup table.
   Calculation information:
      Number of atoms:                  35
      Number of AO shells:             159
      Number of primitives:            481
      Number of atomic orbitals:       355
      Number of basis functions:       337

      Integral cutoff                 1.00e-12
      Number of threads:                 1

	Batch   1 pq = [       0,    9405] index = [             0,44231715] size =     44231715
	Batch   2 pq = [    9405,   13301] index = [      44231715,88464951] size =     44233236
	Batch   3 pq = [   13301,   16290] index = [      88464951,132690195] size =     44225244
	Batch   4 pq = [   16290,   18810] index = [     132690195,176917455] size =     44227260
	Batch   5 pq = [   18810,   21030] index = [     176917455,221140965] size =     44223510
	Batch   6 pq = [   21030,   23037] index = [     221140965,265363203] size =     44222238
	Batch   7 pq = [   23037,   24883] index = [     265363203,309594286] size =     44231083
	Batch   8 pq = [   24883,   26601] index = [     309594286,353819901] size =     44225615
	Batch   9 pq = [   26601,   28214] index = [     353819901,398029005] size =     44209104
	Batch  10 pq = [   28214,   29740] index = [     398029005,442248670] size =     44219665
	Batch  11 pq = [   29740,   31191] index = [     442248670,486454836] size =     44206166
	Batch  12 pq = [   31191,   32578] index = [     486454836,530679331] size =     44224495
	Batch  13 pq = [   32578,   33908] index = [     530679331,574893186] size =     44213855
	Batch  14 pq = [   33908,   35188] index = [     574893186,619115266] size =     44222080
	Batch  15 pq = [   35188,   36423] index = [     619115266,663335676] size =     44220410
	Batch  16 pq = [   36423,   37617] index = [     663335676,707538153] size =     44202477
	Batch  17 pq = [   37617,   38775] index = [     707538153,751769700] size =     44231547
	Batch  18 pq = [   38775,   39899] index = [     751769700,795985050] size =     44215350
	Batch  19 pq = [   39899,   40992] index = [     795985050,840192528] size =     44207478
	Batch  20 pq = [   40992,   42057] index = [     840192528,884416653] size =     44224125
	Batch  21 pq = [   42057,   43095] index = [     884416653,928611060] size =     44194407
	Batch  22 pq = [   43095,   44109] index = [     928611060,972823995] size =     44212935
	Batch  23 pq = [   44109,   45100] index = [     972823995,1017027550] size =     44203555
	Batch  24 pq = [   45100,   46070] index = [    1017027550,1061245485] size =     44217935
	Batch  25 pq = [   46070,   47020] index = [    1061245485,1105463710] size =     44218225
	Batch  26 pq = [   47020,   47951] index = [    1105463710,1149673176] size =     44209466
	Batch  27 pq = [   47951,   48864] index = [    1149673176,1193869680] size =     44196504
	Batch  28 pq = [   48864,   49761] index = [    1193869680,1238103441] size =     44233761
	Batch  29 pq = [   49761,   50642] index = [    1238103441,1282331403] size =     44227962
	Batch  30 pq = [   50642,   51508] index = [    1282331403,1326562786] size =     44231383
	Batch  31 pq = [   51508,   52359] index = [    1326562786,1370758620] size =     44195834
	Batch  32 pq = [   52359,   53197] index = [    1370758620,1414987003] size =     44228383
	Batch  33 pq = [   53197,   54022] index = [    1414987003,1459215253] size =     44228250
	Batch  34 pq = [   54022,   54834] index = [    1459215253,1503411195] size =     44195942
	Batch  35 pq = [   54834,   55634] index = [    1503411195,1547598795] size =     44187600
	Batch  36 pq = [   55634,   56423] index = [    1547598795,1591805676] size =     44206881
	Batch  37 pq = [   56423,   56953] index = [    1591805676,1621850581] size =     30044905
  Task number: 147
  Buffer size: 11059200
  Buffer per thread: 2
  We computed 82951377 shell quartets total.
  Whereas there are 80905560 unique shell quartets.
     2.53 percent of shell quartets recomputed by reordering.

  ==> DiskJK: Disk-Based J/K Matrices <==

    J tasked:                  Yes
    K tasked:                  Yes
    wK tasked:                  No
    Memory [MiB]:              375
    Schwarz Cutoff:          1E-12

    OpenMP threads:              1

  Minimum eigenvalue in the overlap matrix is 2.3120986965E-04.
  Using Symmetric Orthogonalization.

  SCF Guess: Superposition of Atomic Densities via on-the-fly atomic UHF.

  ==> Iterations <==

                        Total Energy        Delta E     RMS |[F,P]|

   @RHF iter SAD:  -744.46085243857806   -7.44461e+02   0.00000e+00
   @RHF iter   1:  -744.77748048124397   -3.16628e-01   2.22847e-03 DIIS
   @RHF iter   2:  -745.09633092542254   -3.18850e-01   9.87203e-04 DIIS
   @RHF iter   3:  -745.15198681969139   -5.56559e-02   2.62045e-04 DIIS
   @RHF iter   4:  -745.15717319660507   -5.18638e-03   1.18909e-04 DIIS
   @RHF iter   5:  -745.15809232719062   -9.19131e-04   1.72722e-05 DIIS
   @RHF iter   6:  -745.15813028869263   -3.79615e-05   8.14853e-06 DIIS
   @RHF iter   7:  -745.15813831932167   -8.03063e-06   3.04761e-06 DIIS
   @RHF iter   8:  -745.15814024944245   -1.93012e-06   1.24174e-06 DIIS
   @RHF iter   9:  -745.15814062830771   -3.78865e-07   5.56385e-07 DIIS
   @RHF iter  10:  -745.15814071644468   -8.81370e-08   2.56354e-07 DIIS
   @RHF iter  11:  -745.15814073947217   -2.30275e-08   9.75386e-08 DIIS
   @RHF iter  12:  -745.15814074238017   -2.90800e-09   3.56090e-08 DIIS
   @RHF iter  13:  -745.15814074265563   -2.75463e-10   1.27426e-08 DIIS
   @RHF iter  14:  -745.15814074269167   -3.60387e-11   4.64327e-09 DIIS
   @RHF iter  15:  -745.15814074268781    3.86535e-12   1.85612e-09 DIIS
   @RHF iter  16:  -745.15814074269872   -1.09139e-11   7.97478e-10 DIIS
   @RHF iter  17:  -745.15814074269542    3.29692e-12   4.27228e-10 DIIS
   @RHF iter  18:  -745.15814074269952   -4.09273e-12   1.67722e-10 DIIS
   @RHF iter  19:  -745.15814074270304   -3.52429e-12   6.88429e-11 DIIS
  Energy and wave function converged.

  ==> Post-Iterations <==

    Orbital Energies [Eh]
    ---------------------

    Doubly Occupied:

       1A    -20.577292     2A    -15.598031     3A    -11.290435
       4A    -11.261330     5A    -11.259828     6A    -11.230551
       7A    -11.228891     8A    -11.228661     9A    -11.226653
      10A    -11.226354    11A    -11.226025    12A    -11.224503
      13A    -11.222287    14A    -11.221906    15A    -11.219086
      16A    -11.218646    17A    -11.216191    18A    -11.210412
      19A     -1.390947    20A     -1.292349    21A     -1.142553
      22A     -1.126373    23A     -1.078370    24A     -1.031835
      25A     -1.008011    26A     -0.994661    27A     -0.987585
      28A     -0.931557    29A     -0.920338    30A     -0.837748
      31A     -0.835926    32A     -0.802574    33A     -0.793214
      34A     -0.749492    35A     -0.724213    36A     -0.716577
      37A     -0.661299    38A     -0.660423    39A     -0.641152
      40A     -0.632763    41A     -0.600667    42A     -0.600520
      43A     -0.592739    44A     -0.587937    45A     -0.579724
      46A     -0.576021    47A     -0.567671    48A     -0.565355
      49A     -0.560278    50A     -0.550558    51A     -0.540726
      52A     -0.523657    53A     -0.521060    54A     -0.493546
      55A     -0.491978    56A     -0.475427    57A     -0.468557
      58A     -0.461376    59A     -0.456296    60A     -0.370962
      61A     -0.329043    62A     -0.294956    63A     -0.292971
      64A     -0.273418

    Virtual:

      65A      0.127370    66A      0.138190    67A      0.163823
      68A      0.172830    69A      0.181184    70A      0.185871
      71A      0.187968    72A      0.195684    73A      0.207337
      74A      0.221956    75A      0.226951    76A      0.230443
      77A      0.235076    78A      0.240459    79A      0.267850
      80A      0.271799    81A      0.272447    82A      0.277491
      83A      0.282374    84A      0.295872    85A      0.300989
      86A      0.312673    87A      0.375077    88A      0.377462
      89A      0.382287    90A      0.388041    91A      0.411979
      92A      0.425893    93A      0.430954    94A      0.446772
      95A      0.460241    96A      0.476958    97A      0.486001
      98A      0.491870    99A      0.499580   100A      0.508893
     101A      0.511760   102A      0.525343   103A      0.597307
     104A      0.615719   105A      0.618642   106A      0.632731
     107A      0.640093   108A      0.645819   109A      0.652778
     110A      0.661009   111A      0.668058   112A      0.673697
     113A      0.697514   114A      0.699623   115A      0.706059
     116A      0.716632   117A      0.720518   118A      0.724925
     119A      0.730741   120A      0.736228   121A      0.743886
     122A      0.744559   123A      0.754074   124A      0.762512
     125A      0.765328   126A      0.770669   127A      0.774854
     128A      0.781401   129A      0.784538   130A      0.789410
     131A      0.794053   132A      0.800550   133A      0.808929
     134A      0.816855   135A      0.842170   136A      0.846801
     137A      0.853286   138A      0.863303   139A      0.869306
     140A      0.877464   141A      0.889992   142A      0.891481
     143A      0.893029   144A      0.895006   145A      0.903326
     146A      0.908280   147A      0.912647   148A      0.920917
     149A      0.933231   150A      0.940696   151A      0.948573
     152A      0.949860   153A      0.958474   154A      0.960149
     155A      0.965106   156A      0.972988   157A      0.986747
     158A      0.998783   159A      1.021934   160A      1.034926
     161A      1.054735   162A      1.058693   163A      1.076487
     164A      1.081618   165A      1.096104   166A      1.130079
     167A      1.138499   168A      1.142491   169A      1.147616
     170A      1.155588   171A      1.156573   172A      1.174052
     173A      1.176995   174A      1.194355   175A      1.214836
     176A      1.221931   177A      1.228614   178A      1.238013
     179A      1.243921   180A      1.252594   181A      1.258457
     182A      1.262079   183A      1.279718   184A      1.284472
     185A      1.291084   186A      1.294270   187A      1.298064
     188A      1.308502   189A      1.318942   190A      1.324201
     191A      1.330503   192A      1.337432   193A      1.364011
     194A      1.368455   195A      1.374310   196A      1.387080
     197A      1.405108   198A      1.424225   199A      1.449970
     200A      1.494984   201A      1.515290   202A      1.532041
     203A      1.542869   204A      1.563829   205A      1.565061
     206A      1.581228   207A      1.604602   208A      1.624548
     209A      1.626675   210A      1.630613   211A      1.644222
     212A      1.652164   213A      1.686442   214A      1.693487
     215A      1.697901   216A      1.702821   217A      1.734713
     218A      1.742170   219A      1.755461   220A      1.769540
     221A      1.775398   222A      1.790191   223A      1.796904
     224A      1.811928   225A      1.815808   226A      1.826182
     227A      1.839603   228A      1.842242   229A      1.876901
     230A      1.884945   231A      1.892406   232A      1.895917
     233A      1.905786   234A      1.910543   235A      1.915560
     236A      1.917991   237A      1.923704   238A      1.931522
     239A      1.934774   240A      1.938667   241A      1.950677
     242A      1.952524   243A      1.963023   244A      1.973161
     245A      1.976093   246A      1.985102   247A      2.000602
     248A      2.012740   249A      2.015299   250A      2.022172
     251A      2.035477   252A      2.055583   253A      2.059800
     254A      2.071144   255A      2.078206   256A      2.082589
     257A      2.084867   258A      2.094691   259A      2.100135
     260A      2.106659   261A      2.119395   262A      2.132339
     263A      2.137090   264A      2.152403   265A      2.154842
     266A      2.173203   267A      2.179072   268A      2.184278
     269A      2.188943   270A      2.210878   271A      2.233165
     272A      2.237272   273A      2.266450   274A      2.274101
     275A      2.283587   276A      2.291705   277A      2.305268
     278A      2.315061   279A      2.328187   280A      2.346867
     281A      2.360108   282A      2.371211   283A      2.388297
     284A      2.408915   285A      2.411491   286A      2.425647
     287A      2.456668   288A      2.461151   289A      2.469051
     290A      2.488286   291A      2.507181   292A      2.535177
     293A      2.545110   294A      2.567282   295A      2.603089
     296A      2.614981   297A      2.622678   298A      2.645004
     299A      2.649046   300A      2.671048   301A      2.694632
     302A      2.716445   303A      2.752332   304A      2.771513
     305A      2.774261   306A      2.779038   307A      2.791890
     308A      2.799559   309A      2.812566   310A      2.832586
     311A      2.836104   312A      2.850834   313A      2.873225
     314A      2.889243   315A      2.905757   316A      2.922059
     317A      2.968041   318A      2.988363   319A      3.011789
     320A      3.045182   321A      3.053208   322A      3.088237
     323A      3.097504   324A      3.129149   325A      3.131641
     326A      3.217603   327A      3.253250   328A      3.297356
     329A      3.320697   330A      3.350675   331A      3.393940
     332A      3.580209   333A      3.667314   334A      3.753658
     335A      3.963165   336A      3.985418   337A      4.191166

    Final Occupation by Irrep:
              A
    DOCC [    64 ]

  @RHF Final Energy:  -745.15814074270304

   => Energetics <=

    Nuclear Repulsion Energy =           1190.6372500215431955
    One-Electron Energy =               -3376.3458075620733325
    Two-Electron Energy =                1440.5504167978269834
    Total Energy =                       -745.1581407427029262

Computation Completed

Properties will be evaluated at   0.000000,   0.000000,   0.000000 [a0]

Properties computed using the SCF density matrix

  Nuclear Dipole Moment: [e a0]
     X:    -1.7080      Y:     7.7110      Z:    -5.5927

  Electronic Dipole Moment: [e a0]
     X:     1.5793      Y:    -7.7772      Z:     6.3335

  Dipole Moment: [e a0]
     X:    -0.1287      Y:    -0.0661      Z:     0.7407     Total:     0.7547

  Dipole Moment: [D]
     X:    -0.3271      Y:    -0.1680      Z:     1.8827     Total:     1.9183

*** tstop() called on ds3 at Tue Apr 28 07:44:15 2020
Module time:
	user time   =     792.35 seconds =      13.21 minutes
	system time =     320.02 seconds =       5.33 minutes
	total time  =      12768 seconds =     212.80 minutes
Total time:
	user time   =     792.35 seconds =      13.21 minutes
	system time =     320.02 seconds =       5.33 minutes
	total time  =      12768 seconds =     212.80 minutes
                                     G D M A

                                 by Anthony Stone

                           version 2.2.06, 22 June 2011

               Distributed Multipoles from Gaussian wavefunctions

Starting at 7:44:16 on 28 Apr 2020

Using SCF density matrix from file ./SSI/SSI-044TRP-048TYR-1-dimer.test.27341.fchk

                         Distributed Multipole Analysis

Standard DMA

Positions and radii in angstrom
Multipole moments in atomic units, ea_0^k for rank k

C          x = -3.509856  y = -1.659361  z = -2.674807 angstrom
           Maximum rank =  0   Radius =  0.650 angstrom
                   Q00  =  -0.214753

C          x = -0.634856  y = -2.380361  z = -0.445807 angstrom
           Maximum rank =  0   Radius =  0.650 angstrom
                   Q00  =   0.240747

C          x = -1.160856  y = -1.820361  z = -1.634807 angstrom
           Maximum rank =  0   Radius =  0.650 angstrom
                   Q00  =  -0.054476

C          x = -2.560856  y = -2.090361  z = -1.649807 angstrom
           Maximum rank =  0   Radius =  0.650 angstrom
                   Q00  =  -0.104837

C          x = -2.839856  y = -2.785361  z = -0.528807 angstrom
           Maximum rank =  0   Radius =  0.650 angstrom
                   Q00  =   0.069228

C          x =  0.716144  y = -2.288361  z = -0.122807 angstrom
           Maximum rank =  0   Radius =  0.650 angstrom
                   Q00  =  -0.119900

C          x =  1.548144  y = -1.601361  z = -0.989807 angstrom
           Maximum rank =  0   Radius =  0.650 angstrom
                   Q00  =   0.008380

C          x =  1.060144  y = -1.043361  z = -2.173807 angstrom
           Maximum rank =  0   Radius =  0.650 angstrom
                   Q00  =  -0.099421

C          x = -0.292856  y = -1.145361  z = -2.498807 angstrom
           Maximum rank =  0   Radius =  0.650 angstrom
                   Q00  =  -0.109671

N          x = -1.684856  y = -2.972361  z =  0.205193 angstrom
           Maximum rank =  0   Radius =  0.650 angstrom
                   Q00  =  -0.498143

H          x =  1.098144  y = -2.726361  z =  0.788193 angstrom
           Maximum rank =  0   Radius =  0.325 angstrom
                   Q00  =   0.075832

H          x =  2.596144  y = -1.504361  z = -0.762807 angstrom
           Maximum rank =  0   Radius =  0.325 angstrom
                   Q00  =   0.066231

H          x = -1.641856  y = -3.465361  z =  1.090193 angstrom
           Maximum rank =  0   Radius =  0.325 angstrom
                   Q00  =   0.218554

H          x =  1.736144  y = -0.524361  z = -2.840807 angstrom
           Maximum rank =  0   Radius =  0.325 angstrom
                   Q00  =   0.060401

H          x = -3.827856  y = -3.135361  z = -0.243807 angstrom
           Maximum rank =  0   Radius =  0.325 angstrom
                   Q00  =   0.099512

H          x = -0.666856  y = -0.717361  z = -3.416807 angstrom
           Maximum rank =  0   Radius =  0.325 angstrom
                   Q00  =   0.067820

H          x = -4.325856  y = -2.383361  z = -2.722807 angstrom
           Maximum rank =  0   Radius =  0.325 angstrom
                   Q00  =   0.100925

H          x = -3.005856  y = -1.662361  z = -3.641807 angstrom
           Maximum rank =  0   Radius =  0.325 angstrom
                   Q00  =   0.101240

H          x = -3.930706  y = -0.660911  z = -2.485137 angstrom
           Maximum rank =  0   Radius =  0.325 angstrom
                   Q00  =   0.097629

C          x =  1.274144  y =  4.649639  z = -0.375807 angstrom
           Maximum rank =  0   Radius =  0.650 angstrom
                   Q00  =  -0.197334

C          x =  0.476144  y =  1.265639  z =  1.178193 angstrom
           Maximum rank =  0   Radius =  0.650 angstrom
                   Q00  =  -0.065192

C          x =  1.138144  y =  1.346639  z =  2.394193 angstrom
           Maximum rank =  0   Radius =  0.650 angstrom
                   Q00  =   0.302398

C          x =  0.520144  y =  2.326639  z =  0.278193 angstrom
           Maximum rank =  0   Radius =  0.650 angstrom
                   Q00  =   0.011747

C          x =  1.212144  y =  3.503639  z =  0.592193 angstrom
           Maximum rank =  0   Radius =  0.650 angstrom
                   Q00  =  -0.143444

C          x =  1.827144  y =  2.510639  z =  2.717193 angstrom
           Maximum rank =  0   Radius =  0.650 angstrom
                   Q00  =  -0.147916

C          x =  1.867144  y =  3.578639  z =  1.819193 angstrom
           Maximum rank =  0   Radius =  0.650 angstrom
                   Q00  =  -0.058185

O          x =  1.110144  y =  0.308639  z =  3.285193 angstrom
           Maximum rank =  0   Radius =  0.650 angstrom
                   Q00  =  -0.684804

H          x = -0.069856  y =  0.366639  z =  0.929193 angstrom
           Maximum rank =  0   Radius =  0.325 angstrom
                   Q00  =   0.089516

H          x = -0.008856  y =  2.241639  z = -0.661807 angstrom
           Maximum rank =  0   Radius =  0.325 angstrom
                   Q00  =   0.064243

H          x =  2.332144  y =  2.592639  z =  3.669193 angstrom
           Maximum rank =  0   Radius =  0.325 angstrom
                   Q00  =   0.066480

H          x =  1.577144  y =  0.516639  z =  4.103193 angstrom
           Maximum rank =  0   Radius =  0.325 angstrom
                   Q00  =   0.404701

H          x =  0.921144  y =  4.326639  z = -1.356807 angstrom
           Maximum rank =  0   Radius =  0.325 angstrom
                   Q00  =   0.097501

H          x =  2.311144  y =  4.959639  z = -0.485807 angstrom
           Maximum rank =  0   Radius =  0.325 angstrom
                   Q00  =   0.095018

H          x =  2.392144  y =  4.482639  z =  2.084193 angstrom
           Maximum rank =  0   Radius =  0.325 angstrom
                   Q00  =   0.063387

H          x =  0.680664  y =  5.507919  z = -0.027757 angstrom
           Maximum rank =  0   Radius =  0.325 angstrom
                   Q00  =   0.096582

Total multipoles referred to origin at
           x =   0.000000,  y =    0.000000,  z =    0.000000 angstrom
                   Q00  =  -0.000000

Finished at 7:44:16 on 28 Apr 2020

  DMA results are available in the Python driver through the
	  variable('DMA DISTRIBUTED MULTIPOLES')
  and
	  variable('DMA TOTAL MULTIPOLES')
  commands.

    Psi4 stopped on: Tuesday, 28 April 2020 07:44AM
    Psi4 wall time for execution: 3:32:48.67

*** Psi4 exiting successfully. Buy a developer a beer!
