                               Psi4 1.3.2 release

  ==> Input File <==

--------------------------------------------------------------------------
import numpy as np
set {scf_type pk
basis cc-pvdz
d_convergence 10
gdma_switch   0
gdma_limit    0
gdma_origin   [ 0.0,  0.0,  0.0 ]
}
molecule test {
    units Angstrom
    -1 1
    --
    -1 1
    C               -3.047175650724673    -3.081752353845746    -0.093081316201234
    C               -2.180175650724673    -2.108752353845746     0.692918683798766
    O               -1.039175650724673    -2.480752353845746     1.027918683798766
    O               -2.668175650724673    -0.988752353845746     0.976918683798766
    H               -3.342175650724672    -3.900752353845745     0.556918683798766
    H               -2.472175650724672    -3.493752353845745    -0.919081316201234
    H               -3.955613650724672    -2.588930353845746    -0.469733316201234
    C                2.315824349275328     2.724247646154255    -2.597081316201234
    C                0.291824349275327     0.165247646154254    -0.623081316201234
    C                0.696824349275327     0.452247646154254     0.685918683798766
    C                0.815824349275327     0.909247646154254    -1.684081316201234
    C                1.740824349275328     1.929247646154254    -1.454081316201234
    C                1.606824349275328     1.477247646154254     0.924918683798766
    C                2.121824349275328     2.209247646154254    -0.142081316201234
    O                0.236824349275327    -0.262752353845746     1.744918683798766
    H               -0.411175650724673    -0.630752353845746    -0.805081316201234
    H                0.512824349275327     0.681247646154254    -2.698081316201234
    H                1.923824349275328     1.702247646154254     1.933918683798766
    H                0.611824349275327     0.054247646154254     2.567918683798766
    H                2.135824349275327     2.201247646154255    -3.538081316201234
    H                3.396824349275327     2.792247646154254    -2.459081316201234
    H                2.838824349275328     2.997247646154254     0.051918683798766
    H                1.898398349275328     3.740274146154254    -2.655782316201234

}
e, wfn = energy('scf', return_wfn=True)
gdma(wfn)
dmavals = variable('DMA DISTRIBUTED MULTIPOLES')
charges = np.array(dmavals)
print(charges)
np.save('SSI-095ASP-102TYR-1-dimer.npy', np.array(charges))--------------------------------------------------------------------------

*** tstart() called on ds3
*** at Sun Apr 26 23:21:01 2020

   => Loading Basis Set <=

    Name: CC-PVDZ
    Role: ORBITAL
    Keyword: BASIS
    atoms 1-2, 8-14  entry C          line   138 file /theoryfs2/ds/metcalf/miniconda2/envs/tf2gpu/share/psi4/basis/cc-pvdz.gbs
    atoms 3-4, 15    entry O          line   198 file /theoryfs2/ds/metcalf/miniconda2/envs/tf2gpu/share/psi4/basis/cc-pvdz.gbs
    atoms 5-7, 16-23 entry H          line    22 file /theoryfs2/ds/metcalf/miniconda2/envs/tf2gpu/share/psi4/basis/cc-pvdz.gbs

         ---------------------------------------------------------
                                   SCF
               by Justin Turney, Rob Parrish, Andy Simmonett
                          and Daniel G. A. Smith
                              RHF Reference
                        1 Threads,    500 MiB Core
         ---------------------------------------------------------

  ==> Geometry <==

    Molecular point group: c1
    Full point group: C1

    Geometry (in Angstrom), charge = -1, multiplicity = 1:

       Center              X                  Y                   Z               Mass
    ------------   -----------------  -----------------  -----------------  -----------------
         C           -3.047175650725    -3.081752353846    -0.093081316201    12.000000000000
         C           -2.180175650725    -2.108752353846     0.692918683799    12.000000000000
         O           -1.039175650725    -2.480752353846     1.027918683799    15.994914619570
         O           -2.668175650725    -0.988752353846     0.976918683799    15.994914619570
         H           -3.342175650725    -3.900752353846     0.556918683799     1.007825032230
         H           -2.472175650725    -3.493752353846    -0.919081316201     1.007825032230
         H           -3.955613650725    -2.588930353846    -0.469733316201     1.007825032230
         C            2.315824349275     2.724247646154    -2.597081316201    12.000000000000
         C            0.291824349275     0.165247646154    -0.623081316201    12.000000000000
         C            0.696824349275     0.452247646154     0.685918683799    12.000000000000
         C            0.815824349275     0.909247646154    -1.684081316201    12.000000000000
         C            1.740824349275     1.929247646154    -1.454081316201    12.000000000000
         C            1.606824349275     1.477247646154     0.924918683799    12.000000000000
         C            2.121824349275     2.209247646154    -0.142081316201    12.000000000000
         O            0.236824349275    -0.262752353846     1.744918683799    15.994914619570
         H           -0.411175650725    -0.630752353846    -0.805081316201     1.007825032230
         H            0.512824349275     0.681247646154    -2.698081316201     1.007825032230
         H            1.923824349275     1.702247646154     1.933918683799     1.007825032230
         H            0.611824349275     0.054247646154     2.567918683799     1.007825032230
         H            2.135824349275     2.201247646154    -3.538081316201     1.007825032230
         H            3.396824349275     2.792247646154    -2.459081316201     1.007825032230
         H            2.838824349275     2.997247646154     0.051918683799     1.007825032230
         H            1.898398349275     3.740274146154    -2.655782316201     1.007825032230

  Running in c1 symmetry.

  Rotational constants: A =      0.06729  B =      0.01358  C =      0.01200 [cm^-1]
  Rotational constants: A =   2017.33664  B =    407.20775  C =    359.83344 [MHz]
  Nuclear repulsion =  651.960264398356117

  Charge       = -1
  Multiplicity = 1
  Electrons    = 90
  Nalpha       = 45
  Nbeta        = 45

  ==> Algorithm <==

  SCF Algorithm Type is PK.
  DIIS enabled.
  MOM disabled.
  Fractional occupation disabled.
  Guess Type is SAD.
  Energy threshold   = 1.00e-06
  Density threshold  = 1.00e-10
  Integral threshold = 0.00e+00

  ==> Primary Basis <==

  Basis Set: CC-PVDZ
    Blend: CC-PVDZ
    Number of shells: 105
    Number of basis function: 223
    Number of Cartesian functions: 235
    Spherical Harmonics?: true
    Max angular momentum: 2

  ==> Pre-Iterations <==

   -------------------------------------------------------
    Irrep   Nso     Nmo     Nalpha   Nbeta   Ndocc  Nsocc
   -------------------------------------------------------
     A        223     223       0       0       0       0
   -------------------------------------------------------
    Total     223     223      45      45      45       0
   -------------------------------------------------------

  ==> Integral Setup <==

  Using integral reordering PK algorithm.
  Sizing the integral batches needed.
  Building batch lookup table.
   Calculation information:
      Number of atoms:                  23
      Number of AO shells:             105
      Number of primitives:            319
      Number of atomic orbitals:       235
      Number of basis functions:       223

      Integral cutoff                 1.00e-12
      Number of threads:                 1

	Batch   1 pq = [       0,    9405] index = [             0,44231715] size =     44231715
	Batch   2 pq = [    9405,   13301] index = [      44231715,88464951] size =     44233236
	Batch   3 pq = [   13301,   16290] index = [      88464951,132690195] size =     44225244
	Batch   4 pq = [   16290,   18810] index = [     132690195,176917455] size =     44227260
	Batch   5 pq = [   18810,   21030] index = [     176917455,221140965] size =     44223510
	Batch   6 pq = [   21030,   23037] index = [     221140965,265363203] size =     44222238
	Batch   7 pq = [   23037,   24976] index = [     265363203,311912776] size =     46549573
  Task number: 29
  Buffer size: 11059200
  Buffer per thread: 2
  We computed 12704330 shell quartets total.
  Whereas there are 15487395 unique shell quartets.

  ==> DiskJK: Disk-Based J/K Matrices <==

    J tasked:                  Yes
    K tasked:                  Yes
    wK tasked:                  No
    Memory [MiB]:              375
    Schwarz Cutoff:          1E-12

    OpenMP threads:              1

  Minimum eigenvalue in the overlap matrix is 3.2087739072E-04.
  Using Symmetric Orthogonalization.

  SCF Guess: Superposition of Atomic Densities via on-the-fly atomic UHF.

  ==> Iterations <==

                        Total Energy        Delta E     RMS |[F,P]|

   @RHF iter SAD:  -570.19162192585850   -5.70192e+02   0.00000e+00
   @RHF iter   1:  -571.47630829578884   -1.28469e+00   3.76727e-03 DIIS
   @RHF iter   2:  -571.77076117287834   -2.94453e-01   2.00481e-03 DIIS
   @RHF iter   3:  -571.84512324043362   -7.43621e-02   3.46940e-04 DIIS
   @RHF iter   4:  -571.84902642156044   -3.90318e-03   1.24721e-04 DIIS
   @RHF iter   5:  -571.84955419494520   -5.27773e-04   2.02445e-05 DIIS
   @RHF iter   6:  -571.84957613943504   -2.19445e-05   6.10901e-06 DIIS
   @RHF iter   7:  -571.84957850102978   -2.36159e-06   2.50387e-06 DIIS
   @RHF iter   8:  -571.84957892078569   -4.19756e-07   1.02601e-06 DIIS
   @RHF iter   9:  -571.84957902078918   -1.00003e-07   4.60533e-07 DIIS
   @RHF iter  10:  -571.84957904354337   -2.27542e-08   2.08424e-07 DIIS
   @RHF iter  11:  -571.84957905085207   -7.30870e-09   7.45415e-08 DIIS
   @RHF iter  12:  -571.84957905167141   -8.19341e-10   3.22446e-08 DIIS
   @RHF iter  13:  -571.84957905176134   -8.99263e-11   1.10940e-08 DIIS
   @RHF iter  14:  -571.84957905176464   -3.29692e-12   3.25789e-09 DIIS
   @RHF iter  15:  -571.84957905177828   -1.36424e-11   1.41447e-09 DIIS
   @RHF iter  16:  -571.84957905177089    7.38964e-12   5.93306e-10 DIIS
   @RHF iter  17:  -571.84957905177225   -1.36424e-12   3.21623e-10 DIIS
   @RHF iter  18:  -571.84957905177555   -3.29692e-12   1.29866e-10 DIIS
   @RHF iter  19:  -571.84957905177544    1.13687e-13   5.06910e-11 DIIS
  Energy and wave function converged.

  ==> Post-Iterations <==

    Orbital Energies [Eh]
    ---------------------

    Doubly Occupied:

       1A    -20.432201     2A    -20.250963     3A    -20.249786
       4A    -11.174531     5A    -11.138394     6A    -11.128613
       7A    -11.123883     8A    -11.122291     9A    -11.116884
      10A    -11.108178    11A    -11.103605    12A    -11.044856
      13A     -1.255463    14A     -1.141485    15A     -1.034530
      16A     -1.029584    17A     -0.926282    18A     -0.899516
      19A     -0.818111    20A     -0.792257    21A     -0.724500
      22A     -0.682510    23A     -0.602754    24A     -0.548725
      25A     -0.524187    26A     -0.494676    27A     -0.491638
      28A     -0.483258    29A     -0.469257    30A     -0.450066
      31A     -0.438851    32A     -0.410989    33A     -0.406850
      34A     -0.401634    35A     -0.395370    36A     -0.388187
      37A     -0.360605    38A     -0.346656    39A     -0.334743
      40A     -0.296642    41A     -0.223252    42A     -0.178225
      43A     -0.170534    44A     -0.164378    45A     -0.153497

    Virtual:

      46A      0.245500    47A      0.270393    48A      0.275413
      49A      0.294437    50A      0.319807    51A      0.325693
      52A      0.349702    53A      0.357964    54A      0.373537
      55A      0.379018    56A      0.399442    57A      0.416826
      58A      0.449084    59A      0.466773    60A      0.488792
      61A      0.497202    62A      0.552984    63A      0.574848
      64A      0.577642    65A      0.596429    66A      0.603973
      67A      0.624277    68A      0.710557    69A      0.717873
      70A      0.729301    71A      0.741818    72A      0.769565
      73A      0.780735    74A      0.805283    75A      0.812377
      76A      0.822430    77A      0.824968    78A      0.844377
      79A      0.850187    80A      0.854381    81A      0.871847
      82A      0.879774    83A      0.891400    84A      0.899942
      85A      0.905970    86A      0.943400    87A      0.961086
      88A      0.965857    89A      0.973193    90A      0.977808
      91A      0.986718    92A      1.000082    93A      1.015416
      94A      1.023257    95A      1.026628    96A      1.039621
      97A      1.041064    98A      1.049584    99A      1.054035
     100A      1.065156   101A      1.088782   102A      1.090485
     103A      1.141285   104A      1.150522   105A      1.162635
     106A      1.176526   107A      1.222734   108A      1.260616
     109A      1.268070   110A      1.277353   111A      1.301223
     112A      1.321234   113A      1.323222   114A      1.353337
     115A      1.362454   116A      1.378695   117A      1.384236
     118A      1.397057   119A      1.421770   120A      1.425603
     121A      1.448418   122A      1.455679   123A      1.482624
     124A      1.497662   125A      1.511412   126A      1.538860
     127A      1.569303   128A      1.578142   129A      1.607545
     130A      1.616783   131A      1.628333   132A      1.651750
     133A      1.666690   134A      1.686537   135A      1.738572
     136A      1.751208   137A      1.777131   138A      1.791076
     139A      1.797005   140A      1.843252   141A      1.844332
     142A      1.853411   143A      1.867008   144A      1.888254
     145A      1.902008   146A      1.923783   147A      1.929802
     148A      1.981745   149A      1.993695   150A      2.006143
     151A      2.026006   152A      2.034742   153A      2.047721
     154A      2.052510   155A      2.064539   156A      2.072284
     157A      2.078277   158A      2.086459   159A      2.109765
     160A      2.122649   161A      2.143099   162A      2.146089
     163A      2.167823   164A      2.179971   165A      2.181616
     166A      2.187079   167A      2.227697   168A      2.241511
     169A      2.279842   170A      2.291247   171A      2.297640
     172A      2.314627   173A      2.340312   174A      2.359639
     175A      2.367719   176A      2.386638   177A      2.409824
     178A      2.436599   179A      2.448341   180A      2.494512
     181A      2.512204   182A      2.522527   183A      2.579864
     184A      2.599328   185A      2.606082   186A      2.614463
     187A      2.635306   188A      2.663607   189A      2.707622
     190A      2.725995   191A      2.738201   192A      2.777178
     193A      2.784279   194A      2.848548   195A      2.861837
     196A      2.903713   197A      2.918881   198A      2.931220
     199A      2.936581   200A      2.977002   201A      2.995969
     202A      3.013337   203A      3.075138   204A      3.121359
     205A      3.202980   206A      3.225023   207A      3.250596
     208A      3.285902   209A      3.314664   210A      3.378070
     211A      3.398306   212A      3.412205   213A      3.498714
     214A      3.639084   215A      3.747893   216A      3.806033
     217A      3.826064   218A      3.849160   219A      4.077314
     220A      4.094080   221A      4.111801   222A      4.217255
     223A      4.357954

    Final Occupation by Irrep:
              A
    DOCC [    45 ]

  @RHF Final Energy:  -571.84957905177544

   => Energetics <=

    Nuclear Repulsion Energy =            651.9602643983561165
    One-Electron Energy =               -2089.5528942044984433
    Two-Electron Energy =                 865.7430507543667773
    Total Energy =                       -571.8495790517754358

Computation Completed

Properties will be evaluated at   0.000000,   0.000000,   0.000000 [a0]

Properties computed using the SCF density matrix

  Nuclear Dipole Moment: [e a0]
     X:     2.9244      Y:     3.3144      Z:    -7.8888

  Electronic Dipole Moment: [e a0]
     X:     0.1554      Y:    -0.5874      Z:     6.5518

  Dipole Moment: [e a0]
     X:     3.0797      Y:     2.7270      Z:    -1.3371     Total:     4.3254

  Dipole Moment: [D]
     X:     7.8279      Y:     6.9313      Z:    -3.3985     Total:    10.9940

*** tstop() called on ds3 at Sun Apr 26 23:23:38 2020
Module time:
	user time   =     108.27 seconds =       1.80 minutes
	system time =      51.10 seconds =       0.85 minutes
	total time  =        157 seconds =       2.62 minutes
Total time:
	user time   =     108.27 seconds =       1.80 minutes
	system time =      51.10 seconds =       0.85 minutes
	total time  =        157 seconds =       2.62 minutes
                                     G D M A

                                 by Anthony Stone

                           version 2.2.06, 22 June 2011

               Distributed Multipoles from Gaussian wavefunctions

Starting at 23:23:39 on 26 Apr 2020

Using SCF density matrix from file ./SSI/SSI-095ASP-102TYR-1-dimer.test.29410.fchk

                         Distributed Multipole Analysis

Standard DMA

Positions and radii in angstrom
Multipole moments in atomic units, ea_0^k for rank k

C          x = -3.047176  y = -3.081752  z = -0.093081 angstrom
           Maximum rank =  0   Radius =  0.650 angstrom
                   Q00  =  -0.261982

C          x = -2.180176  y = -2.108752  z =  0.692919 angstrom
           Maximum rank =  0   Radius =  0.650 angstrom
                   Q00  =   0.925016

O          x = -1.039176  y = -2.480752  z =  1.027919 angstrom
           Maximum rank =  0   Radius =  0.650 angstrom
                   Q00  =  -0.905353

O          x = -2.668176  y = -0.988752  z =  0.976919 angstrom
           Maximum rank =  0   Radius =  0.650 angstrom
                   Q00  =  -0.921302

H          x = -3.342176  y = -3.900752  z =  0.556919 angstrom
           Maximum rank =  0   Radius =  0.325 angstrom
                   Q00  =   0.073396

H          x = -2.472176  y = -3.493752  z = -0.919081 angstrom
           Maximum rank =  0   Radius =  0.325 angstrom
                   Q00  =   0.053166

H          x = -3.955614  y = -2.588930  z = -0.469733 angstrom
           Maximum rank =  0   Radius =  0.325 angstrom
                   Q00  =   0.042959

C          x =  2.315824  y =  2.724248  z = -2.597081 angstrom
           Maximum rank =  0   Radius =  0.650 angstrom
                   Q00  =  -0.194446

C          x =  0.291824  y =  0.165248  z = -0.623081 angstrom
           Maximum rank =  0   Radius =  0.650 angstrom
                   Q00  =  -0.102080

C          x =  0.696824  y =  0.452248  z =  0.685919 angstrom
           Maximum rank =  0   Radius =  0.650 angstrom
                   Q00  =   0.352131

C          x =  0.815824  y =  0.909248  z = -1.684081 angstrom
           Maximum rank =  0   Radius =  0.650 angstrom
                   Q00  =  -0.030545

C          x =  1.740824  y =  1.929248  z = -1.454081 angstrom
           Maximum rank =  0   Radius =  0.650 angstrom
                   Q00  =  -0.148948

C          x =  1.606824  y =  1.477248  z =  0.924919 angstrom
           Maximum rank =  0   Radius =  0.650 angstrom
                   Q00  =  -0.181104

C          x =  2.121824  y =  2.209248  z = -0.142081 angstrom
           Maximum rank =  0   Radius =  0.650 angstrom
                   Q00  =   0.011094

O          x =  0.236824  y = -0.262752  z =  1.744919 angstrom
           Maximum rank =  0   Radius =  0.650 angstrom
                   Q00  =  -0.566973

H          x = -0.411176  y = -0.630752  z = -0.805081 angstrom
           Maximum rank =  0   Radius =  0.325 angstrom
                   Q00  =   0.125554

H          x =  0.512824  y =  0.681248  z = -2.698081 angstrom
           Maximum rank =  0   Radius =  0.325 angstrom
                   Q00  =   0.041065

H          x =  1.923824  y =  1.702248  z =  1.933919 angstrom
           Maximum rank =  0   Radius =  0.325 angstrom
                   Q00  =   0.048071

H          x =  0.611824  y =  0.054248  z =  2.567919 angstrom
           Maximum rank =  0   Radius =  0.325 angstrom
                   Q00  =   0.360327

H          x =  2.135824  y =  2.201248  z = -3.538081 angstrom
           Maximum rank =  0   Radius =  0.325 angstrom
                   Q00  =   0.086699

H          x =  3.396824  y =  2.792248  z = -2.459081 angstrom
           Maximum rank =  0   Radius =  0.325 angstrom
                   Q00  =   0.077317

H          x =  2.838824  y =  2.997248  z =  0.051919 angstrom
           Maximum rank =  0   Radius =  0.325 angstrom
                   Q00  =   0.034875

H          x =  1.898398  y =  3.740274  z = -2.655782 angstrom
           Maximum rank =  0   Radius =  0.325 angstrom
                   Q00  =   0.081063

Total multipoles referred to origin at
           x =   0.000000,  y =    0.000000,  z =    0.000000 angstrom
                   Q00  =  -1.000000

Finished at 23:23:39 on 26 Apr 2020

  DMA results are available in the Python driver through the
	  variable('DMA DISTRIBUTED MULTIPOLES')
  and
	  variable('DMA TOTAL MULTIPOLES')
  commands.

    Psi4 stopped on: Sunday, 26 April 2020 11:23PM
    Psi4 wall time for execution: 0:02:37.43

*** Psi4 exiting successfully. Buy a developer a beer!
