                               Psi4 1.3.2 release

  ==> Input File <==

--------------------------------------------------------------------------
import numpy as np
set {scf_type pk
basis cc-pvdz
d_convergence 10
gdma_switch   0
gdma_limit    0
gdma_origin   [ 0.0,  0.0,  0.0 ]
}
molecule test {
    units Angstrom
    0 1
    --
    0 1
    C                0.762030539475618    -0.032590207768344     0.846784077238421
    C                1.212030539475618     0.496409792231656    -0.523215922761579
    C                1.677030539475618     0.290409792231656     1.991784077238421
    C                1.554030539475618     1.269409792231656     2.925784077238420
    C                3.363030539475619     0.119409792231656     3.371784077238421
    N                2.823030539475619    -0.423590207768344     2.284784077238421
    N                2.624030539475618     1.144409792231656     3.774784077238421
    H               -0.220969460524381     0.382409792231656     1.071784077238421
    H                0.646030539475619    -1.115590207768344     0.785784077238421
    H                0.418030539475619     0.266409792231656    -1.214215922761579
    H                0.754030539475619     1.997409792231656     2.986784077238421
    H                4.270030539475619    -0.223590207768344     3.858784077238421
    H                2.816030539475618     1.716409792231656     4.591784077238422
    H                2.113040539475619    -0.023440207768344    -0.880895922761579
    H                1.289020539475618     1.593709792231656    -0.521055922761579
    C               -0.643969460524381     1.039409792231656    -4.159215922761580
    C               -2.520969460524382     0.327409792231656    -0.941215922761579
    C               -2.294969460524382    -1.029590207768344    -0.752215922761579
    C               -2.011969460524381     0.993409792231656    -2.044215922761579
    C               -1.255969460524382     0.312409792231656    -2.988215922761579
    C               -1.518969460524382    -1.721590207768344    -1.657215922761579
    C               -1.012969460524381    -1.053590207768344    -2.788215922761580
    O               -2.822969460524381    -1.655590207768344     0.337784077238421
    H               -3.096969460524381     0.869409792231656    -0.204215922761579
    H               -2.156969460524381     2.060409792231656    -2.112215922761579
    H               -1.309969460524381    -2.771590207768344    -1.510215922761579
    H               -2.548969460524382    -2.575590207768344     0.398784077238421
    H                0.074030539475619     0.379409792231656    -4.635215922761580
    H               -0.100969460524381     1.899409792231656    -3.772215922761579
    H               -0.404969460524381    -1.598590207768344    -3.497215922761579
    H               -1.372439460524381     1.366679792231656    -4.915675922761579

}
e, wfn = energy('scf', return_wfn=True)
gdma(wfn)
dmavals = variable('DMA DISTRIBUTED MULTIPOLES')
charges = np.array(dmavals)
print(charges)
np.save('SSI-010HIE-015TYR-1-dimer.npy', np.array(charges))--------------------------------------------------------------------------

*** tstart() called on ds3
*** at Tue Apr 28 20:52:09 2020

   => Loading Basis Set <=

    Name: CC-PVDZ
    Role: ORBITAL
    Keyword: BASIS
    atoms 1-5, 16-22  entry C          line   138 file /theoryfs2/ds/metcalf/miniconda2/envs/tf2gpu/share/psi4/basis/cc-pvdz.gbs
    atoms 6-7         entry N          line   168 file /theoryfs2/ds/metcalf/miniconda2/envs/tf2gpu/share/psi4/basis/cc-pvdz.gbs
    atoms 8-15, 24-31 entry H          line    22 file /theoryfs2/ds/metcalf/miniconda2/envs/tf2gpu/share/psi4/basis/cc-pvdz.gbs
    atoms 23          entry O          line   198 file /theoryfs2/ds/metcalf/miniconda2/envs/tf2gpu/share/psi4/basis/cc-pvdz.gbs

         ---------------------------------------------------------
                                   SCF
               by Justin Turney, Rob Parrish, Andy Simmonett
                          and Daniel G. A. Smith
                              RHF Reference
                        1 Threads,    500 MiB Core
         ---------------------------------------------------------

  ==> Geometry <==

    Molecular point group: c1
    Full point group: C1

    Geometry (in Angstrom), charge = 0, multiplicity = 1:

       Center              X                  Y                   Z               Mass
    ------------   -----------------  -----------------  -----------------  -----------------
         C            0.762030539476    -0.032590207768     0.846784077238    12.000000000000
         C            1.212030539476     0.496409792232    -0.523215922762    12.000000000000
         C            1.677030539476     0.290409792232     1.991784077238    12.000000000000
         C            1.554030539476     1.269409792232     2.925784077238    12.000000000000
         C            3.363030539476     0.119409792232     3.371784077238    12.000000000000
         N            2.823030539476    -0.423590207768     2.284784077238    14.003074004430
         N            2.624030539476     1.144409792232     3.774784077238    14.003074004430
         H           -0.220969460524     0.382409792232     1.071784077238     1.007825032230
         H            0.646030539476    -1.115590207768     0.785784077238     1.007825032230
         H            0.418030539476     0.266409792232    -1.214215922762     1.007825032230
         H            0.754030539476     1.997409792232     2.986784077238     1.007825032230
         H            4.270030539476    -0.223590207768     3.858784077238     1.007825032230
         H            2.816030539476     1.716409792232     4.591784077238     1.007825032230
         H            2.113040539476    -0.023440207768    -0.880895922762     1.007825032230
         H            1.289020539476     1.593709792232    -0.521055922762     1.007825032230
         C           -0.643969460524     1.039409792232    -4.159215922762    12.000000000000
         C           -2.520969460524     0.327409792232    -0.941215922762    12.000000000000
         C           -2.294969460524    -1.029590207768    -0.752215922762    12.000000000000
         C           -2.011969460524     0.993409792232    -2.044215922762    12.000000000000
         C           -1.255969460524     0.312409792232    -2.988215922762    12.000000000000
         C           -1.518969460524    -1.721590207768    -1.657215922762    12.000000000000
         C           -1.012969460524    -1.053590207768    -2.788215922762    12.000000000000
         O           -2.822969460524    -1.655590207768     0.337784077238    15.994914619570
         H           -3.096969460524     0.869409792232    -0.204215922762     1.007825032230
         H           -2.156969460524     2.060409792232    -2.112215922762     1.007825032230
         H           -1.309969460524    -2.771590207768    -1.510215922762     1.007825032230
         H           -2.548969460524    -2.575590207768     0.398784077238     1.007825032230
         H            0.074030539476     0.379409792232    -4.635215922762     1.007825032230
         H           -0.100969460524     1.899409792232    -3.772215922762     1.007825032230
         H           -0.404969460524    -1.598590207768    -3.497215922762     1.007825032230
         H           -1.372439460524     1.366679792232    -4.915675922762     1.007825032230

  Running in c1 symmetry.

  Rotational constants: A =      0.03443  B =      0.00864  C =      0.00784 [cm^-1]
  Rotational constants: A =   1032.29949  B =    259.08405  C =    234.93368 [MHz]
  Nuclear repulsion =  926.065645609314629

  Charge       = 0
  Multiplicity = 1
  Electrons    = 110
  Nalpha       = 55
  Nbeta        = 55

  ==> Algorithm <==

  SCF Algorithm Type is PK.
  DIIS enabled.
  MOM disabled.
  Fractional occupation disabled.
  Guess Type is SAD.
  Energy threshold   = 1.00e-06
  Density threshold  = 1.00e-10
  Integral threshold = 0.00e+00

  ==> Primary Basis <==

  Basis Set: CC-PVDZ
    Blend: CC-PVDZ
    Number of shells: 138
    Number of basis function: 290
    Number of Cartesian functions: 305
    Spherical Harmonics?: true
    Max angular momentum: 2

  ==> Pre-Iterations <==

   -------------------------------------------------------
    Irrep   Nso     Nmo     Nalpha   Nbeta   Ndocc  Nsocc
   -------------------------------------------------------
     A        290     290       0       0       0       0
   -------------------------------------------------------
    Total     290     290      55      55      55       0
   -------------------------------------------------------

  ==> Integral Setup <==

  Using integral reordering PK algorithm.
  Sizing the integral batches needed.
  Building batch lookup table.
   Calculation information:
      Number of atoms:                  31
      Number of AO shells:             138
      Number of primitives:            410
      Number of atomic orbitals:       305
      Number of basis functions:       290

      Integral cutoff                 1.00e-12
      Number of threads:                 1

	Batch   1 pq = [       0,    9405] index = [             0,44231715] size =     44231715
	Batch   2 pq = [    9405,   13301] index = [      44231715,88464951] size =     44233236
	Batch   3 pq = [   13301,   16290] index = [      88464951,132690195] size =     44225244
	Batch   4 pq = [   16290,   18810] index = [     132690195,176917455] size =     44227260
	Batch   5 pq = [   18810,   21030] index = [     176917455,221140965] size =     44223510
	Batch   6 pq = [   21030,   23037] index = [     221140965,265363203] size =     44222238
	Batch   7 pq = [   23037,   24883] index = [     265363203,309594286] size =     44231083
	Batch   8 pq = [   24883,   26601] index = [     309594286,353819901] size =     44225615
	Batch   9 pq = [   26601,   28214] index = [     353819901,398029005] size =     44209104
	Batch  10 pq = [   28214,   29740] index = [     398029005,442248670] size =     44219665
	Batch  11 pq = [   29740,   31191] index = [     442248670,486454836] size =     44206166
	Batch  12 pq = [   31191,   32578] index = [     486454836,530679331] size =     44224495
	Batch  13 pq = [   32578,   33908] index = [     530679331,574893186] size =     44213855
	Batch  14 pq = [   33908,   35188] index = [     574893186,619115266] size =     44222080
	Batch  15 pq = [   35188,   36423] index = [     619115266,663335676] size =     44220410
	Batch  16 pq = [   36423,   37617] index = [     663335676,707538153] size =     44202477
	Batch  17 pq = [   37617,   38775] index = [     707538153,751769700] size =     44231547
	Batch  18 pq = [   38775,   39899] index = [     751769700,795985050] size =     44215350
	Batch  19 pq = [   39899,   40992] index = [     795985050,840192528] size =     44207478
	Batch  20 pq = [   40992,   42057] index = [     840192528,884416653] size =     44224125
	Batch  21 pq = [   42057,   42195] index = [     884416653,890230110] size =      5813457
  Task number: 81
  Buffer size: 11059200
  Buffer per thread: 2
  We computed 44572934 shell quartets total.
  Whereas there are 45998436 unique shell quartets.

  ==> DiskJK: Disk-Based J/K Matrices <==

    J tasked:                  Yes
    K tasked:                  Yes
    wK tasked:                  No
    Memory [MiB]:              375
    Schwarz Cutoff:          1E-12

    OpenMP threads:              1

  Minimum eigenvalue in the overlap matrix is 3.1994604517E-04.
  Using Symmetric Orthogonalization.

  SCF Guess: Superposition of Atomic Densities via on-the-fly atomic UHF.

  ==> Iterations <==

                        Total Energy        Delta E     RMS |[F,P]|

   @RHF iter SAD:  -646.63243971697966   -6.46632e+02   0.00000e+00
   @RHF iter   1:  -647.18517764395938   -5.52738e-01   2.50309e-03 DIIS
   @RHF iter   2:  -647.46347676960022   -2.78299e-01   1.19809e-03 DIIS
   @RHF iter   3:  -647.51996323376238   -5.64865e-02   3.20176e-04 DIIS
   @RHF iter   4:  -647.52522620893149   -5.26298e-03   1.35608e-04 DIIS
   @RHF iter   5:  -647.52607731766670   -8.51109e-04   1.94888e-05 DIIS
   @RHF iter   6:  -647.52610834177585   -3.10241e-05   8.51444e-06 DIIS
   @RHF iter   7:  -647.52611329802983   -4.95625e-06   2.82926e-06 DIIS
   @RHF iter   8:  -647.52611419501068   -8.96981e-07   1.15970e-06 DIIS
   @RHF iter   9:  -647.52611437017640   -1.75166e-07   4.90949e-07 DIIS
   @RHF iter  10:  -647.52611440546877   -3.52924e-08   1.83198e-07 DIIS
   @RHF iter  11:  -647.52611441205522   -6.58645e-09   7.35894e-08 DIIS
   @RHF iter  12:  -647.52611441313923   -1.08400e-09   3.42404e-08 DIIS
   @RHF iter  13:  -647.52611441332772   -1.88493e-10   1.15304e-08 DIIS
   @RHF iter  14:  -647.52611441335171   -2.39879e-11   5.00980e-09 DIIS
   @RHF iter  15:  -647.52611441335546   -3.75167e-12   2.03951e-09 DIIS
   @RHF iter  16:  -647.52611441335603   -5.68434e-13   9.90238e-10 DIIS
   @RHF iter  17:  -647.52611441335796   -1.93268e-12   3.72643e-10 DIIS
   @RHF iter  18:  -647.52611441335671    1.25056e-12   1.29977e-10 DIIS
   @RHF iter  19:  -647.52611441335580    9.09495e-13   6.40991e-11 DIIS
  Energy and wave function converged.

  ==> Post-Iterations <==

    Orbital Energies [Eh]
    ---------------------

    Doubly Occupied:

       1A    -20.582655     2A    -15.616212     3A    -15.523835
       4A    -11.297928     5A    -11.287053     6A    -11.242590
       7A    -11.240302     8A    -11.236639     9A    -11.233322
      10A    -11.233170    11A    -11.230455    12A    -11.229704
      13A    -11.226543    14A    -11.212660    15A    -11.197810
      16A     -1.399302    17A     -1.337006    18A     -1.152737
      19A     -1.149112    20A     -1.039785    21A     -1.039178
      22A     -1.017284    23A     -0.975540    24A     -0.927693
      25A     -0.849818    26A     -0.845274    27A     -0.812490
      28A     -0.802629    29A     -0.753746    30A     -0.732558
      31A     -0.726788    32A     -0.667212    33A     -0.641718
      34A     -0.614014    35A     -0.607377    36A     -0.599642
      37A     -0.591009    38A     -0.588934    39A     -0.585263
      40A     -0.571894    41A     -0.568153    42A     -0.568009
      43A     -0.554679    44A     -0.526147    45A     -0.501564
      46A     -0.495896    47A     -0.485790    48A     -0.484123
      49A     -0.473012    50A     -0.452175    51A     -0.406718
      52A     -0.372045    53A     -0.338748    54A     -0.303176
      55A     -0.301750

    Virtual:

      56A      0.128065    57A      0.154186    58A      0.175292
      59A      0.177539    60A      0.183390    61A      0.195193
      62A      0.206103    63A      0.215248    64A      0.224898
      65A      0.230469    66A      0.238761    67A      0.249984
      68A      0.259902    69A      0.260923    70A      0.267986
      71A      0.287916    72A      0.290465    73A      0.300528
      74A      0.316198    75A      0.353541    76A      0.368879
      77A      0.373589    78A      0.389756    79A      0.398337
      80A      0.417735    81A      0.430291    82A      0.454625
      83A      0.457678    84A      0.477911    85A      0.482581
      86A      0.493920    87A      0.497276    88A      0.518939
      89A      0.597382    90A      0.601107    91A      0.615763
      92A      0.618215    93A      0.623388    94A      0.642254
      95A      0.651176    96A      0.670478    97A      0.674103
      98A      0.683683    99A      0.693495   100A      0.698529
     101A      0.709021   102A      0.729756   103A      0.733004
     104A      0.738064   105A      0.762060   106A      0.767073
     107A      0.775875   108A      0.777321   109A      0.788418
     110A      0.793374   111A      0.809314   112A      0.822279
     113A      0.834265   114A      0.845058   115A      0.857879
     116A      0.865135   117A      0.872710   118A      0.875032
     119A      0.886821   120A      0.893108   121A      0.897277
     122A      0.906354   123A      0.919151   124A      0.920137
     125A      0.927119   126A      0.934161   127A      0.945160
     128A      0.946360   129A      0.954381   130A      0.960416
     131A      0.965433   132A      0.978782   133A      0.984573
     134A      0.988703   135A      0.998073   136A      1.017062
     137A      1.022169   138A      1.053056   139A      1.058408
     140A      1.077349   141A      1.100508   142A      1.102230
     143A      1.130387   144A      1.135159   145A      1.140788
     146A      1.148670   147A      1.157636   148A      1.181574
     149A      1.185595   150A      1.210099   151A      1.237166
     152A      1.245025   153A      1.246829   154A      1.268604
     155A      1.275807   156A      1.293196   157A      1.306954
     158A      1.314199   159A      1.318160   160A      1.321608
     161A      1.328663   162A      1.335922   163A      1.354150
     164A      1.359826   165A      1.373667   166A      1.384112
     167A      1.415333   168A      1.447926   169A      1.460523
     170A      1.483804   171A      1.494852   172A      1.515103
     173A      1.527056   174A      1.546455   175A      1.560912
     176A      1.563725   177A      1.584139   178A      1.611758
     179A      1.622653   180A      1.661450   181A      1.677385
     182A      1.687296   183A      1.698961   184A      1.719821
     185A      1.740638   186A      1.748641   187A      1.762625
     188A      1.764301   189A      1.777351   190A      1.800208
     191A      1.820385   192A      1.825582   193A      1.839887
     194A      1.855284   195A      1.875050   196A      1.883823
     197A      1.898445   198A      1.902252   199A      1.905773
     200A      1.918114   201A      1.920254   202A      1.928143
     203A      1.936188   204A      1.947218   205A      1.955805
     206A      1.963630   207A      1.968804   208A      1.984005
     209A      1.987590   210A      1.999803   211A      2.004047
     212A      2.015259   213A      2.019289   214A      2.038960
     215A      2.048808   216A      2.054848   217A      2.065524
     218A      2.071331   219A      2.085792   220A      2.098782
     221A      2.106067   222A      2.120645   223A      2.128196
     224A      2.137203   225A      2.159006   226A      2.180104
     227A      2.191150   228A      2.208692   229A      2.219121
     230A      2.220492   231A      2.259065   232A      2.261657
     233A      2.271778   234A      2.275482   235A      2.302409
     236A      2.317944   237A      2.333416   238A      2.349423
     239A      2.354266   240A      2.394397   241A      2.411314
     242A      2.421069   243A      2.450455   244A      2.455493
     245A      2.467321   246A      2.481569   247A      2.504137
     248A      2.510657   249A      2.524873   250A      2.540881
     251A      2.581308   252A      2.590512   253A      2.611053
     254A      2.616508   255A      2.627478   256A      2.651176
     257A      2.702136   258A      2.751903   259A      2.760457
     260A      2.770000   261A      2.784226   262A      2.801765
     263A      2.804944   264A      2.809893   265A      2.827892
     266A      2.846420   267A      2.862229   268A      2.871250
     269A      2.903004   270A      2.916943   271A      2.934309
     272A      2.947974   273A      2.995136   274A      3.011865
     275A      3.026042   276A      3.080968   277A      3.090128
     278A      3.097060   279A      3.117272   280A      3.180419
     281A      3.251983   282A      3.273992   283A      3.286079
     284A      3.353787   285A      3.473336   286A      3.580194
     287A      3.676535   288A      3.796975   289A      3.977759
     290A      4.197643

    Final Occupation by Irrep:
              A
    DOCC [    55 ]

  @RHF Final Energy:  -647.52611441335580

   => Energetics <=

    Nuclear Repulsion Energy =            926.0656456093146289
    One-Electron Energy =               -2718.2817841754731489
    Two-Electron Energy =                1144.6900241528026072
    Total Energy =                       -647.5261144133557991

Computation Completed

Properties will be evaluated at   0.000000,   0.000000,   0.000000 [a0]

Properties computed using the SCF density matrix

  Nuclear Dipole Moment: [e a0]
     X:     1.0656      Y:     3.9491      Z:    -8.9870

  Electronic Dipole Moment: [e a0]
     X:    -0.9319      Y:    -3.3897      Z:     9.6072

  Dipole Moment: [e a0]
     X:     0.1337      Y:     0.5595      Z:     0.6201     Total:     0.8458

  Dipole Moment: [D]
     X:     0.3399      Y:     1.4220      Z:     1.5762     Total:     2.1499

*** tstop() called on ds3 at Tue Apr 28 21:08:05 2020
Module time:
	user time   =     383.84 seconds =       6.40 minutes
	system time =     140.44 seconds =       2.34 minutes
	total time  =        956 seconds =      15.93 minutes
Total time:
	user time   =     383.84 seconds =       6.40 minutes
	system time =     140.44 seconds =       2.34 minutes
	total time  =        956 seconds =      15.93 minutes
                                     G D M A

                                 by Anthony Stone

                           version 2.2.06, 22 June 2011

               Distributed Multipoles from Gaussian wavefunctions

Starting at 21:8:6 on 28 Apr 2020

Using SCF density matrix from file ./SSI/SSI-010HIE-015TYR-1-dimer.test.31755.fchk

                         Distributed Multipole Analysis

Standard DMA

Positions and radii in angstrom
Multipole moments in atomic units, ea_0^k for rank k

C          x =  0.762031  y = -0.032590  z =  0.846784 angstrom
           Maximum rank =  0   Radius =  0.650 angstrom
                   Q00  =  -0.012025

C          x =  1.212031  y =  0.496410  z = -0.523216 angstrom
           Maximum rank =  0   Radius =  0.650 angstrom
                   Q00  =  -0.243640

C          x =  1.677031  y =  0.290410  z =  1.991784 angstrom
           Maximum rank =  0   Radius =  0.650 angstrom
                   Q00  =   0.226846

C          x =  1.554031  y =  1.269410  z =  2.925784 angstrom
           Maximum rank =  0   Radius =  0.650 angstrom
                   Q00  =  -0.010895

C          x =  3.363031  y =  0.119410  z =  3.371784 angstrom
           Maximum rank =  0   Radius =  0.650 angstrom
                   Q00  =   0.454170

N          x =  2.823031  y = -0.423590  z =  2.284784 angstrom
           Maximum rank =  0   Radius =  0.650 angstrom
                   Q00  =  -0.772964

N          x =  2.624031  y =  1.144410  z =  3.774784 angstrom
           Maximum rank =  0   Radius =  0.650 angstrom
                   Q00  =  -0.471001

H          x = -0.220969  y =  0.382410  z =  1.071784 angstrom
           Maximum rank =  0   Radius =  0.325 angstrom
                   Q00  =   0.061106

H          x =  0.646031  y = -1.115590  z =  0.785784 angstrom
           Maximum rank =  0   Radius =  0.325 angstrom
                   Q00  =   0.079769

H          x =  0.418031  y =  0.266410  z = -1.214216 angstrom
           Maximum rank =  0   Radius =  0.325 angstrom
                   Q00  =   0.103712

H          x =  0.754031  y =  1.997410  z =  2.986784 angstrom
           Maximum rank =  0   Radius =  0.325 angstrom
                   Q00  =   0.101143

H          x =  4.270031  y = -0.223590  z =  3.858784 angstrom
           Maximum rank =  0   Radius =  0.325 angstrom
                   Q00  =   0.119254

H          x =  2.816031  y =  1.716410  z =  4.591784 angstrom
           Maximum rank =  0   Radius =  0.325 angstrom
                   Q00  =   0.219644

H          x =  2.113041  y = -0.023440  z = -0.880896 angstrom
           Maximum rank =  0   Radius =  0.325 angstrom
                   Q00  =   0.072750

H          x =  1.289021  y =  1.593710  z = -0.521056 angstrom
           Maximum rank =  0   Radius =  0.325 angstrom
                   Q00  =   0.055983

C          x = -0.643969  y =  1.039410  z = -4.159216 angstrom
           Maximum rank =  0   Radius =  0.650 angstrom
                   Q00  =  -0.193826

C          x = -2.520969  y =  0.327410  z = -0.941216 angstrom
           Maximum rank =  0   Radius =  0.650 angstrom
                   Q00  =   0.020972

C          x = -2.294969  y = -1.029590  z = -0.752216 angstrom
           Maximum rank =  0   Radius =  0.650 angstrom
                   Q00  =   0.320424

C          x = -2.011969  y =  0.993410  z = -2.044216 angstrom
           Maximum rank =  0   Radius =  0.650 angstrom
                   Q00  =  -0.063319

C          x = -1.255969  y =  0.312410  z = -2.988216 angstrom
           Maximum rank =  0   Radius =  0.650 angstrom
                   Q00  =  -0.140246

C          x = -1.518969  y = -1.721590  z = -1.657216 angstrom
           Maximum rank =  0   Radius =  0.650 angstrom
                   Q00  =  -0.194726

C          x = -1.012969  y = -1.053590  z = -2.788216 angstrom
           Maximum rank =  0   Radius =  0.650 angstrom
                   Q00  =  -0.040064

O          x = -2.822969  y = -1.655590  z =  0.337784 angstrom
           Maximum rank =  0   Radius =  0.650 angstrom
                   Q00  =  -0.682958

H          x = -3.096969  y =  0.869410  z = -0.204216 angstrom
           Maximum rank =  0   Radius =  0.325 angstrom
                   Q00  =   0.077883

H          x = -2.156969  y =  2.060410  z = -2.112216 angstrom
           Maximum rank =  0   Radius =  0.325 angstrom
                   Q00  =   0.061349

H          x = -1.309969  y = -2.771590  z = -1.510216 angstrom
           Maximum rank =  0   Radius =  0.325 angstrom
                   Q00  =   0.074868

H          x = -2.548969  y = -2.575590  z =  0.398784 angstrom
           Maximum rank =  0   Radius =  0.325 angstrom
                   Q00  =   0.407941

H          x =  0.074031  y =  0.379410  z = -4.635216 angstrom
           Maximum rank =  0   Radius =  0.325 angstrom
                   Q00  =   0.098030

H          x = -0.100969  y =  1.899410  z = -3.772216 angstrom
           Maximum rank =  0   Radius =  0.325 angstrom
                   Q00  =   0.097346

H          x = -0.404969  y = -1.598590  z = -3.497216 angstrom
           Maximum rank =  0   Radius =  0.325 angstrom
                   Q00  =   0.072345

H          x = -1.372439  y =  1.366680  z = -4.915676 angstrom
           Maximum rank =  0   Radius =  0.325 angstrom
                   Q00  =   0.100128

Total multipoles referred to origin at
           x =   0.000000,  y =    0.000000,  z =    0.000000 angstrom
                   Q00  =  -0.000000

Finished at 21:8:6 on 28 Apr 2020

  DMA results are available in the Python driver through the
	  variable('DMA DISTRIBUTED MULTIPOLES')
  and
	  variable('DMA TOTAL MULTIPOLES')
  commands.

    Psi4 stopped on: Tuesday, 28 April 2020 09:08PM
    Psi4 wall time for execution: 0:15:57.14

*** Psi4 exiting successfully. Buy a developer a beer!
