                               Psi4 1.3.2 release

  ==> Input File <==

--------------------------------------------------------------------------
import numpy as np
set {scf_type pk
basis cc-pvdz
d_convergence 10
gdma_switch   0
gdma_limit    0
gdma_origin   [ 0.0,  0.0,  0.0 ]
}
molecule test {
    units Angstrom
    0 1
    --
    0 1
    C               -1.228586194717333     2.276886498995923    -0.647861722859971
    C               -1.739586194717333     3.582886498995923    -0.064861722859971
    H               -0.149586194717333     2.212886498995922    -0.500861722859971
    H               -1.443586194717333     2.222886498995923    -1.716861722859971
    H               -1.681586194717333     1.429886498995923    -0.130861722859971
    H               -1.578586194717333     3.546886498995923     1.010138277140030
    H               -2.802796194717333     3.760676498995922    -0.283903722859971
    H               -1.151146194717332     4.396786498995923    -0.513522722859971
    C                0.776413805282667    -0.563113501004077    -1.045861722859970
    C                1.646413805282667    -2.398113501004077     0.813138277140030
    S                0.215413805282667    -1.357113501004077     0.467138277140029
    H               -0.050586194717333    -0.025113501004077    -1.505861722859971
    H                1.137413805282667    -1.312113501004077    -1.747861722859971
    H                1.585413805282667     0.131886498995923    -0.818861722859970
    H                2.504413805282667    -1.773113501004077     1.063138277140029
    H                1.880413805282667    -2.987113501004077    -0.072861722859971
    H                1.409793805282668    -3.064092501004077     1.656040277140029

}
e, wfn = energy('scf', return_wfn=True)
gdma(wfn)
dmavals = variable('DMA DISTRIBUTED MULTIPOLES')
charges = np.array(dmavals)
print(charges)
np.save('SSI-015THR-021MET-1-dimer.npy', np.array(charges))--------------------------------------------------------------------------

*** tstart() called on ds3
*** at Sun Apr 26 18:21:53 2020

   => Loading Basis Set <=

    Name: CC-PVDZ
    Role: ORBITAL
    Keyword: BASIS
    atoms 1-2, 9-10  entry C          line   138 file /theoryfs2/ds/metcalf/miniconda2/envs/tf2gpu/share/psi4/basis/cc-pvdz.gbs
    atoms 3-8, 12-17 entry H          line    22 file /theoryfs2/ds/metcalf/miniconda2/envs/tf2gpu/share/psi4/basis/cc-pvdz.gbs
    atoms 11         entry S          line   598 file /theoryfs2/ds/metcalf/miniconda2/envs/tf2gpu/share/psi4/basis/cc-pvdz.gbs

         ---------------------------------------------------------
                                   SCF
               by Justin Turney, Rob Parrish, Andy Simmonett
                          and Daniel G. A. Smith
                              RHF Reference
                        1 Threads,    500 MiB Core
         ---------------------------------------------------------

  ==> Geometry <==

    Molecular point group: c1
    Full point group: C1

    Geometry (in Angstrom), charge = 0, multiplicity = 1:

       Center              X                  Y                   Z               Mass
    ------------   -----------------  -----------------  -----------------  -----------------
         C           -1.228586194717     2.276886498996    -0.647861722860    12.000000000000
         C           -1.739586194717     3.582886498996    -0.064861722860    12.000000000000
         H           -0.149586194717     2.212886498996    -0.500861722860     1.007825032230
         H           -1.443586194717     2.222886498996    -1.716861722860     1.007825032230
         H           -1.681586194717     1.429886498996    -0.130861722860     1.007825032230
         H           -1.578586194717     3.546886498996     1.010138277140     1.007825032230
         H           -2.802796194717     3.760676498996    -0.283903722860     1.007825032230
         H           -1.151146194717     4.396786498996    -0.513522722860     1.007825032230
         C            0.776413805283    -0.563113501004    -1.045861722860    12.000000000000
         C            1.646413805283    -2.398113501004     0.813138277140    12.000000000000
         S            0.215413805283    -1.357113501004     0.467138277140    31.972071174400
         H           -0.050586194717    -0.025113501004    -1.505861722860     1.007825032230
         H            1.137413805283    -1.312113501004    -1.747861722860     1.007825032230
         H            1.585413805283     0.131886498996    -0.818861722860     1.007825032230
         H            2.504413805283    -1.773113501004     1.063138277140     1.007825032230
         H            1.880413805283    -2.987113501004    -0.072861722860     1.007825032230
         H            1.409793805283    -3.064092501004     1.656040277140     1.007825032230

  Running in c1 symmetry.

  Rotational constants: A =      0.30439  B =      0.02986  C =      0.02852 [cm^-1]
  Rotational constants: A =   9125.49635  B =    895.13970  C =    854.92598 [MHz]
  Nuclear repulsion =  221.237694132749908

  Charge       = 0
  Multiplicity = 1
  Electrons    = 52
  Nalpha       = 26
  Nbeta        = 26

  ==> Algorithm <==

  SCF Algorithm Type is PK.
  DIIS enabled.
  MOM disabled.
  Fractional occupation disabled.
  Guess Type is SAD.
  Energy threshold   = 1.00e-06
  Density threshold  = 1.00e-10
  Integral threshold = 0.00e+00

  ==> Primary Basis <==

  Basis Set: CC-PVDZ
    Blend: CC-PVDZ
    Number of shells: 68
    Number of basis function: 134
    Number of Cartesian functions: 139
    Spherical Harmonics?: true
    Max angular momentum: 2

  ==> Pre-Iterations <==

   -------------------------------------------------------
    Irrep   Nso     Nmo     Nalpha   Nbeta   Ndocc  Nsocc
   -------------------------------------------------------
     A        134     134       0       0       0       0
   -------------------------------------------------------
    Total     134     134      26      26      26       0
   -------------------------------------------------------

  ==> Integral Setup <==

  Using integral reordering PK algorithm.
  Sizing the integral batches needed.
  Building batch lookup table.
   Calculation information:
      Number of atoms:                  17
      Number of AO shells:              68
      Number of primitives:            198
      Number of atomic orbitals:       139
      Number of basis functions:       134

      Integral cutoff                 1.00e-12
      Number of threads:                 1

	Batch   1 pq = [       0,    9045] index = [             0,40910535] size =     40910535
  Task number: 4
  Buffer size: 11059200
  Buffer per thread: 2
  We computed 2096703 shell quartets total.
  Whereas there are 2753031 unique shell quartets.

  ==> DiskJK: Disk-Based J/K Matrices <==

    J tasked:                  Yes
    K tasked:                  Yes
    wK tasked:                  No
    Memory [MiB]:              375
    Schwarz Cutoff:          1E-12

    OpenMP threads:              1

  Minimum eigenvalue in the overlap matrix is 6.0965320039E-03.
  Using Symmetric Orthogonalization.

  SCF Guess: Superposition of Atomic Densities via on-the-fly atomic UHF.

  ==> Iterations <==

                        Total Energy        Delta E     RMS |[F,P]|

   @RHF iter SAD:  -554.93650647891934   -5.54937e+02   0.00000e+00
   @RHF iter   1:  -555.84423434760538   -9.07728e-01   3.38698e-03 DIIS
   @RHF iter   2:  -555.96868875409393   -1.24454e-01   1.34355e-03 DIIS
   @RHF iter   3:  -555.98685689796127   -1.81681e-02   3.16658e-04 DIIS
   @RHF iter   4:  -555.98874084761144   -1.88395e-03   4.79599e-05 DIIS
   @RHF iter   5:  -555.98877946752714   -3.86199e-05   1.07751e-05 DIIS
   @RHF iter   6:  -555.98878149063410   -2.02311e-06   2.60632e-06 DIIS
   @RHF iter   7:  -555.98878160002107   -1.09387e-07   7.16455e-07 DIIS
   @RHF iter   8:  -555.98878160885215   -8.83108e-09   1.77110e-07 DIIS
   @RHF iter   9:  -555.98878160962749   -7.75344e-10   5.46651e-08 DIIS
   @RHF iter  10:  -555.98878160969809   -7.05995e-11   1.62896e-08 DIIS
   @RHF iter  11:  -555.98878160970310   -5.00222e-12   3.64716e-09 DIIS
   @RHF iter  12:  -555.98878160970423   -1.13687e-12   1.03590e-09 DIIS
   @RHF iter  13:  -555.98878160970344    7.95808e-13   2.31978e-10 DIIS
   @RHF iter  14:  -555.98878160970389   -4.54747e-13   5.87863e-11 DIIS
  Energy and wave function converged.

  ==> Post-Iterations <==

    Orbital Energies [Eh]
    ---------------------

    Doubly Occupied:

       1A    -91.933951     2A    -11.256555     3A    -11.252648
       4A    -11.217206     5A    -11.215540     6A     -8.937834
       7A     -6.619892     8A     -6.618361     9A     -6.616071
      10A     -1.062356    11A     -1.020473    12A     -0.950143
      13A     -0.834916    14A     -0.803696    15A     -0.605838
      16A     -0.601475    17A     -0.600980    18A     -0.595147
      19A     -0.573547    20A     -0.561028    21A     -0.503894
      22A     -0.492161    23A     -0.486686    24A     -0.479968
      25A     -0.426484    26A     -0.330046

    Virtual:

      27A      0.174962    28A      0.180382    29A      0.197721
      30A      0.224177    31A      0.229533    32A      0.238124
      33A      0.254135    34A      0.257390    35A      0.273121
      36A      0.275455    37A      0.295112    38A      0.296642
      39A      0.308202    40A      0.334842    41A      0.412847
      42A      0.516940    43A      0.554123    44A      0.581738
      45A      0.595916    46A      0.609041    47A      0.613469
      48A      0.620473    49A      0.665107    50A      0.683623
      51A      0.691172    52A      0.716584    53A      0.756379
      54A      0.795651    55A      0.815784    56A      0.823247
      57A      0.833689    58A      0.868008    59A      0.873722
      60A      0.879569    61A      0.889976    62A      0.891063
      63A      0.893670    64A      0.896322    65A      0.903936
      66A      0.912868    67A      0.918205    68A      0.945541
      69A      0.952811    70A      0.977098    71A      0.981851
      72A      1.045142    73A      1.123041    74A      1.137969
      75A      1.179958    76A      1.231556    77A      1.269937
      78A      1.306908    79A      1.324890    80A      1.370280
      81A      1.388427    82A      1.463071    83A      1.477168
      84A      1.490603    85A      1.494946    86A      1.591890
      87A      1.663249    88A      1.678322    89A      1.687353
      90A      1.693910    91A      1.850138    92A      1.861564
      93A      1.878505    94A      1.887001    95A      1.902844
      96A      1.904321    97A      1.911604    98A      1.939856
      99A      1.945969   100A      1.954456   101A      1.971858
     102A      1.972267   103A      1.976801   104A      1.988442
     105A      2.014741   106A      2.031915   107A      2.056188
     108A      2.081883   109A      2.102230   110A      2.129233
     111A      2.213408   112A      2.232222   113A      2.304902
     114A      2.321859   115A      2.409626   116A      2.447482
     117A      2.452770   118A      2.459512   119A      2.465415
     120A      2.483301   121A      2.562737   122A      2.582046
     123A      2.731602   124A      2.759464   125A      2.761971
     126A      2.774730   127A      2.782270   128A      2.799507
     129A      2.822850   130A      2.840082   131A      2.848474
     132A      2.867431   133A      2.945859   134A      2.965564

    Final Occupation by Irrep:
              A
    DOCC [    26 ]

  @RHF Final Energy:  -555.98878160970389

   => Energetics <=

    Nuclear Repulsion Energy =            221.2376941327499082
    One-Electron Energy =               -1201.2591569646056087
    Two-Electron Energy =                 424.0326812221518367
    Total Energy =                       -555.9887816097038922

Computation Completed

Properties will be evaluated at   0.000000,   0.000000,   0.000000 [a0]

Properties computed using the SCF density matrix

  Nuclear Dipole Moment: [e a0]
     X:    -0.3135      Y:     7.9705      Z:    -3.3271

  Electronic Dipole Moment: [e a0]
     X:     0.8777      Y:    -8.0397      Z:     3.0054

  Dipole Moment: [e a0]
     X:     0.5642      Y:    -0.0692      Z:    -0.3217     Total:     0.6532

  Dipole Moment: [D]
     X:     1.4341      Y:    -0.1759      Z:    -0.8177     Total:     1.6602

*** tstop() called on ds3 at Sun Apr 26 18:22:20 2020
Module time:
	user time   =      15.70 seconds =       0.26 minutes
	system time =       4.75 seconds =       0.08 minutes
	total time  =         27 seconds =       0.45 minutes
Total time:
	user time   =      15.70 seconds =       0.26 minutes
	system time =       4.75 seconds =       0.08 minutes
	total time  =         27 seconds =       0.45 minutes
                                     G D M A

                                 by Anthony Stone

                           version 2.2.06, 22 June 2011

               Distributed Multipoles from Gaussian wavefunctions

Starting at 18:22:20 on 26 Apr 2020

Using SCF density matrix from file ./SSI/SSI-015THR-021MET-1-dimer.test.6814.fchk

                         Distributed Multipole Analysis

Standard DMA

Positions and radii in angstrom
Multipole moments in atomic units, ea_0^k for rank k

C          x = -1.228586  y =  2.276886  z = -0.647862 angstrom
           Maximum rank =  0   Radius =  0.650 angstrom
                   Q00  =  -0.249055

C          x = -1.739586  y =  3.582887  z = -0.064862 angstrom
           Maximum rank =  0   Radius =  0.650 angstrom
                   Q00  =  -0.222137

H          x = -0.149586  y =  2.212887  z = -0.500862 angstrom
           Maximum rank =  0   Radius =  0.325 angstrom
                   Q00  =   0.077949

H          x = -1.443586  y =  2.222886  z = -1.716862 angstrom
           Maximum rank =  0   Radius =  0.325 angstrom
                   Q00  =   0.073292

H          x = -1.681586  y =  1.429886  z = -0.130862 angstrom
           Maximum rank =  0   Radius =  0.325 angstrom
                   Q00  =   0.083357

H          x = -1.578586  y =  3.546887  z =  1.010138 angstrom
           Maximum rank =  0   Radius =  0.325 angstrom
                   Q00  =   0.082990

H          x = -2.802796  y =  3.760677  z = -0.283904 angstrom
           Maximum rank =  0   Radius =  0.325 angstrom
                   Q00  =   0.080822

H          x = -1.151146  y =  4.396787  z = -0.513523 angstrom
           Maximum rank =  0   Radius =  0.325 angstrom
                   Q00  =   0.073668

C          x =  0.776414  y = -0.563113  z = -1.045862 angstrom
           Maximum rank =  0   Radius =  0.650 angstrom
                   Q00  =  -0.355220

C          x =  1.646414  y = -2.398114  z =  0.813138 angstrom
           Maximum rank =  0   Radius =  0.650 angstrom
                   Q00  =  -0.353176

S          x =  0.215414  y = -1.357114  z =  0.467138 angstrom
           Maximum rank =  0   Radius =  0.650 angstrom
                   Q00  =   0.116965

H          x = -0.050586  y = -0.025114  z = -1.505862 angstrom
           Maximum rank =  0   Radius =  0.325 angstrom
                   Q00  =   0.128355

H          x =  1.137414  y = -1.312114  z = -1.747862 angstrom
           Maximum rank =  0   Radius =  0.325 angstrom
                   Q00  =   0.085912

H          x =  1.585414  y =  0.131886  z = -0.818862 angstrom
           Maximum rank =  0   Radius =  0.325 angstrom
                   Q00  =   0.082170

H          x =  2.504414  y = -1.773114  z =  1.063138 angstrom
           Maximum rank =  0   Radius =  0.325 angstrom
                   Q00  =   0.085630

H          x =  1.880414  y = -2.987114  z = -0.072862 angstrom
           Maximum rank =  0   Radius =  0.325 angstrom
                   Q00  =   0.087288

H          x =  1.409794  y = -3.064093  z =  1.656040 angstrom
           Maximum rank =  0   Radius =  0.325 angstrom
                   Q00  =   0.121189

Total multipoles referred to origin at
           x =   0.000000,  y =    0.000000,  z =    0.000000 angstrom
                   Q00  =   0.000000

Finished at 18:22:20 on 26 Apr 2020

  DMA results are available in the Python driver through the
	  variable('DMA DISTRIBUTED MULTIPOLES')
  and
	  variable('DMA TOTAL MULTIPOLES')
  commands.

    Psi4 stopped on: Sunday, 26 April 2020 06:22PM
    Psi4 wall time for execution: 0:00:27.41

*** Psi4 exiting successfully. Buy a developer a beer!
