                               Psi4 1.3.2 release

  ==> Input File <==

--------------------------------------------------------------------------
import numpy as np
set {scf_type pk
basis cc-pvdz
d_convergence 10
gdma_switch   0
gdma_limit    0
gdma_origin   [ 0.0,  0.0,  0.0 ]
}
molecule test {
    units Angstrom
    0 1
    --
    0 1
    C               -1.845829354696025     0.421020467429532    -1.934103008424013
    C                0.625170645303975     0.142020467429532    -1.519103008424012
    C               -0.408829354696025     0.643020467429532    -2.324103008424013
    C                1.964170645303975     0.322020467429532    -1.873103008424013
    C               -0.068829354696025     1.342020467429532    -3.488103008424012
    C                2.300170645303975     1.008020467429532    -3.038103008424013
    C                1.268170645303974     1.531020467429532    -3.823103008424013
    H                0.391170645303975    -0.402979532570468    -0.629103008424012
    H                2.745170645303975    -0.084979532570468    -1.247103008424012
    H               -2.428829354696026     1.310020467429531    -2.173103008424012
    H               -1.783829354696025     0.358020467429532    -0.877103008424012
    H               -0.841829354696025     1.747020467429532    -4.126103008424012
    H                3.334170645303974     1.138020467429532    -3.326103008424012
    H                1.520170645303974     2.073020467429532    -4.723103008424012
    H               -2.296189354696025    -0.455461532570468    -2.422933008424013
    C                2.191170645303974     0.492020467429532     2.800896991575987
    C               -0.755829354696025    -1.282979532570468     1.457896991575987
    C               -0.209829354696025    -0.116979532570468     2.079896991575987
    C                1.186170645303975    -0.396979532570468     2.208896991575987
    C                1.390170645303975    -1.614979532570469     1.660896991575988
    C               -2.046829354696025    -1.576979532570469     1.100896991575987
    C               -2.664829354696026    -0.451979532570468     1.224896991575988
    C               -1.063829354696025     0.937020467429532     2.393896991575987
    C               -2.286829354696025     0.805020467429532     1.903896991575988
    N                0.257170645303975    -2.144979532570468     1.240896991575988
    H                0.189170645303975    -3.015979532570468     0.732896991575988
    H               -2.358829354696026    -2.425979532570468     0.525896991575988
    H                2.334170645303975    -1.947979532570469     1.310896991575987
    H               -3.079829354696026    -0.440979532570468     0.246896991575988
    H               -0.699829354696025     1.868020467429532     2.803896991575987
    H                2.604170645303975     0.026020467429532     3.696896991575987
    H                1.683170645303975     1.409020467429531     3.101896991575988
    H               -2.803829354696025     1.697020467429531     1.679896991575987
    H                2.993930645303974     0.728515467429532     2.087006991575988

}
e, wfn = energy('scf', return_wfn=True)
gdma(wfn)
dmavals = variable('DMA DISTRIBUTED MULTIPOLES')
charges = np.array(dmavals)
print(charges)
np.save('SSI-031PHE-092TRP-2-dimer.npy', np.array(charges))--------------------------------------------------------------------------

*** tstart() called on ds3
*** at Mon Apr 27 10:09:42 2020

   => Loading Basis Set <=

    Name: CC-PVDZ
    Role: ORBITAL
    Keyword: BASIS
    atoms 1-7, 16-24  entry C          line   138 file /theoryfs2/ds/metcalf/miniconda2/envs/tf2gpu/share/psi4/basis/cc-pvdz.gbs
    atoms 8-15, 26-34 entry H          line    22 file /theoryfs2/ds/metcalf/miniconda2/envs/tf2gpu/share/psi4/basis/cc-pvdz.gbs
    atoms 25          entry N          line   168 file /theoryfs2/ds/metcalf/miniconda2/envs/tf2gpu/share/psi4/basis/cc-pvdz.gbs

         ---------------------------------------------------------
                                   SCF
               by Justin Turney, Rob Parrish, Andy Simmonett
                          and Daniel G. A. Smith
                              RHF Reference
                        1 Threads,    500 MiB Core
         ---------------------------------------------------------

  ==> Geometry <==

    Molecular point group: c1
    Full point group: C1

    Geometry (in Angstrom), charge = 0, multiplicity = 1:

       Center              X                  Y                   Z               Mass
    ------------   -----------------  -----------------  -----------------  -----------------
         C           -1.845829354696     0.421020467430    -1.934103008424    12.000000000000
         C            0.625170645304     0.142020467430    -1.519103008424    12.000000000000
         C           -0.408829354696     0.643020467430    -2.324103008424    12.000000000000
         C            1.964170645304     0.322020467430    -1.873103008424    12.000000000000
         C           -0.068829354696     1.342020467430    -3.488103008424    12.000000000000
         C            2.300170645304     1.008020467430    -3.038103008424    12.000000000000
         C            1.268170645304     1.531020467430    -3.823103008424    12.000000000000
         H            0.391170645304    -0.402979532570    -0.629103008424     1.007825032230
         H            2.745170645304    -0.084979532570    -1.247103008424     1.007825032230
         H           -2.428829354696     1.310020467430    -2.173103008424     1.007825032230
         H           -1.783829354696     0.358020467430    -0.877103008424     1.007825032230
         H           -0.841829354696     1.747020467430    -4.126103008424     1.007825032230
         H            3.334170645304     1.138020467430    -3.326103008424     1.007825032230
         H            1.520170645304     2.073020467430    -4.723103008424     1.007825032230
         H           -2.296189354696    -0.455461532570    -2.422933008424     1.007825032230
         C            2.191170645304     0.492020467430     2.800896991576    12.000000000000
         C           -0.755829354696    -1.282979532570     1.457896991576    12.000000000000
         C           -0.209829354696    -0.116979532570     2.079896991576    12.000000000000
         C            1.186170645304    -0.396979532570     2.208896991576    12.000000000000
         C            1.390170645304    -1.614979532570     1.660896991576    12.000000000000
         C           -2.046829354696    -1.576979532570     1.100896991576    12.000000000000
         C           -2.664829354696    -0.451979532570     1.224896991576    12.000000000000
         C           -1.063829354696     0.937020467430     2.393896991576    12.000000000000
         C           -2.286829354696     0.805020467430     1.903896991576    12.000000000000
         N            0.257170645304    -2.144979532570     1.240896991576    14.003074004430
         H            0.189170645304    -3.015979532570     0.732896991576     1.007825032230
         H           -2.358829354696    -2.425979532570     0.525896991576     1.007825032230
         H            2.334170645304    -1.947979532570     1.310896991576     1.007825032230
         H           -3.079829354696    -0.440979532570     0.246896991576     1.007825032230
         H           -0.699829354696     1.868020467430     2.803896991576     1.007825032230
         H            2.604170645304     0.026020467430     3.696896991576     1.007825032230
         H            1.683170645304     1.409020467430     3.101896991576     1.007825032230
         H           -2.803829354696     1.697020467430     1.679896991576     1.007825032230
         H            2.993930645304     0.728515467430     2.087006991576     1.007825032230

  Running in c1 symmetry.

  Rotational constants: A =      0.02303  B =      0.01148  C =      0.00930 [cm^-1]
  Rotational constants: A =    690.36861  B =    344.14593  C =    278.95436 [MHz]
  Nuclear repulsion = 1133.034455088096820

  Charge       = 0
  Multiplicity = 1
  Electrons    = 120
  Nalpha       = 60
  Nbeta        = 60

  ==> Algorithm <==

  SCF Algorithm Type is PK.
  DIIS enabled.
  MOM disabled.
  Fractional occupation disabled.
  Guess Type is SAD.
  Energy threshold   = 1.00e-06
  Density threshold  = 1.00e-10
  Integral threshold = 0.00e+00

  ==> Primary Basis <==

  Basis Set: CC-PVDZ
    Blend: CC-PVDZ
    Number of shells: 153
    Number of basis function: 323
    Number of Cartesian functions: 340
    Spherical Harmonics?: true
    Max angular momentum: 2

  ==> Pre-Iterations <==

   -------------------------------------------------------
    Irrep   Nso     Nmo     Nalpha   Nbeta   Ndocc  Nsocc
   -------------------------------------------------------
     A        323     323       0       0       0       0
   -------------------------------------------------------
    Total     323     323      60      60      60       0
   -------------------------------------------------------

  ==> Integral Setup <==

  Using integral reordering PK algorithm.
  Sizing the integral batches needed.
  Building batch lookup table.
   Calculation information:
      Number of atoms:                  34
      Number of AO shells:             153
      Number of primitives:            459
      Number of atomic orbitals:       340
      Number of basis functions:       323

      Integral cutoff                 1.00e-12
      Number of threads:                 1

	Batch   1 pq = [       0,    9405] index = [             0,44231715] size =     44231715
	Batch   2 pq = [    9405,   13301] index = [      44231715,88464951] size =     44233236
	Batch   3 pq = [   13301,   16290] index = [      88464951,132690195] size =     44225244
	Batch   4 pq = [   16290,   18810] index = [     132690195,176917455] size =     44227260
	Batch   5 pq = [   18810,   21030] index = [     176917455,221140965] size =     44223510
	Batch   6 pq = [   21030,   23037] index = [     221140965,265363203] size =     44222238
	Batch   7 pq = [   23037,   24883] index = [     265363203,309594286] size =     44231083
	Batch   8 pq = [   24883,   26601] index = [     309594286,353819901] size =     44225615
	Batch   9 pq = [   26601,   28214] index = [     353819901,398029005] size =     44209104
	Batch  10 pq = [   28214,   29740] index = [     398029005,442248670] size =     44219665
	Batch  11 pq = [   29740,   31191] index = [     442248670,486454836] size =     44206166
	Batch  12 pq = [   31191,   32578] index = [     486454836,530679331] size =     44224495
	Batch  13 pq = [   32578,   33908] index = [     530679331,574893186] size =     44213855
	Batch  14 pq = [   33908,   35188] index = [     574893186,619115266] size =     44222080
	Batch  15 pq = [   35188,   36423] index = [     619115266,663335676] size =     44220410
	Batch  16 pq = [   36423,   37617] index = [     663335676,707538153] size =     44202477
	Batch  17 pq = [   37617,   38775] index = [     707538153,751769700] size =     44231547
	Batch  18 pq = [   38775,   39899] index = [     751769700,795985050] size =     44215350
	Batch  19 pq = [   39899,   40992] index = [     795985050,840192528] size =     44207478
	Batch  20 pq = [   40992,   42057] index = [     840192528,884416653] size =     44224125
	Batch  21 pq = [   42057,   43095] index = [     884416653,928611060] size =     44194407
	Batch  22 pq = [   43095,   44109] index = [     928611060,972823995] size =     44212935
	Batch  23 pq = [   44109,   45100] index = [     972823995,1017027550] size =     44203555
	Batch  24 pq = [   45100,   46070] index = [    1017027550,1061245485] size =     44217935
	Batch  25 pq = [   46070,   47020] index = [    1061245485,1105463710] size =     44218225
	Batch  26 pq = [   47020,   47951] index = [    1105463710,1149673176] size =     44209466
	Batch  27 pq = [   47951,   48864] index = [    1149673176,1193869680] size =     44196504
	Batch  28 pq = [   48864,   49761] index = [    1193869680,1238103441] size =     44233761
	Batch  29 pq = [   49761,   50642] index = [    1238103441,1282331403] size =     44227962
	Batch  30 pq = [   50642,   51508] index = [    1282331403,1326562786] size =     44231383
	Batch  31 pq = [   51508,   52326] index = [    1326562786,1369031301] size =     42468515
  Task number: 124
  Buffer size: 11059200
  Buffer per thread: 2
  We computed 91451799 shell quartets total.
  Whereas there are 69401871 unique shell quartets.
    31.77 percent of shell quartets recomputed by reordering.

  ==> DiskJK: Disk-Based J/K Matrices <==

    J tasked:                  Yes
    K tasked:                  Yes
    wK tasked:                  No
    Memory [MiB]:              375
    Schwarz Cutoff:          1E-12

    OpenMP threads:              1

  Minimum eigenvalue in the overlap matrix is 2.6885750826E-04.
  Using Symmetric Orthogonalization.

  SCF Guess: Superposition of Atomic Densities via on-the-fly atomic UHF.

  ==> Iterations <==

                        Total Energy        Delta E     RMS |[F,P]|

   @RHF iter SAD:  -670.31361910488090   -6.70314e+02   0.00000e+00
   @RHF iter   1:  -669.81019654105876    5.03423e-01   2.20228e-03 DIIS
   @RHF iter   2:  -670.11183062944770   -3.01634e-01   9.41225e-04 DIIS
   @RHF iter   3:  -670.16073332656117   -4.89027e-02   2.64566e-04 DIIS
   @RHF iter   4:  -670.16561480522432   -4.88148e-03   1.15693e-04 DIIS
   @RHF iter   5:  -670.16641859052640   -8.03785e-04   1.88695e-05 DIIS
   @RHF iter   6:  -670.16646406020868   -4.54697e-05   8.45721e-06 DIIS
   @RHF iter   7:  -670.16647588292267   -1.18227e-05   3.83577e-06 DIIS
   @RHF iter   8:  -670.16647968621555   -3.80329e-06   1.74264e-06 DIIS
   @RHF iter   9:  -670.16648063735340   -9.51138e-07   7.90882e-07 DIIS
   @RHF iter  10:  -670.16648081161975   -1.74266e-07   3.11577e-07 DIIS
   @RHF iter  11:  -670.16648084052861   -2.89089e-08   1.36576e-07 DIIS
   @RHF iter  12:  -670.16648084443750   -3.90889e-09   4.88869e-08 DIIS
   @RHF iter  13:  -670.16648084491658   -4.79076e-10   1.70146e-08 DIIS
   @RHF iter  14:  -670.16648084497274   -5.61613e-11   7.84686e-09 DIIS
   @RHF iter  15:  -670.16648084497888   -6.13909e-12   3.40328e-09 DIIS
   @RHF iter  16:  -670.16648084498911   -1.02318e-11   1.38168e-09 DIIS
   @RHF iter  17:  -670.16648084498797    1.13687e-12   6.44682e-10 DIIS
   @RHF iter  18:  -670.16648084499570   -7.73070e-12   2.31936e-10 DIIS
   @RHF iter  19:  -670.16648084497808    1.76215e-11   9.39527e-11 DIIS
  Energy and wave function converged.

  ==> Post-Iterations <==

    Orbital Energies [Eh]
    ---------------------

    Doubly Occupied:

       1A    -15.600522     2A    -11.262394     3A    -11.245533
       4A    -11.236025     5A    -11.232981     6A    -11.231110
       7A    -11.230876     8A    -11.228410     9A    -11.228063
      10A    -11.225988    11A    -11.222306    12A    -11.221987
      13A    -11.220315    14A    -11.220256    15A    -11.219902
      16A    -11.217380    17A    -11.211183    18A     -1.322318
      19A     -1.159729    20A     -1.144860    21A     -1.093875
      22A     -1.040806    23A     -1.034954    24A     -1.004833
      25A     -0.982371    26A     -0.939038    27A     -0.929159
      28A     -0.838722    29A     -0.818766    30A     -0.810489
      31A     -0.789911    32A     -0.766258    33A     -0.736827
      34A     -0.686653    35A     -0.668139    36A     -0.648441
      37A     -0.632559    38A     -0.627885    39A     -0.625555
      40A     -0.613204    41A     -0.597711    42A     -0.581526
      43A     -0.573065    44A     -0.566214    45A     -0.559679
      46A     -0.557654    47A     -0.546539    48A     -0.538009
      49A     -0.512607    50A     -0.502651    51A     -0.484768
      52A     -0.482067    53A     -0.477466    54A     -0.470713
      55A     -0.440285    56A     -0.377594    57A     -0.326355
      58A     -0.316459    59A     -0.298688    60A     -0.265256

    Virtual:

      61A      0.122008    62A      0.140310    63A      0.143994
      64A      0.156673    65A      0.166469    66A      0.177209
      67A      0.188274    68A      0.199836    69A      0.206901
      70A      0.220263    71A      0.226542    72A      0.235307
      73A      0.248962    74A      0.256510    75A      0.265929
      76A      0.271736    77A      0.285040    78A      0.290019
      79A      0.301810    80A      0.313470    81A      0.324426
      82A      0.341136    83A      0.356219    84A      0.372958
      85A      0.382323    86A      0.401024    87A      0.417701
      88A      0.423035    89A      0.449361    90A      0.459769
      91A      0.468307    92A      0.476214    93A      0.484712
      94A      0.486097    95A      0.503764    96A      0.520766
      97A      0.548729    98A      0.572104    99A      0.590763
     100A      0.599798   101A      0.628425   102A      0.640741
     103A      0.652971   104A      0.659733   105A      0.661577
     106A      0.676170   107A      0.684284   108A      0.690842
     109A      0.693690   110A      0.702846   111A      0.707727
     112A      0.712433   113A      0.721722   114A      0.722981
     115A      0.734728   116A      0.739603   117A      0.746351
     118A      0.749904   119A      0.753572   120A      0.755484
     121A      0.760810   122A      0.769284   123A      0.778566
     124A      0.779243   125A      0.791917   126A      0.803580
     127A      0.814093   128A      0.825230   129A      0.833807
     130A      0.846016   131A      0.850466   132A      0.858275
     133A      0.866493   134A      0.877220   135A      0.883890
     136A      0.886866   137A      0.891253   138A      0.896958
     139A      0.910091   140A      0.911013   141A      0.922901
     142A      0.931024   143A      0.936452   144A      0.943791
     145A      0.949214   146A      0.951153   147A      0.951845
     148A      0.980141   149A      0.985356   150A      0.995288
     151A      1.011759   152A      1.022127   153A      1.026154
     154A      1.030124   155A      1.038480   156A      1.049699
     157A      1.063532   158A      1.082782   159A      1.102230
     160A      1.125631   161A      1.132740   162A      1.146903
     163A      1.147825   164A      1.155589   165A      1.157333
     166A      1.177684   167A      1.187297   168A      1.195278
     169A      1.197307   170A      1.211326   171A      1.221540
     172A      1.233216   173A      1.241480   174A      1.245351
     175A      1.256649   176A      1.278428   177A      1.283373
     178A      1.298163   179A      1.302808   180A      1.311379
     181A      1.319224   182A      1.323879   183A      1.333018
     184A      1.346580   185A      1.357950   186A      1.389244
     187A      1.410237   188A      1.419819   189A      1.453591
     190A      1.487286   191A      1.505244   192A      1.510199
     193A      1.530197   194A      1.544171   195A      1.554437
     196A      1.560384   197A      1.565990   198A      1.588006
     199A      1.613261   200A      1.623497   201A      1.633900
     202A      1.648174   203A      1.661931   204A      1.674118
     205A      1.684324   206A      1.695034   207A      1.728653
     208A      1.741852   209A      1.746280   210A      1.754872
     211A      1.762901   212A      1.772577   213A      1.782324
     214A      1.794019   215A      1.801711   216A      1.813170
     217A      1.826571   218A      1.838491   219A      1.847924
     220A      1.867580   221A      1.878298   222A      1.885077
     223A      1.888394   224A      1.891629   225A      1.896919
     226A      1.905547   227A      1.916570   228A      1.928456
     229A      1.928747   230A      1.942817   231A      1.945031
     232A      1.952685   233A      1.962214   234A      1.976668
     235A      1.981967   236A      1.996675   237A      2.001691
     238A      2.005328   239A      2.010997   240A      2.026889
     241A      2.034102   242A      2.041706   243A      2.059745
     244A      2.067334   245A      2.084716   246A      2.087730
     247A      2.092325   248A      2.102715   249A      2.116048
     250A      2.121011   251A      2.122076   252A      2.137200
     253A      2.156140   254A      2.167197   255A      2.177056
     256A      2.183661   257A      2.193494   258A      2.196806
     259A      2.212134   260A      2.231050   261A      2.237475
     262A      2.252888   263A      2.264841   264A      2.277761
     265A      2.287849   266A      2.303157   267A      2.304334
     268A      2.317178   269A      2.319708   270A      2.340415
     271A      2.344474   272A      2.357299   273A      2.388501
     274A      2.393910   275A      2.430554   276A      2.445312
     277A      2.460119   278A      2.482256   279A      2.492602
     280A      2.516578   281A      2.530658   282A      2.540246
     283A      2.555982   284A      2.582657   285A      2.607647
     286A      2.639323   287A      2.643476   288A      2.660251
     289A      2.672953   290A      2.700516   291A      2.741518
     292A      2.747271   293A      2.759156   294A      2.759498
     295A      2.778621   296A      2.787597   297A      2.797222
     298A      2.823718   299A      2.834668   300A      2.852974
     301A      2.864445   302A      2.879100   303A      2.887615
     304A      2.898806   305A      2.946447   306A      2.955147
     307A      2.987911   308A      2.995257   309A      3.020239
     310A      3.034647   311A      3.056625   312A      3.099082
     313A      3.108274   314A      3.153765   315A      3.166652
     316A      3.212239   317A      3.220301   318A      3.298436
     319A      3.315574   320A      3.442689   321A      3.776108
     322A      3.812574   323A      3.961684

    Final Occupation by Irrep:
              A
    DOCC [    60 ]

  @RHF Final Energy:  -670.16648084497808

   => Energetics <=

    Nuclear Repulsion Energy =           1133.0344550880968200
    One-Electron Energy =               -3157.1100882122018447
    Two-Electron Energy =                1353.9091522791270563
    Total Energy =                       -670.1664808449779684

Computation Completed

Properties will be evaluated at   0.000000,   0.000000,   0.000000 [a0]

Properties computed using the SCF density matrix

  Nuclear Dipole Moment: [e a0]
     X:     1.4076      Y:     3.3627      Z:    -3.1333

  Electronic Dipole Moment: [e a0]
     X:    -1.0374      Y:    -3.9684      Z:     2.6537

  Dipole Moment: [e a0]
     X:     0.3702      Y:    -0.6057      Z:    -0.4796     Total:     0.8567

  Dipole Moment: [D]
     X:     0.9410      Y:    -1.5395      Z:    -1.2190     Total:     2.1776

*** tstop() called on ds3 at Mon Apr 27 12:41:46 2020
Module time:
	user time   =     819.32 seconds =      13.66 minutes
	system time =     272.49 seconds =       4.54 minutes
	total time  =       9124 seconds =     152.07 minutes
Total time:
	user time   =     819.32 seconds =      13.66 minutes
	system time =     272.49 seconds =       4.54 minutes
	total time  =       9124 seconds =     152.07 minutes
                                     G D M A

                                 by Anthony Stone

                           version 2.2.06, 22 June 2011

               Distributed Multipoles from Gaussian wavefunctions

Starting at 12:41:46 on 27 Apr 2020

Using SCF density matrix from file ./SSI/SSI-031PHE-092TRP-2-dimer.test.2399.fchk

                         Distributed Multipole Analysis

Standard DMA

Positions and radii in angstrom
Multipole moments in atomic units, ea_0^k for rank k

C          x = -1.845829  y =  0.421020  z = -1.934103 angstrom
           Maximum rank =  0   Radius =  0.650 angstrom
                   Q00  =  -0.202731

C          x =  0.625171  y =  0.142020  z = -1.519103 angstrom
           Maximum rank =  0   Radius =  0.650 angstrom
                   Q00  =  -0.050577

C          x = -0.408829  y =  0.643020  z = -2.324103 angstrom
           Maximum rank =  0   Radius =  0.650 angstrom
                   Q00  =  -0.104713

C          x =  1.964171  y =  0.322020  z = -1.873103 angstrom
           Maximum rank =  0   Radius =  0.650 angstrom
                   Q00  =  -0.074595

C          x = -0.068829  y =  1.342020  z = -3.488103 angstrom
           Maximum rank =  0   Radius =  0.650 angstrom
                   Q00  =  -0.081031

C          x =  2.300171  y =  1.008020  z = -3.038103 angstrom
           Maximum rank =  0   Radius =  0.650 angstrom
                   Q00  =  -0.098867

C          x =  1.268171  y =  1.531020  z = -3.823103 angstrom
           Maximum rank =  0   Radius =  0.650 angstrom
                   Q00  =   0.023120

H          x =  0.391171  y = -0.402980  z = -0.629103 angstrom
           Maximum rank =  0   Radius =  0.325 angstrom
                   Q00  =   0.032660

H          x =  2.745171  y = -0.084980  z = -1.247103 angstrom
           Maximum rank =  0   Radius =  0.325 angstrom
                   Q00  =   0.053538

H          x = -2.428829  y =  1.310020  z = -2.173103 angstrom
           Maximum rank =  0   Radius =  0.325 angstrom
                   Q00  =   0.102692

H          x = -1.783829  y =  0.358020  z = -0.877103 angstrom
           Maximum rank =  0   Radius =  0.325 angstrom
                   Q00  =   0.093303

H          x = -0.841829  y =  1.747020  z = -4.126103 angstrom
           Maximum rank =  0   Radius =  0.325 angstrom
                   Q00  =   0.054111

H          x =  3.334171  y =  1.138020  z = -3.326103 angstrom
           Maximum rank =  0   Radius =  0.325 angstrom
                   Q00  =   0.061349

H          x =  1.520171  y =  2.073020  z = -4.723103 angstrom
           Maximum rank =  0   Radius =  0.325 angstrom
                   Q00  =   0.060832

H          x = -2.296189  y = -0.455462  z = -2.422933 angstrom
           Maximum rank =  0   Radius =  0.325 angstrom
                   Q00  =   0.099740

C          x =  2.191171  y =  0.492020  z =  2.800897 angstrom
           Maximum rank =  0   Radius =  0.650 angstrom
                   Q00  =  -0.210326

C          x = -0.755829  y = -1.282980  z =  1.457897 angstrom
           Maximum rank =  0   Radius =  0.650 angstrom
                   Q00  =   0.156988

C          x = -0.209829  y = -0.116980  z =  2.079897 angstrom
           Maximum rank =  0   Radius =  0.650 angstrom
                   Q00  =  -0.067715

C          x =  1.186171  y = -0.396980  z =  2.208897 angstrom
           Maximum rank =  0   Radius =  0.650 angstrom
                   Q00  =  -0.115230

C          x =  1.390171  y = -1.614980  z =  1.660897 angstrom
           Maximum rank =  0   Radius =  0.650 angstrom
                   Q00  =   0.054564

C          x = -2.046829  y = -1.576980  z =  1.100897 angstrom
           Maximum rank =  0   Radius =  0.650 angstrom
                   Q00  =   0.043203

C          x = -2.664829  y = -0.451980  z =  1.224897 angstrom
           Maximum rank =  0   Radius =  0.650 angstrom
                   Q00  =  -0.110068

C          x = -1.063829  y =  0.937020  z =  2.393897 angstrom
           Maximum rank =  0   Radius =  0.650 angstrom
                   Q00  =  -0.049008

C          x = -2.286829  y =  0.805020  z =  1.903897 angstrom
           Maximum rank =  0   Radius =  0.650 angstrom
                   Q00  =  -0.144088

N          x =  0.257171  y = -2.144980  z =  1.240897 angstrom
           Maximum rank =  0   Radius =  0.650 angstrom
                   Q00  =  -0.425338

H          x =  0.189171  y = -3.015980  z =  0.732897 angstrom
           Maximum rank =  0   Radius =  0.325 angstrom
                   Q00  =   0.216533

H          x = -2.358829  y = -2.425980  z =  0.525897 angstrom
           Maximum rank =  0   Radius =  0.325 angstrom
                   Q00  =   0.071022

H          x =  2.334171  y = -1.947980  z =  1.310897 angstrom
           Maximum rank =  0   Radius =  0.325 angstrom
                   Q00  =   0.092664

H          x = -3.079829  y = -0.440980  z =  0.246897 angstrom
           Maximum rank =  0   Radius =  0.325 angstrom
                   Q00  =   0.057060

H          x = -0.699829  y =  1.868020  z =  2.803897 angstrom
           Maximum rank =  0   Radius =  0.325 angstrom
                   Q00  =   0.081275

H          x =  2.604171  y =  0.026020  z =  3.696897 angstrom
           Maximum rank =  0   Radius =  0.325 angstrom
                   Q00  =   0.103114

H          x =  1.683171  y =  1.409020  z =  3.101897 angstrom
           Maximum rank =  0   Radius =  0.325 angstrom
                   Q00  =   0.104351

H          x = -2.803829  y =  1.697020  z =  1.679897 angstrom
           Maximum rank =  0   Radius =  0.325 angstrom
                   Q00  =   0.076193

H          x =  2.993931  y =  0.728515  z =  2.087007 angstrom
           Maximum rank =  0   Radius =  0.325 angstrom
                   Q00  =   0.095977

Total multipoles referred to origin at
           x =   0.000000,  y =    0.000000,  z =    0.000000 angstrom
                   Q00  =  -0.000000

Finished at 12:41:46 on 27 Apr 2020

  DMA results are available in the Python driver through the
	  variable('DMA DISTRIBUTED MULTIPOLES')
  and
	  variable('DMA TOTAL MULTIPOLES')
  commands.

    Psi4 stopped on: Monday, 27 April 2020 12:41PM
    Psi4 wall time for execution: 2:32:03.54

*** Psi4 exiting successfully. Buy a developer a beer!
