                               Psi4 1.3.2 release

  ==> Input File <==

--------------------------------------------------------------------------
import numpy as np
set {scf_type pk
basis cc-pvdz
d_convergence 10
gdma_switch   0
gdma_limit    0
gdma_origin   [ 0.0,  0.0,  0.0 ]
}
molecule test {
    units Angstrom
    0 1
    --
    0 1
    C                1.202162754758777    -1.953219704857502    -0.080096742983320
    C                1.468162754758777    -3.471219704857502     0.147903257016680
    H                0.165162754758777    -1.798219704857502    -0.375096742983320
    H                1.388162754758777    -1.400219704857502     0.837903257016680
    H                1.857162754758777    -1.572219704857502    -0.863096742983320
    H                0.816162754758777    -3.842219704857502     0.939903257016680
    H                2.508162754758777    -3.609219704857502     0.454903257016680
    H                1.293672754758777    -4.082999704857501    -0.749466742983320
    C               -0.471837245241223     1.363780295142498    -0.217096742983320
    C               -1.909837245241223     1.639780295142498    -0.708096742983320
    C               -0.316837245241223     2.496780295142498     0.839903257016680
    H                0.260162754758777     1.478780295142498    -1.019096742983320
    H               -0.361837245241223     0.377780295142498     0.229903257016680
    H               -2.109837245241223     1.199780295142498    -1.683096742983320
    H               -2.653837245241223     1.277780295142498     0.006903257016680
    H                0.735162754758777     2.723780295142499     1.006903257016680
    H               -0.786837245241223     2.249780295142498     1.797903257016680
    H               -1.945817245241223     2.738010295142498    -0.759076742983320
    H               -0.830037245241223     3.355660295142498     0.382783257016680

}
e, wfn = energy('scf', return_wfn=True)
gdma(wfn)
dmavals = variable('DMA DISTRIBUTED MULTIPOLES')
charges = np.array(dmavals)
print(charges)
np.save('SSI-159ILE-203PRO-1-dimer.npy', np.array(charges))--------------------------------------------------------------------------

*** tstart() called on ds3
*** at Mon Apr 27 19:49:57 2020

   => Loading Basis Set <=

    Name: CC-PVDZ
    Role: ORBITAL
    Keyword: BASIS
    atoms 1-2, 9-11  entry C          line   138 file /theoryfs2/ds/metcalf/miniconda2/envs/tf2gpu/share/psi4/basis/cc-pvdz.gbs
    atoms 3-8, 12-19 entry H          line    22 file /theoryfs2/ds/metcalf/miniconda2/envs/tf2gpu/share/psi4/basis/cc-pvdz.gbs

         ---------------------------------------------------------
                                   SCF
               by Justin Turney, Rob Parrish, Andy Simmonett
                          and Daniel G. A. Smith
                              RHF Reference
                        1 Threads,    500 MiB Core
         ---------------------------------------------------------

  ==> Geometry <==

    Molecular point group: c1
    Full point group: C1

    Geometry (in Angstrom), charge = 0, multiplicity = 1:

       Center              X                  Y                   Z               Mass
    ------------   -----------------  -----------------  -----------------  -----------------
         C            1.202162754759    -1.953219704858    -0.080096742983    12.000000000000
         C            1.468162754759    -3.471219704858     0.147903257017    12.000000000000
         H            0.165162754759    -1.798219704858    -0.375096742983     1.007825032230
         H            1.388162754759    -1.400219704858     0.837903257017     1.007825032230
         H            1.857162754759    -1.572219704858    -0.863096742983     1.007825032230
         H            0.816162754759    -3.842219704858     0.939903257017     1.007825032230
         H            2.508162754759    -3.609219704858     0.454903257017     1.007825032230
         H            1.293672754759    -4.082999704858    -0.749466742983     1.007825032230
         C           -0.471837245241     1.363780295142    -0.217096742983    12.000000000000
         C           -1.909837245241     1.639780295142    -0.708096742983    12.000000000000
         C           -0.316837245241     2.496780295142     0.839903257017    12.000000000000
         H            0.260162754759     1.478780295142    -1.019096742983     1.007825032230
         H           -0.361837245241     0.377780295142     0.229903257017     1.007825032230
         H           -2.109837245241     1.199780295142    -1.683096742983     1.007825032230
         H           -2.653837245241     1.277780295142     0.006903257017     1.007825032230
         H            0.735162754759     2.723780295142     1.006903257017     1.007825032230
         H           -0.786837245241     2.249780295142     1.797903257017     1.007825032230
         H           -1.945817245241     2.738010295142    -0.759076742983     1.007825032230
         H           -0.830037245241     3.355660295142     0.382783257017     1.007825032230

  Running in c1 symmetry.

  Rotational constants: A =      0.26834  B =      0.03321  C =      0.03075 [cm^-1]
  Rotational constants: A =   8044.69263  B =    995.55883  C =    921.97405 [MHz]
  Nuclear repulsion =  174.485902109185986

  Charge       = 0
  Multiplicity = 1
  Electrons    = 44
  Nalpha       = 22
  Nbeta        = 22

  ==> Algorithm <==

  SCF Algorithm Type is PK.
  DIIS enabled.
  MOM disabled.
  Fractional occupation disabled.
  Guess Type is SAD.
  Energy threshold   = 1.00e-06
  Density threshold  = 1.00e-10
  Integral threshold = 0.00e+00

  ==> Primary Basis <==

  Basis Set: CC-PVDZ
    Blend: CC-PVDZ
    Number of shells: 72
    Number of basis function: 140
    Number of Cartesian functions: 145
    Spherical Harmonics?: true
    Max angular momentum: 2

  ==> Pre-Iterations <==

   -------------------------------------------------------
    Irrep   Nso     Nmo     Nalpha   Nbeta   Ndocc  Nsocc
   -------------------------------------------------------
     A        140     140       0       0       0       0
   -------------------------------------------------------
    Total     140     140      22      22      22       0
   -------------------------------------------------------

  ==> Integral Setup <==

  Using integral reordering PK algorithm.
  Sizing the integral batches needed.
  Building batch lookup table.
   Calculation information:
      Number of atoms:                  19
      Number of AO shells:              72
      Number of primitives:            180
      Number of atomic orbitals:       145
      Number of basis functions:       140

      Integral cutoff                 1.00e-12
      Number of threads:                 1

	Batch   1 pq = [       0,    9405] index = [             0,44231715] size =     44231715
	Batch   2 pq = [    9405,    9870] index = [      44231715,48713385] size =      4481670
  Task number: 5
  Buffer size: 11059200
  Buffer per thread: 2
  We computed 2674450 shell quartets total.
  Whereas there are 3454506 unique shell quartets.

  ==> DiskJK: Disk-Based J/K Matrices <==

    J tasked:                  Yes
    K tasked:                  Yes
    wK tasked:                  No
    Memory [MiB]:              375
    Schwarz Cutoff:          1E-12

    OpenMP threads:              1

  Minimum eigenvalue in the overlap matrix is 5.3623580242E-03.
  Using Symmetric Orthogonalization.

  SCF Guess: Superposition of Atomic Densities via on-the-fly atomic UHF.

  ==> Iterations <==

                        Total Energy        Delta E     RMS |[F,P]|

   @RHF iter SAD:  -196.34582069075898   -1.96346e+02   0.00000e+00
   @RHF iter   1:  -197.30075066539081   -9.54930e-01   3.75115e-03 DIIS
   @RHF iter   2:  -197.45637097672835   -1.55620e-01   1.61489e-03 DIIS
   @RHF iter   3:  -197.48390940225300   -2.75384e-02   3.23751e-04 DIIS
   @RHF iter   4:  -197.48606782284878   -2.15842e-03   4.65207e-05 DIIS
   @RHF iter   5:  -197.48610524267110   -3.74198e-05   1.45063e-05 DIIS
   @RHF iter   6:  -197.48610844236686   -3.19970e-06   2.67207e-06 DIIS
   @RHF iter   7:  -197.48610856739398   -1.25027e-07   4.44622e-07 DIIS
   @RHF iter   8:  -197.48610857171687   -4.32289e-09   8.42539e-08 DIIS
   @RHF iter   9:  -197.48610857188930   -1.72435e-10   2.47329e-08 DIIS
   @RHF iter  10:  -197.48610857190349   -1.41824e-11   7.40512e-09 DIIS
   @RHF iter  11:  -197.48610857190320    2.84217e-13   1.57625e-09 DIIS
   @RHF iter  12:  -197.48610857190306    1.42109e-13   3.06313e-10 DIIS
   @RHF iter  13:  -197.48610857190405   -9.94760e-13   5.57615e-11 DIIS
  Energy and wave function converged.

  ==> Post-Iterations <==

    Orbital Energies [Eh]
    ---------------------

    Doubly Occupied:

       1A    -11.221139     2A    -11.220147     3A    -11.219961
       4A    -11.215180     5A    -11.214621     6A     -1.054855
       7A     -1.011709     8A     -0.908125     9A     -0.842492
      10A     -0.803094    11A     -0.631232    12A     -0.605149
      13A     -0.595929    14A     -0.593045    15A     -0.537421
      16A     -0.506416    17A     -0.502489    18A     -0.491903
      19A     -0.488056    20A     -0.480163    21A     -0.474152
      22A     -0.450249

    Virtual:

      23A      0.176563    24A      0.194653    25A      0.217474
      26A      0.220933    27A      0.230737    28A      0.252444
      29A      0.257947    30A      0.262807    31A      0.278268
      32A      0.286768    33A      0.290464    34A      0.295751
      35A      0.336013    36A      0.342163    37A      0.365166
      38A      0.392637    39A      0.418322    40A      0.565603
      41A      0.577831    42A      0.587989    43A      0.596908
      44A      0.603321    45A      0.634665    46A      0.648170
      47A      0.683673    48A      0.698708    49A      0.738833
      50A      0.803366    51A      0.829076    52A      0.837470
      53A      0.852073    54A      0.861715    55A      0.887691
      56A      0.891191    57A      0.894958    58A      0.898134
      59A      0.903021    60A      0.906464    61A      0.909460
      62A      0.916138    63A      0.920418    64A      0.938546
      65A      0.954911    66A      0.963794    67A      0.976430
      68A      0.991472    69A      1.092160    70A      1.124956
      71A      1.140476    72A      1.155015    73A      1.220354
      74A      1.232780    75A      1.381267    76A      1.442036
      77A      1.454727    78A      1.466483    79A      1.475643
      80A      1.572353    81A      1.600305    82A      1.629562
      83A      1.635932    84A      1.686120    85A      1.695340
      86A      1.745680    87A      1.755101    88A      1.804506
      89A      1.848847    90A      1.851309    91A      1.875454
      92A      1.880240    93A      1.894559    94A      1.902492
      95A      1.915752    96A      1.927696    97A      1.936522
      98A      1.938268    99A      1.942911   100A      1.946108
     101A      1.952754   102A      1.978252   103A      1.998123
     104A      2.004233   105A      2.017747   106A      2.058408
     107A      2.081413   108A      2.109703   109A      2.115446
     110A      2.127784   111A      2.161861   112A      2.241295
     113A      2.296908   114A      2.309640   115A      2.338536
     116A      2.341012   117A      2.425755   118A      2.439293
     119A      2.458014   120A      2.473053   121A      2.503472
     122A      2.541650   123A      2.545673   124A      2.570135
     125A      2.635141   126A      2.672743   127A      2.753642
     128A      2.760743   129A      2.773248   130A      2.785544
     131A      2.787663   132A      2.844955   133A      2.855407
     134A      2.858590   135A      2.883710   136A      2.932048
     137A      2.936706   138A      2.942792   139A      2.949039
     140A      3.063053

    Final Occupation by Irrep:
              A
    DOCC [    22 ]

  @RHF Final Energy:  -197.48610857190405

   => Energetics <=

    Nuclear Repulsion Energy =            174.4859021091859859
    One-Electron Energy =                -609.8089658022130379
    Two-Electron Energy =                 237.8369551211229975
    Total Energy =                       -197.4861085719040545

Computation Completed

Properties will be evaluated at   0.000000,   0.000000,   0.000000 [a0]

Properties computed using the SCF density matrix

  Nuclear Dipole Moment: [e a0]
     X:     0.3146      Y:    -0.8472      Z:     0.1952

  Electronic Dipole Moment: [e a0]
     X:    -0.2845      Y:     0.8051      Z:    -0.1950

  Dipole Moment: [e a0]
     X:     0.0301      Y:    -0.0421      Z:     0.0002     Total:     0.0518

  Dipole Moment: [D]
     X:     0.0766      Y:    -0.1071      Z:     0.0004     Total:     0.1316

*** tstop() called on ds3 at Mon Apr 27 19:50:15 2020
Module time:
	user time   =      13.01 seconds =       0.22 minutes
	system time =       5.70 seconds =       0.09 minutes
	total time  =         18 seconds =       0.30 minutes
Total time:
	user time   =      13.01 seconds =       0.22 minutes
	system time =       5.70 seconds =       0.09 minutes
	total time  =         18 seconds =       0.30 minutes
                                     G D M A

                                 by Anthony Stone

                           version 2.2.06, 22 June 2011

               Distributed Multipoles from Gaussian wavefunctions

Starting at 19:50:15 on 27 Apr 2020

Using SCF density matrix from file ./SSI/SSI-159ILE-203PRO-1-dimer.test.9769.fchk

                         Distributed Multipole Analysis

Standard DMA

Positions and radii in angstrom
Multipole moments in atomic units, ea_0^k for rank k

C          x =  1.202163  y = -1.953220  z = -0.080097 angstrom
           Maximum rank =  0   Radius =  0.650 angstrom
                   Q00  =  -0.242868

C          x =  1.468163  y = -3.471220  z =  0.147903 angstrom
           Maximum rank =  0   Radius =  0.650 angstrom
                   Q00  =  -0.247910

H          x =  0.165163  y = -1.798220  z = -0.375097 angstrom
           Maximum rank =  0   Radius =  0.325 angstrom
                   Q00  =   0.079970

H          x =  1.388163  y = -1.400220  z =  0.837903 angstrom
           Maximum rank =  0   Radius =  0.325 angstrom
                   Q00  =   0.081807

H          x =  1.857163  y = -1.572220  z = -0.863097 angstrom
           Maximum rank =  0   Radius =  0.325 angstrom
                   Q00  =   0.084384

H          x =  0.816163  y = -3.842220  z =  0.939903 angstrom
           Maximum rank =  0   Radius =  0.325 angstrom
                   Q00  =   0.081248

H          x =  2.508163  y = -3.609220  z =  0.454903 angstrom
           Maximum rank =  0   Radius =  0.325 angstrom
                   Q00  =   0.080859

H          x =  1.293673  y = -4.083000  z = -0.749467 angstrom
           Maximum rank =  0   Radius =  0.325 angstrom
                   Q00  =   0.083628

C          x = -0.471837  y =  1.363780  z = -0.217097 angstrom
           Maximum rank =  0   Radius =  0.650 angstrom
                   Q00  =  -0.108800

C          x = -1.909837  y =  1.639780  z = -0.708097 angstrom
           Maximum rank =  0   Radius =  0.650 angstrom
                   Q00  =  -0.219975

C          x = -0.316837  y =  2.496780  z =  0.839903 angstrom
           Maximum rank =  0   Radius =  0.650 angstrom
                   Q00  =  -0.234837

H          x =  0.260163  y =  1.478780  z = -1.019097 angstrom
           Maximum rank =  0   Radius =  0.325 angstrom
                   Q00  =   0.061159

H          x = -0.361837  y =  0.377780  z =  0.229903 angstrom
           Maximum rank =  0   Radius =  0.325 angstrom
                   Q00  =   0.069633

H          x = -2.109837  y =  1.199780  z = -1.683097 angstrom
           Maximum rank =  0   Radius =  0.325 angstrom
                   Q00  =   0.080607

H          x = -2.653837  y =  1.277780  z =  0.006903 angstrom
           Maximum rank =  0   Radius =  0.325 angstrom
                   Q00  =   0.081406

H          x =  0.735163  y =  2.723780  z =  1.006903 angstrom
           Maximum rank =  0   Radius =  0.325 angstrom
                   Q00  =   0.080514

H          x = -0.786837  y =  2.249780  z =  1.797903 angstrom
           Maximum rank =  0   Radius =  0.325 angstrom
                   Q00  =   0.083581

H          x = -1.945817  y =  2.738010  z = -0.759077 angstrom
           Maximum rank =  0   Radius =  0.325 angstrom
                   Q00  =   0.051784

H          x = -0.830037  y =  3.355660  z =  0.382783 angstrom
           Maximum rank =  0   Radius =  0.325 angstrom
                   Q00  =   0.053809

Total multipoles referred to origin at
           x =   0.000000,  y =    0.000000,  z =    0.000000 angstrom
                   Q00  =  -0.000000

Finished at 19:50:15 on 27 Apr 2020

  DMA results are available in the Python driver through the
	  variable('DMA DISTRIBUTED MULTIPOLES')
  and
	  variable('DMA TOTAL MULTIPOLES')
  commands.

    Psi4 stopped on: Monday, 27 April 2020 07:50PM
    Psi4 wall time for execution: 0:00:18.43

*** Psi4 exiting successfully. Buy a developer a beer!
