                               Psi4 1.3.2 release

  ==> Input File <==

--------------------------------------------------------------------------
import numpy as np
set {scf_type pk
basis cc-pvdz
d_convergence 10
gdma_switch   0
gdma_limit    0
gdma_origin   [ 0.0,  0.0,  0.0 ]
}
molecule test {
    units Angstrom
    0 1
    --
    0 1
    C               -2.754770278574594    -1.766106557162002    -1.532989940640735
    C               -1.887770278574594    -0.616106557162002    -1.074989940640735
    O               -1.760770278574594    -0.474106557162002     0.154010059359265
    O               -1.321770278574594     0.119893442837998    -1.917989940640735
    H               -3.097770278574595    -1.588106557162003    -2.548989940640735
    H               -3.634770278574595    -1.819106557162002    -0.887989940640735
    H               -2.217877278574594    -2.725046557162003    -1.486329940640735
    C                1.079229721425406    -0.598106557162002     2.448010059359266
    C                1.649229721425406     0.821893442837998     0.483010059359265
    N                0.888229721425406    -0.076106557162002     1.086010059359265
    N                1.334229721425406     1.220893442837998    -0.732989940640735
    N                2.723229721425406     1.310893442837998     1.069010059359265
    H                0.013229721425406    -0.320106557162002     0.623010059359265
    H                0.478229721425406     0.000893442837998     3.135010059359265
    H                2.122229721425406    -0.540106557162002     2.767010059359265
    H                0.471229721425406     0.875893442837998    -1.150989940640735
    H                1.857229721425406     1.956893442837998    -1.175989940640735
    H                2.956229721425405     1.017893442837998     2.003010059359265
    H                3.304229721425405     1.985893442837998     0.598010059359265
    H                0.743463721425406    -1.643446557162002     2.515310059359265

}
e, wfn = energy('scf', return_wfn=True)
gdma(wfn)
dmavals = variable('DMA DISTRIBUTED MULTIPOLES')
charges = np.array(dmavals)
print(charges)
np.save('SSI-124ASP-134ARG-1-dimer.npy', np.array(charges))--------------------------------------------------------------------------

*** tstart() called on ds3
*** at Tue Apr 28 15:34:27 2020

   => Loading Basis Set <=

    Name: CC-PVDZ
    Role: ORBITAL
    Keyword: BASIS
    atoms 1-2, 8-9   entry C          line   138 file /theoryfs2/ds/metcalf/miniconda2/envs/tf2gpu/share/psi4/basis/cc-pvdz.gbs
    atoms 3-4        entry O          line   198 file /theoryfs2/ds/metcalf/miniconda2/envs/tf2gpu/share/psi4/basis/cc-pvdz.gbs
    atoms 5-7, 13-20 entry H          line    22 file /theoryfs2/ds/metcalf/miniconda2/envs/tf2gpu/share/psi4/basis/cc-pvdz.gbs
    atoms 10-12      entry N          line   168 file /theoryfs2/ds/metcalf/miniconda2/envs/tf2gpu/share/psi4/basis/cc-pvdz.gbs

         ---------------------------------------------------------
                                   SCF
               by Justin Turney, Rob Parrish, Andy Simmonett
                          and Daniel G. A. Smith
                              RHF Reference
                        1 Threads,    500 MiB Core
         ---------------------------------------------------------

  ==> Geometry <==

    Molecular point group: c1
    Full point group: C1

    Geometry (in Angstrom), charge = 0, multiplicity = 1:

       Center              X                  Y                   Z               Mass
    ------------   -----------------  -----------------  -----------------  -----------------
         C           -2.754770278575    -1.766106557162    -1.532989940641    12.000000000000
         C           -1.887770278575    -0.616106557162    -1.074989940641    12.000000000000
         O           -1.760770278575    -0.474106557162     0.154010059359    15.994914619570
         O           -1.321770278575     0.119893442838    -1.917989940641    15.994914619570
         H           -3.097770278575    -1.588106557162    -2.548989940641     1.007825032230
         H           -3.634770278575    -1.819106557162    -0.887989940641     1.007825032230
         H           -2.217877278575    -2.725046557162    -1.486329940641     1.007825032230
         C            1.079229721425    -0.598106557162     2.448010059359    12.000000000000
         C            1.649229721425     0.821893442838     0.483010059359    12.000000000000
         N            0.888229721425    -0.076106557162     1.086010059359    14.003074004430
         N            1.334229721425     1.220893442838    -0.732989940641    14.003074004430
         N            2.723229721425     1.310893442838     1.069010059359    14.003074004430
         H            0.013229721425    -0.320106557162     0.623010059359     1.007825032230
         H            0.478229721425     0.000893442838     3.135010059359     1.007825032230
         H            2.122229721425    -0.540106557162     2.767010059359     1.007825032230
         H            0.471229721425     0.875893442838    -1.150989940641     1.007825032230
         H            1.857229721425     1.956893442838    -1.175989940641     1.007825032230
         H            2.956229721425     1.017893442838     2.003010059359     1.007825032230
         H            3.304229721425     1.985893442838     0.598010059359     1.007825032230
         H            0.743463721425    -1.643446557162     2.515310059359     1.007825032230

  Running in c1 symmetry.

  Rotational constants: A =      0.09345  B =      0.02500  C =      0.02037 [cm^-1]
  Rotational constants: A =   2801.55758  B =    749.44667  C =    610.79039 [MHz]
  Nuclear repulsion =  464.035972672605681

  Charge       = 0
  Multiplicity = 1
  Electrons    = 72
  Nalpha       = 36
  Nbeta        = 36

  ==> Algorithm <==

  SCF Algorithm Type is PK.
  DIIS enabled.
  MOM disabled.
  Fractional occupation disabled.
  Guess Type is SAD.
  Energy threshold   = 1.00e-06
  Density threshold  = 1.00e-10
  Integral threshold = 0.00e+00

  ==> Primary Basis <==

  Basis Set: CC-PVDZ
    Blend: CC-PVDZ
    Number of shells: 87
    Number of basis function: 181
    Number of Cartesian functions: 190
    Spherical Harmonics?: true
    Max angular momentum: 2

  ==> Pre-Iterations <==

   -------------------------------------------------------
    Irrep   Nso     Nmo     Nalpha   Nbeta   Ndocc  Nsocc
   -------------------------------------------------------
     A        181     181       0       0       0       0
   -------------------------------------------------------
    Total     181     181      36      36      36       0
   -------------------------------------------------------

  ==> Integral Setup <==

  Using integral reordering PK algorithm.
  Sizing the integral batches needed.
  Building batch lookup table.
   Calculation information:
      Number of atoms:                  20
      Number of AO shells:              87
      Number of primitives:            253
      Number of atomic orbitals:       190
      Number of basis functions:       181

      Integral cutoff                 1.00e-12
      Number of threads:                 1

	Batch   1 pq = [       0,    9405] index = [             0,44231715] size =     44231715
	Batch   2 pq = [    9405,   13301] index = [      44231715,88464951] size =     44233236
	Batch   3 pq = [   13301,   16471] index = [      88464951,135655156] size =     47190205
  Task number: 13
  Buffer size: 11059200
  Buffer per thread: 2
  We computed 5978254 shell quartets total.
  Whereas there are 7328706 unique shell quartets.

  ==> DiskJK: Disk-Based J/K Matrices <==

    J tasked:                  Yes
    K tasked:                  Yes
    wK tasked:                  No
    Memory [MiB]:              375
    Schwarz Cutoff:          1E-12

    OpenMP threads:              1

  Minimum eigenvalue in the overlap matrix is 3.7812923693E-03.
  Using Symmetric Orthogonalization.

  SCF Guess: Superposition of Atomic Densities via on-the-fly atomic UHF.

  ==> Iterations <==

                        Total Energy        Delta E     RMS |[F,P]|

   @RHF iter SAD:  -469.74946293988256   -4.69749e+02   0.00000e+00
   @RHF iter   1:  -470.71926221554975   -9.69799e-01   4.19928e-03 DIIS
   @RHF iter   2:  -470.94177256820518   -2.22510e-01   2.16477e-03 DIIS
   @RHF iter   3:  -470.99752452076399   -5.57520e-02   3.87096e-04 DIIS
   @RHF iter   4:  -471.00064184901555   -3.11733e-03   1.30757e-04 DIIS
   @RHF iter   5:  -471.00099308818949   -3.51239e-04   2.42196e-05 DIIS
   @RHF iter   6:  -471.00100961170523   -1.65235e-05   9.68268e-06 DIIS
   @RHF iter   7:  -471.00101142673589   -1.81503e-06   2.88328e-06 DIIS
   @RHF iter   8:  -471.00101164749628   -2.20760e-07   9.84349e-07 DIIS
   @RHF iter   9:  -471.00101167246783   -2.49715e-08   2.84104e-07 DIIS
   @RHF iter  10:  -471.00101167508637   -2.61855e-09   7.58020e-08 DIIS
   @RHF iter  11:  -471.00101167538480   -2.98428e-10   2.67200e-08 DIIS
   @RHF iter  12:  -471.00101167543090   -4.61000e-11   1.24184e-08 DIIS
   @RHF iter  13:  -471.00101167543710   -6.19593e-12   4.16607e-09 DIIS
   @RHF iter  14:  -471.00101167543818   -1.08002e-12   1.13050e-09 DIIS
   @RHF iter  15:  -471.00101167543858   -3.97904e-13   4.08704e-10 DIIS
   @RHF iter  16:  -471.00101167544057   -1.98952e-12   1.26867e-10 DIIS
   @RHF iter  17:  -471.00101167543784    2.72848e-12   5.78159e-11 DIIS
  Energy and wave function converged.

  ==> Post-Iterations <==

    Orbital Energies [Eh]
    ---------------------

    Doubly Occupied:

       1A    -20.422087     2A    -20.421532     3A    -15.651667
       4A    -15.616889     5A    -15.612592     6A    -11.431360
       7A    -11.307518     8A    -11.267894     9A    -11.168413
      10A     -1.391321    11A     -1.313974    12A     -1.247765
      13A     -1.233296    14A     -1.198947    15A     -0.995801
      16A     -0.923073    17A     -0.886242    18A     -0.824871
      19A     -0.786913    20A     -0.711292    21A     -0.697060
      22A     -0.672985    23A     -0.648227    24A     -0.635450
      25A     -0.603006    26A     -0.588451    27A     -0.556556
      28A     -0.547988    29A     -0.540487    30A     -0.479124
      31A     -0.471487    32A     -0.451898    33A     -0.421410
      34A     -0.339841    35A     -0.333050    36A     -0.327511

    Virtual:

      37A      0.120846    38A      0.153663    39A      0.179743
      40A      0.203627    41A      0.207709    42A      0.239523
      43A      0.249836    44A      0.258432    45A      0.274317
      46A      0.301922    47A      0.316069    48A      0.333542
      49A      0.353747    50A      0.401015    51A      0.423256
      52A      0.454648    53A      0.482311    54A      0.489602
      55A      0.570525    56A      0.586453    57A      0.608177
      58A      0.620001    59A      0.664541    60A      0.668978
      61A      0.682499    62A      0.694480    63A      0.710402
      64A      0.711576    65A      0.725505    66A      0.743821
      67A      0.798882    68A      0.815493    69A      0.825803
      70A      0.841590    71A      0.852626    72A      0.858960
      73A      0.896237    74A      0.908517    75A      0.914574
      76A      0.919063    77A      0.933285    78A      0.945820
      79A      0.951198    80A      0.975098    81A      0.979520
      82A      1.000317    83A      1.038599    84A      1.070024
      85A      1.086648    86A      1.097353    87A      1.114092
      88A      1.147257    89A      1.202024    90A      1.219640
      91A      1.255187    92A      1.268839    93A      1.287982
      94A      1.301073    95A      1.332171    96A      1.343619
      97A      1.369200    98A      1.373587    99A      1.406397
     100A      1.447539   101A      1.449656   102A      1.486647
     103A      1.496679   104A      1.523864   105A      1.552253
     106A      1.602647   107A      1.604756   108A      1.623932
     109A      1.647065   110A      1.691046   111A      1.702040
     112A      1.704901   113A      1.728936   114A      1.751170
     115A      1.794811   116A      1.814433   117A      1.846249
     118A      1.877365   119A      1.891836   120A      1.901908
     121A      1.908858   122A      1.914907   123A      1.937742
     124A      1.946466   125A      1.960617   126A      1.971688
     127A      2.000051   128A      2.021822   129A      2.024255
     130A      2.059098   131A      2.084767   132A      2.147258
     133A      2.153880   134A      2.170776   135A      2.213735
     136A      2.233753   137A      2.267970   138A      2.275770
     139A      2.302570   140A      2.313320   141A      2.340196
     142A      2.393197   143A      2.407186   144A      2.409553
     145A      2.469369   146A      2.485159   147A      2.520448
     148A      2.540879   149A      2.564452   150A      2.581146
     151A      2.584570   152A      2.625250   153A      2.656980
     154A      2.706663   155A      2.731806   156A      2.740846
     157A      2.771507   158A      2.801662   159A      2.846250
     160A      2.876847   161A      2.886768   162A      2.898403
     163A      2.944768   164A      2.978830   165A      2.990884
     166A      3.061315   167A      3.099175   168A      3.128472
     169A      3.149488   170A      3.199787   171A      3.231977
     172A      3.281618   173A      3.341451   174A      3.486811
     175A      3.638454   176A      3.680488   177A      3.748007
     178A      3.800643   179A      3.923302   180A      3.948778
     181A      4.062976

    Final Occupation by Irrep:
              A
    DOCC [    36 ]

  @RHF Final Energy:  -471.00101167543784

   => Energetics <=

    Nuclear Repulsion Energy =            464.0359726726056806
    One-Electron Energy =               -1564.6180151706837478
    Two-Electron Energy =                 629.5810308226400593
    Total Energy =                       -471.0010116754378942

Computation Completed

Properties will be evaluated at   0.000000,   0.000000,   0.000000 [a0]

Properties computed using the SCF density matrix

  Nuclear Dipole Moment: [e a0]
     X:     2.7792      Y:    -2.6323      Z:     4.1039

  Electronic Dipole Moment: [e a0]
     X:     1.5110      Y:     3.7344      Z:    -1.9717

  Dipole Moment: [e a0]
     X:     4.2901      Y:     1.1021      Z:     2.1322     Total:     4.9159

  Dipole Moment: [D]
     X:    10.9044      Y:     2.8012      Z:     5.4194     Total:    12.4949

*** tstop() called on ds3 at Tue Apr 28 15:36:17 2020
Module time:
	user time   =      44.80 seconds =       0.75 minutes
	system time =      18.44 seconds =       0.31 minutes
	total time  =        110 seconds =       1.83 minutes
Total time:
	user time   =      44.80 seconds =       0.75 minutes
	system time =      18.44 seconds =       0.31 minutes
	total time  =        110 seconds =       1.83 minutes
                                     G D M A

                                 by Anthony Stone

                           version 2.2.06, 22 June 2011

               Distributed Multipoles from Gaussian wavefunctions

Starting at 15:36:17 on 28 Apr 2020

Using SCF density matrix from file ./SSI/SSI-124ASP-134ARG-1-dimer.test.2788.fchk

                         Distributed Multipole Analysis

Standard DMA

Positions and radii in angstrom
Multipole moments in atomic units, ea_0^k for rank k

C          x = -2.754770  y = -1.766107  z = -1.532990 angstrom
           Maximum rank =  0   Radius =  0.650 angstrom
                   Q00  =  -0.267224

C          x = -1.887770  y = -0.616107  z = -1.074990 angstrom
           Maximum rank =  0   Radius =  0.650 angstrom
                   Q00  =   0.905131

O          x = -1.760770  y = -0.474107  z =  0.154010 angstrom
           Maximum rank =  0   Radius =  0.650 angstrom
                   Q00  =  -0.943385

O          x = -1.321770  y =  0.119893  z = -1.917990 angstrom
           Maximum rank =  0   Radius =  0.650 angstrom
                   Q00  =  -0.917539

H          x = -3.097770  y = -1.588107  z = -2.548990 angstrom
           Maximum rank =  0   Radius =  0.325 angstrom
                   Q00  =   0.082261

H          x = -3.634770  y = -1.819107  z = -0.887990 angstrom
           Maximum rank =  0   Radius =  0.325 angstrom
                   Q00  =   0.088514

H          x = -2.217877  y = -2.725047  z = -1.486330 angstrom
           Maximum rank =  0   Radius =  0.325 angstrom
                   Q00  =   0.093971

C          x =  1.079230  y = -0.598107  z =  2.448010 angstrom
           Maximum rank =  0   Radius =  0.650 angstrom
                   Q00  =  -0.096229

C          x =  1.649230  y =  0.821893  z =  0.483010 angstrom
           Maximum rank =  0   Radius =  0.650 angstrom
                   Q00  =   1.063788

N          x =  0.888230  y = -0.076107  z =  1.086010 angstrom
           Maximum rank =  0   Radius =  0.650 angstrom
                   Q00  =  -0.519648

N          x =  1.334230  y =  1.220893  z = -0.732990 angstrom
           Maximum rank =  0   Radius =  0.650 angstrom
                   Q00  =  -0.575966

N          x =  2.723230  y =  1.310893  z =  1.069010 angstrom
           Maximum rank =  0   Radius =  0.650 angstrom
                   Q00  =  -0.583910

H          x =  0.013230  y = -0.320107  z =  0.623010 angstrom
           Maximum rank =  0   Radius =  0.325 angstrom
                   Q00  =   0.328755

H          x =  0.478230  y =  0.000893  z =  3.135010 angstrom
           Maximum rank =  0   Radius =  0.325 angstrom
                   Q00  =   0.113371

H          x =  2.122230  y = -0.540107  z =  2.767010 angstrom
           Maximum rank =  0   Radius =  0.325 angstrom
                   Q00  =   0.074495

H          x =  0.471230  y =  0.875893  z = -1.150990 angstrom
           Maximum rank =  0   Radius =  0.325 angstrom
                   Q00  =   0.296850

H          x =  1.857230  y =  1.956893  z = -1.175990 angstrom
           Maximum rank =  0   Radius =  0.325 angstrom
                   Q00  =   0.227239

H          x =  2.956230  y =  1.017893  z =  2.003010 angstrom
           Maximum rank =  0   Radius =  0.325 angstrom
                   Q00  =   0.242991

H          x =  3.304230  y =  1.985893  z =  0.598010 angstrom
           Maximum rank =  0   Radius =  0.325 angstrom
                   Q00  =   0.240620

H          x =  0.743464  y = -1.643447  z =  2.515310 angstrom
           Maximum rank =  0   Radius =  0.325 angstrom
                   Q00  =   0.145914

Total multipoles referred to origin at
           x =   0.000000,  y =    0.000000,  z =    0.000000 angstrom
                   Q00  =  -0.000000

Finished at 15:36:17 on 28 Apr 2020

  DMA results are available in the Python driver through the
	  variable('DMA DISTRIBUTED MULTIPOLES')
  and
	  variable('DMA TOTAL MULTIPOLES')
  commands.

    Psi4 stopped on: Tuesday, 28 April 2020 03:36PM
    Psi4 wall time for execution: 0:01:50.40

*** Psi4 exiting successfully. Buy a developer a beer!
