                               Psi4 1.3.2 release

  ==> Input File <==

--------------------------------------------------------------------------
import numpy as np
set {scf_type pk
basis cc-pvdz
d_convergence 10
gdma_switch   0
gdma_limit    0
gdma_origin   [ 0.0,  0.0,  0.0 ]
}
molecule test {
    units Angstrom
    -1 1
    --
    -1 1
    C                0.526468532770815    -3.030010887375768    -1.627722966614029
    C                0.249468532770815    -1.899010887375769    -0.656722966614029
    O               -0.892531467229185    -1.596010887375768    -0.338722966614029
    N                1.283468532770815    -1.275010887375768    -0.160722966614029
    H                1.094468532770815    -0.520010887375768     0.494277033385971
    H                2.217468532770816    -1.558010887375769    -0.396722966614029
    H                0.511468532770815    -3.958010887375769    -1.055722966614029
    H                1.525468532770815    -2.930010887375769    -2.053722966614029
    H               -0.220947467229185    -3.106190887375769    -2.431194966614029
    C                0.402468532770815     2.432989112624231    -0.426722966614029
    C               -0.362531467229185     1.888989112624232     0.747277033385971
    O                0.252468532770815     1.155989112624232     1.583277033385971
    O               -1.538531467229185     2.284989112624232     0.842277033385971
    H                1.351468532770815     1.908989112624232    -0.386722966614029
    H                0.606468532770815     3.490989112624232    -0.251722966614029
    H               -0.057424467229185     2.334697112624232    -1.421125966614029

}
e, wfn = energy('scf', return_wfn=True)
gdma(wfn)
dmavals = variable('DMA DISTRIBUTED MULTIPOLES')
charges = np.array(dmavals)
print(charges)
np.save('SSI-004GLN-056GLU-1-dimer.npy', np.array(charges))--------------------------------------------------------------------------

*** tstart() called on ds3
*** at Sun Apr 26 22:20:21 2020

   => Loading Basis Set <=

    Name: CC-PVDZ
    Role: ORBITAL
    Keyword: BASIS
    atoms 1-2, 10-11 entry C          line   138 file /theoryfs2/ds/metcalf/miniconda2/envs/tf2gpu/share/psi4/basis/cc-pvdz.gbs
    atoms 3, 12-13   entry O          line   198 file /theoryfs2/ds/metcalf/miniconda2/envs/tf2gpu/share/psi4/basis/cc-pvdz.gbs
    atoms 4          entry N          line   168 file /theoryfs2/ds/metcalf/miniconda2/envs/tf2gpu/share/psi4/basis/cc-pvdz.gbs
    atoms 5-9, 14-16 entry H          line    22 file /theoryfs2/ds/metcalf/miniconda2/envs/tf2gpu/share/psi4/basis/cc-pvdz.gbs

         ---------------------------------------------------------
                                   SCF
               by Justin Turney, Rob Parrish, Andy Simmonett
                          and Daniel G. A. Smith
                              RHF Reference
                        1 Threads,    500 MiB Core
         ---------------------------------------------------------

  ==> Geometry <==

    Molecular point group: c1
    Full point group: C1

    Geometry (in Angstrom), charge = -1, multiplicity = 1:

       Center              X                  Y                   Z               Mass
    ------------   -----------------  -----------------  -----------------  -----------------
         C            0.526468532771    -3.030010887376    -1.627722966614    12.000000000000
         C            0.249468532771    -1.899010887376    -0.656722966614    12.000000000000
         O           -0.892531467229    -1.596010887376    -0.338722966614    15.994914619570
         N            1.283468532771    -1.275010887376    -0.160722966614    14.003074004430
         H            1.094468532771    -0.520010887376     0.494277033386     1.007825032230
         H            2.217468532771    -1.558010887376    -0.396722966614     1.007825032230
         H            0.511468532771    -3.958010887376    -1.055722966614     1.007825032230
         H            1.525468532771    -2.930010887376    -2.053722966614     1.007825032230
         H           -0.220947467229    -3.106190887376    -2.431194966614     1.007825032230
         C            0.402468532771     2.432989112624    -0.426722966614    12.000000000000
         C           -0.362531467229     1.888989112624     0.747277033386    12.000000000000
         O            0.252468532771     1.155989112624     1.583277033386    15.994914619570
         O           -1.538531467229     2.284989112624     0.842277033386    15.994914619570
         H            1.351468532771     1.908989112624    -0.386722966614     1.007825032230
         H            0.606468532771     3.490989112624    -0.251722966614     1.007825032230
         H           -0.057424467229     2.334697112624    -1.421125966614     1.007825032230

  Running in c1 symmetry.

  Rotational constants: A =      0.12872  B =      0.02711  C =      0.02598 [cm^-1]
  Rotational constants: A =   3858.97792  B =    812.60187  C =    778.99137 [MHz]
  Nuclear repulsion =  357.706704354247734

  Charge       = -1
  Multiplicity = 1
  Electrons    = 64
  Nalpha       = 32
  Nbeta        = 32

  ==> Algorithm <==

  SCF Algorithm Type is PK.
  DIIS enabled.
  MOM disabled.
  Fractional occupation disabled.
  Guess Type is SAD.
  Energy threshold   = 1.00e-06
  Density threshold  = 1.00e-10
  Integral threshold = 0.00e+00

  ==> Primary Basis <==

  Basis Set: CC-PVDZ
    Blend: CC-PVDZ
    Number of shells: 72
    Number of basis function: 152
    Number of Cartesian functions: 160
    Spherical Harmonics?: true
    Max angular momentum: 2

  ==> Pre-Iterations <==

   -------------------------------------------------------
    Irrep   Nso     Nmo     Nalpha   Nbeta   Ndocc  Nsocc
   -------------------------------------------------------
     A        152     152       0       0       0       0
   -------------------------------------------------------
    Total     152     152      32      32      32       0
   -------------------------------------------------------

  ==> Integral Setup <==

  Using integral reordering PK algorithm.
  Sizing the integral batches needed.
  Building batch lookup table.
   Calculation information:
      Number of atoms:                  16
      Number of AO shells:              72
      Number of primitives:            216
      Number of atomic orbitals:       160
      Number of basis functions:       152

      Integral cutoff                 1.00e-12
      Number of threads:                 1

	Batch   1 pq = [       0,    9405] index = [             0,44231715] size =     44231715
	Batch   2 pq = [    9405,   11628] index = [      44231715,67611006] size =     23379291
  Task number: 7
  Buffer size: 11059200
  Buffer per thread: 2
  We computed 2815276 shell quartets total.
  Whereas there are 3454506 unique shell quartets.

  ==> DiskJK: Disk-Based J/K Matrices <==

    J tasked:                  Yes
    K tasked:                  Yes
    wK tasked:                  No
    Memory [MiB]:              375
    Schwarz Cutoff:          1E-12

    OpenMP threads:              1

  Minimum eigenvalue in the overlap matrix is 4.4673866296E-03.
  Using Symmetric Orthogonalization.

  SCF Guess: Superposition of Atomic Densities via on-the-fly atomic UHF.

  ==> Iterations <==

                        Total Energy        Delta E     RMS |[F,P]|

   @RHF iter SAD:  -433.52856882400863   -4.33529e+02   0.00000e+00
   @RHF iter   1:  -434.90452605838317   -1.37596e+00   5.50431e-03 DIIS
   @RHF iter   2:  -435.14467920619825   -2.40153e-01   3.31209e-03 DIIS
   @RHF iter   3:  -435.23337655754750   -8.86974e-02   5.12502e-04 DIIS
   @RHF iter   4:  -435.23696315444636   -3.58660e-03   2.00598e-04 DIIS
   @RHF iter   5:  -435.23760224385779   -6.39089e-04   4.28441e-05 DIIS
   @RHF iter   6:  -435.23763761993990   -3.53761e-05   2.16679e-05 DIIS
   @RHF iter   7:  -435.23764609714357   -8.47720e-06   6.49113e-06 DIIS
   @RHF iter   8:  -435.23764756472468   -1.46758e-06   2.64310e-06 DIIS
   @RHF iter   9:  -435.23764778284499   -2.18120e-07   9.55808e-07 DIIS
   @RHF iter  10:  -435.23764780892242   -2.60774e-08   2.31281e-07 DIIS
   @RHF iter  11:  -435.23764781031889   -1.39647e-09   7.27996e-08 DIIS
   @RHF iter  12:  -435.23764781039205   -7.31575e-11   3.13876e-08 DIIS
   @RHF iter  13:  -435.23764781040609   -1.40403e-11   6.82267e-09 DIIS
   @RHF iter  14:  -435.23764781040876   -2.67164e-12   2.32600e-09 DIIS
   @RHF iter  15:  -435.23764781040956   -7.95808e-13   8.59543e-10 DIIS
   @RHF iter  16:  -435.23764781040870    8.52651e-13   3.65815e-10 DIIS
   @RHF iter  17:  -435.23764781040910   -3.97904e-13   1.48790e-10 DIIS
   @RHF iter  18:  -435.23764781040921   -1.13687e-13   5.93641e-11 DIIS
  Energy and wave function converged.

  ==> Post-Iterations <==

    Orbital Energies [Eh]
    ---------------------

    Doubly Occupied:

       1A    -20.368406     2A    -20.268506     3A    -20.258200
       4A    -15.446644     5A    -11.216876     6A    -11.139288
       7A    -11.117458     8A    -11.045210     9A     -1.240109
      10A     -1.145705    11A     -1.085999    12A     -1.039659
      13A     -0.890510    14A     -0.797380    15A     -0.669685
      16A     -0.598022    17A     -0.530997    18A     -0.503048
      19A     -0.500254    20A     -0.454277    21A     -0.441922
      22A     -0.412852    23A     -0.408829    24A     -0.401327
      25A     -0.399561    26A     -0.340825    27A     -0.301101
      28A     -0.277622    29A     -0.266318    30A     -0.186489
      31A     -0.172844    32A     -0.164793

    Virtual:

      33A      0.271655    34A      0.310422    35A      0.324872
      36A      0.351654    37A      0.363806    38A      0.387869
      39A      0.393324    40A      0.424796    41A      0.471631
      42A      0.487377    43A      0.509680    44A      0.579570
      45A      0.590295    46A      0.675588    47A      0.708958
      48A      0.736813    49A      0.745744    50A      0.775804
      51A      0.796613    52A      0.819882    53A      0.842519
      54A      0.871605    55A      0.886688    56A      0.908047
      57A      0.940523    58A      0.960318    59A      0.971406
      60A      0.977168    61A      0.999729    62A      1.019970
      63A      1.034553    64A      1.036036    65A      1.060799
      66A      1.072505    67A      1.081781    68A      1.123901
      69A      1.157064    70A      1.195108    71A      1.210910
      72A      1.222355    73A      1.254191    74A      1.262398
      75A      1.327091    76A      1.347138    77A      1.406741
      78A      1.470063    79A      1.484931    80A      1.508095
      81A      1.519236    82A      1.535381    83A      1.540994
      84A      1.569604    85A      1.584012    86A      1.607206
      87A      1.615615    88A      1.637741    89A      1.706377
      90A      1.721707    91A      1.738219    92A      1.757464
      93A      1.767649    94A      1.839109    95A      1.854830
      96A      1.862280    97A      1.965425    98A      1.984563
      99A      1.988670   100A      2.027451   101A      2.034817
     102A      2.048256   103A      2.078622   104A      2.086093
     105A      2.102422   106A      2.123636   107A      2.127252
     108A      2.175374   109A      2.208225   110A      2.239029
     111A      2.292645   112A      2.316099   113A      2.335274
     114A      2.365407   115A      2.403144   116A      2.421953
     117A      2.458848   118A      2.548987   119A      2.573798
     120A      2.583907   121A      2.601772   122A      2.654975
     123A      2.675698   124A      2.718049   125A      2.737892
     126A      2.746446   127A      2.781554   128A      2.834974
     129A      2.867543   130A      2.907211   131A      2.928972
     132A      2.976017   133A      3.003702   134A      3.011252
     135A      3.128303   136A      3.225814   137A      3.244962
     138A      3.265188   139A      3.271477   140A      3.302369
     141A      3.356816   142A      3.454434   143A      3.606936
     144A      3.642859   145A      3.676855   146A      3.794248
     147A      3.859472   148A      4.014284   149A      4.034433
     150A      4.064005   151A      4.092614   152A      4.177034

    Final Occupation by Irrep:
              A
    DOCC [    32 ]

  @RHF Final Energy:  -435.23764781040921

   => Energetics <=

    Nuclear Repulsion Energy =            357.7067043542477336
    One-Electron Energy =               -1317.7072696805610121
    Two-Electron Energy =                 524.7629175159040642
    Total Energy =                       -435.2376478104092712

Computation Completed

Properties will be evaluated at   0.000000,   0.000000,   0.000000 [a0]

Properties computed using the SCF density matrix

  Nuclear Dipole Moment: [e a0]
     X:     6.5748      Y:    -4.0538      Z:    -7.0230

  Electronic Dipole Moment: [e a0]
     X:    -3.8900      Y:     1.2373      Z:     4.6400

  Dipole Moment: [e a0]
     X:     2.6848      Y:    -2.8165      Z:    -2.3830     Total:     4.5628

  Dipole Moment: [D]
     X:     6.8240      Y:    -7.1588      Z:    -6.0570     Total:    11.5976

*** tstop() called on ds3 at Sun Apr 26 22:20:55 2020
Module time:
	user time   =      23.73 seconds =       0.40 minutes
	system time =      11.45 seconds =       0.19 minutes
	total time  =         34 seconds =       0.57 minutes
Total time:
	user time   =      23.73 seconds =       0.40 minutes
	system time =      11.45 seconds =       0.19 minutes
	total time  =         34 seconds =       0.57 minutes
                                     G D M A

                                 by Anthony Stone

                           version 2.2.06, 22 June 2011

               Distributed Multipoles from Gaussian wavefunctions

Starting at 22:20:55 on 26 Apr 2020

Using SCF density matrix from file ./SSI/SSI-004GLN-056GLU-1-dimer.test.2983.fchk

                         Distributed Multipole Analysis

Standard DMA

Positions and radii in angstrom
Multipole moments in atomic units, ea_0^k for rank k

C          x =  0.526469  y = -3.030011  z = -1.627723 angstrom
           Maximum rank =  0   Radius =  0.650 angstrom
                   Q00  =  -0.265418

C          x =  0.249469  y = -1.899011  z = -0.656723 angstrom
           Maximum rank =  0   Radius =  0.650 angstrom
                   Q00  =   0.821398

O          x = -0.892531  y = -1.596011  z = -0.338723 angstrom
           Maximum rank =  0   Radius =  0.650 angstrom
                   Q00  =  -0.790494

N          x =  1.283469  y = -1.275011  z = -0.160723 angstrom
           Maximum rank =  0   Radius =  0.650 angstrom
                   Q00  =  -0.517167

H          x =  1.094469  y = -0.520011  z =  0.494277 angstrom
           Maximum rank =  0   Radius =  0.325 angstrom
                   Q00  =   0.270902

H          x =  2.217469  y = -1.558011  z = -0.396723 angstrom
           Maximum rank =  0   Radius =  0.325 angstrom
                   Q00  =   0.170508

H          x =  0.511469  y = -3.958011  z = -1.055723 angstrom
           Maximum rank =  0   Radius =  0.325 angstrom
                   Q00  =   0.110868

H          x =  1.525469  y = -2.930011  z = -2.053723 angstrom
           Maximum rank =  0   Radius =  0.325 angstrom
                   Q00  =   0.059633

H          x = -0.220947  y = -3.106191  z = -2.431195 angstrom
           Maximum rank =  0   Radius =  0.325 angstrom
                   Q00  =   0.115511

C          x =  0.402469  y =  2.432989  z = -0.426723 angstrom
           Maximum rank =  0   Radius =  0.650 angstrom
                   Q00  =  -0.280092

C          x = -0.362531  y =  1.888989  z =  0.747277 angstrom
           Maximum rank =  0   Radius =  0.650 angstrom
                   Q00  =   0.984436

O          x =  0.252469  y =  1.155989  z =  1.583277 angstrom
           Maximum rank =  0   Radius =  0.650 angstrom
                   Q00  =  -0.958202

O          x = -1.538531  y =  2.284989  z =  0.842277 angstrom
           Maximum rank =  0   Radius =  0.650 angstrom
                   Q00  =  -0.898706

H          x =  1.351469  y =  1.908989  z = -0.386723 angstrom
           Maximum rank =  0   Radius =  0.325 angstrom
                   Q00  =   0.029201

H          x =  0.606469  y =  3.490989  z = -0.251723 angstrom
           Maximum rank =  0   Radius =  0.325 angstrom
                   Q00  =   0.075649

H          x = -0.057424  y =  2.334697  z = -1.421126 angstrom
           Maximum rank =  0   Radius =  0.325 angstrom
                   Q00  =   0.071974

Total multipoles referred to origin at
           x =   0.000000,  y =    0.000000,  z =    0.000000 angstrom
                   Q00  =  -1.000000

Finished at 22:20:55 on 26 Apr 2020

  DMA results are available in the Python driver through the
	  variable('DMA DISTRIBUTED MULTIPOLES')
  and
	  variable('DMA TOTAL MULTIPOLES')
  commands.

    Psi4 stopped on: Sunday, 26 April 2020 10:20PM
    Psi4 wall time for execution: 0:00:34.72

*** Psi4 exiting successfully. Buy a developer a beer!
