                               Psi4 1.3.2 release

  ==> Input File <==

--------------------------------------------------------------------------
import numpy as np
set {scf_type pk
basis cc-pvdz
d_convergence 10
gdma_switch   0
gdma_limit    0
gdma_origin   [ 0.0,  0.0,  0.0 ]
}
molecule test {
    units Angstrom
    0 1
    --
    0 1
    C                0.982552306364883     0.196617296428322    -0.934559306701626
    C                1.571552306364883     0.035617296428322    -2.339559306701626
    C               -0.498447693635117     0.595617296428322    -0.953559306701625
    O               -1.360447693635117    -0.095382703571678    -1.523559306701626
    N               -0.792447693635117     1.742617296428322    -0.331559306701626
    H                1.057552306364883    -0.756382703571679    -0.415559306701625
    H                1.557552306364883     0.938617296428321    -0.378559306701626
    H                1.128552306364883    -0.852382703571678    -2.798559306701625
    H               -1.759447693635117     2.056617296428322    -0.355559306701625
    H               -0.071447693635117     2.298617296428322     0.102440693298375
    H                2.660589306364884    -0.105414703571678    -2.275454306701626
    H                1.301872306364883     0.915356296428322    -2.942330306701626
    C                0.128552306364883    -1.106382703571678     2.222440693298374
    C                0.025552306364883    -1.379382703571679     3.696440693298374
    H                1.174552306364883    -1.126382703571678     1.917440693298374
    H               -0.414447693635117    -1.869382703571679     1.664440693298375
    H               -0.304447693635117    -0.130382703571678     1.997440693298374
    H               -1.025447693635117    -1.321382703571679     3.960440693298374
    H                0.605204306364883    -0.614009703571679     4.233290693298374
    H                0.379949306364883    -2.391737703571679     3.940450693298375

}
e, wfn = energy('scf', return_wfn=True)
gdma(wfn)
dmavals = variable('DMA DISTRIBUTED MULTIPOLES')
charges = np.array(dmavals)
print(charges)
np.save('SSI-115ASN-124LEU-1-dimer.npy', np.array(charges))--------------------------------------------------------------------------

*** tstart() called on ds3
*** at Tue Apr 28 09:31:06 2020

   => Loading Basis Set <=

    Name: CC-PVDZ
    Role: ORBITAL
    Keyword: BASIS
    atoms 1-3, 13-14  entry C          line   138 file /theoryfs2/ds/metcalf/miniconda2/envs/tf2gpu/share/psi4/basis/cc-pvdz.gbs
    atoms 4           entry O          line   198 file /theoryfs2/ds/metcalf/miniconda2/envs/tf2gpu/share/psi4/basis/cc-pvdz.gbs
    atoms 5           entry N          line   168 file /theoryfs2/ds/metcalf/miniconda2/envs/tf2gpu/share/psi4/basis/cc-pvdz.gbs
    atoms 6-12, 15-20 entry H          line    22 file /theoryfs2/ds/metcalf/miniconda2/envs/tf2gpu/share/psi4/basis/cc-pvdz.gbs

         ---------------------------------------------------------
                                   SCF
               by Justin Turney, Rob Parrish, Andy Simmonett
                          and Daniel G. A. Smith
                              RHF Reference
                        1 Threads,    500 MiB Core
         ---------------------------------------------------------

  ==> Geometry <==

    Molecular point group: c1
    Full point group: C1

    Geometry (in Angstrom), charge = 0, multiplicity = 1:

       Center              X                  Y                   Z               Mass
    ------------   -----------------  -----------------  -----------------  -----------------
         C            0.982552306365     0.196617296428    -0.934559306702    12.000000000000
         C            1.571552306365     0.035617296428    -2.339559306702    12.000000000000
         C           -0.498447693635     0.595617296428    -0.953559306702    12.000000000000
         O           -1.360447693635    -0.095382703572    -1.523559306702    15.994914619570
         N           -0.792447693635     1.742617296428    -0.331559306702    14.003074004430
         H            1.057552306365    -0.756382703572    -0.415559306702     1.007825032230
         H            1.557552306365     0.938617296428    -0.378559306702     1.007825032230
         H            1.128552306365    -0.852382703572    -2.798559306702     1.007825032230
         H           -1.759447693635     2.056617296428    -0.355559306702     1.007825032230
         H           -0.071447693635     2.298617296428     0.102440693298     1.007825032230
         H            2.660589306365    -0.105414703572    -2.275454306702     1.007825032230
         H            1.301872306365     0.915356296428    -2.942330306702     1.007825032230
         C            0.128552306365    -1.106382703572     2.222440693298    12.000000000000
         C            0.025552306365    -1.379382703572     3.696440693298    12.000000000000
         H            1.174552306365    -1.126382703572     1.917440693298     1.007825032230
         H           -0.414447693635    -1.869382703572     1.664440693298     1.007825032230
         H           -0.304447693635    -0.130382703572     1.997440693298     1.007825032230
         H           -1.025447693635    -1.321382703572     3.960440693298     1.007825032230
         H            0.605204306365    -0.614009703572     4.233290693298     1.007825032230
         H            0.379949306365    -2.391737703572     3.940450693298     1.007825032230

  Running in c1 symmetry.

  Rotational constants: A =      0.10112  B =      0.03203  C =      0.02829 [cm^-1]
  Rotational constants: A =   3031.40586  B =    960.34672  C =    848.02050 [MHz]
  Nuclear repulsion =  303.399511344490122

  Charge       = 0
  Multiplicity = 1
  Electrons    = 58
  Nalpha       = 29
  Nbeta        = 29

  ==> Algorithm <==

  SCF Algorithm Type is PK.
  DIIS enabled.
  MOM disabled.
  Fractional occupation disabled.
  Guess Type is SAD.
  Energy threshold   = 1.00e-06
  Density threshold  = 1.00e-10
  Integral threshold = 0.00e+00

  ==> Primary Basis <==

  Basis Set: CC-PVDZ
    Blend: CC-PVDZ
    Number of shells: 81
    Number of basis function: 163
    Number of Cartesian functions: 170
    Spherical Harmonics?: true
    Max angular momentum: 2

  ==> Pre-Iterations <==

   -------------------------------------------------------
    Irrep   Nso     Nmo     Nalpha   Nbeta   Ndocc  Nsocc
   -------------------------------------------------------
     A        163     163       0       0       0       0
   -------------------------------------------------------
    Total     163     163      29      29      29       0
   -------------------------------------------------------

  ==> Integral Setup <==

  Using integral reordering PK algorithm.
  Sizing the integral batches needed.
  Building batch lookup table.
   Calculation information:
      Number of atoms:                  20
      Number of AO shells:              81
      Number of primitives:            219
      Number of atomic orbitals:       170
      Number of basis functions:       163

      Integral cutoff                 1.00e-12
      Number of threads:                 1

	Batch   1 pq = [       0,    9405] index = [             0,44231715] size =     44231715
	Batch   2 pq = [    9405,   13366] index = [      44231715,89331661] size =     45099946
  Task number: 9
  Buffer size: 11059200
  Buffer per thread: 2
  We computed 4865453 shell quartets total.
  Whereas there are 5516181 unique shell quartets.

  ==> DiskJK: Disk-Based J/K Matrices <==

    J tasked:                  Yes
    K tasked:                  Yes
    wK tasked:                  No
    Memory [MiB]:              375
    Schwarz Cutoff:          1E-12

    OpenMP threads:              1

  Minimum eigenvalue in the overlap matrix is 3.7790182492E-03.
  Using Symmetric Orthogonalization.

  SCF Guess: Superposition of Atomic Densities via on-the-fly atomic UHF.

  ==> Iterations <==

                        Total Energy        Delta E     RMS |[F,P]|

   @RHF iter SAD:  -324.90882785429721   -3.24909e+02   0.00000e+00
   @RHF iter   1:  -326.00169892113115   -1.09287e+00   4.14274e-03 DIIS
   @RHF iter   2:  -326.19858517083560   -1.96886e-01   2.32389e-03 DIIS
   @RHF iter   3:  -326.25517095240315   -5.65858e-02   5.05627e-04 DIIS
   @RHF iter   4:  -326.25913062035971   -3.95967e-03   2.04853e-04 DIIS
   @RHF iter   5:  -326.25982949756582   -6.98877e-04   2.98133e-05 DIIS
   @RHF iter   6:  -326.25986178626772   -3.22887e-05   1.23356e-05 DIIS
   @RHF iter   7:  -326.25986620120733   -4.41494e-06   5.17197e-06 DIIS
   @RHF iter   8:  -326.25986722447624   -1.02327e-06   2.03976e-06 DIIS
   @RHF iter   9:  -326.25986739101160   -1.66535e-07   5.00490e-07 DIIS
   @RHF iter  10:  -326.25986739942493   -8.41334e-09   1.60601e-07 DIIS
   @RHF iter  11:  -326.25986740019709   -7.72161e-10   4.25198e-08 DIIS
   @RHF iter  12:  -326.25986740025735   -6.02540e-11   1.12559e-08 DIIS
   @RHF iter  13:  -326.25986740026150   -4.14957e-12   2.68813e-09 DIIS
   @RHF iter  14:  -326.25986740026224   -7.38964e-13   1.12416e-09 DIIS
   @RHF iter  15:  -326.25986740026019    2.04636e-12   5.38992e-10 DIIS
   @RHF iter  16:  -326.25986740026110   -9.09495e-13   1.96181e-10 DIIS
   @RHF iter  17:  -326.25986740026161   -5.11591e-13   6.99702e-11 DIIS
  Energy and wave function converged.

  ==> Post-Iterations <==

    Orbital Energies [Eh]
    ---------------------

    Doubly Occupied:

       1A    -20.504418     2A    -15.591797     3A    -11.347966
       4A    -11.240516     5A    -11.230707     6A    -11.218147
       7A    -11.215757     8A     -1.356904     9A     -1.212792
      10A     -1.046888    11A     -1.027594    12A     -0.886105
      13A     -0.835000    14A     -0.785413    15A     -0.722582
      16A     -0.661239    17A     -0.620331    18A     -0.605760
      19A     -0.603733    20A     -0.584717    21A     -0.560728
      22A     -0.525365    23A     -0.506866    24A     -0.502190
      25A     -0.493667    26A     -0.485823    27A     -0.480592
      28A     -0.405668    29A     -0.401483

    Virtual:

      30A      0.159003    31A      0.184774    32A      0.190945
      33A      0.216090    34A      0.228422    35A      0.231125
      36A      0.246306    37A      0.259176    38A      0.260840
      39A      0.270834    40A      0.283233    41A      0.286255
      42A      0.303388    43A      0.315882    44A      0.380316
      45A      0.398913    46A      0.418248    47A      0.456204
      48A      0.551379    49A      0.577002    50A      0.600743
      51A      0.610011    52A      0.624018    53A      0.638123
      54A      0.659548    55A      0.679132    56A      0.688189
      57A      0.726389    58A      0.733011    59A      0.756603
      60A      0.824416    61A      0.837545    62A      0.851846
      63A      0.859527    64A      0.887434    65A      0.888564
      66A      0.892684    67A      0.894278    68A      0.897752
      69A      0.907234    70A      0.913123    71A      0.918673
      72A      0.924903    73A      0.942408    74A      0.952685
      75A      0.964245    76A      1.006945    77A      1.043202
      78A      1.054302    79A      1.074579    80A      1.113203
      81A      1.114352    82A      1.132551    83A      1.145304
      84A      1.238052    85A      1.309920    86A      1.335454
      87A      1.387886    88A      1.391051    89A      1.398209
      90A      1.431392    91A      1.466078    92A      1.483871
      93A      1.495152    94A      1.499838    95A      1.516307
      96A      1.591517    97A      1.643461    98A      1.672529
      99A      1.673986   100A      1.689521   101A      1.732414
     102A      1.754312   103A      1.817835   104A      1.833658
     105A      1.852377   106A      1.869695   107A      1.873207
     108A      1.892227   109A      1.905500   110A      1.920413
     111A      1.930842   112A      1.936642   113A      1.953779
     114A      1.958655   115A      1.962421   116A      1.976812
     117A      1.992040   118A      2.002050   119A      2.011878
     120A      2.035156   121A      2.067435   122A      2.075010
     123A      2.099895   124A      2.101937   125A      2.128067
     126A      2.153442   127A      2.207469   128A      2.276317
     129A      2.297690   130A      2.306285   131A      2.354301
     132A      2.418496   133A      2.444397   134A      2.460436
     135A      2.467939   136A      2.481548   137A      2.503179
     138A      2.542341   139A      2.554182   140A      2.575843
     141A      2.587211   142A      2.592402   143A      2.645005
     144A      2.752483   145A      2.763784   146A      2.768113
     147A      2.793195   148A      2.827254   149A      2.847101
     150A      2.855447   151A      2.861116   152A      2.893292
     153A      2.952680   154A      2.965361   155A      2.970828
     156A      2.976854   157A      3.096724   158A      3.122554
     159A      3.291697   160A      3.493651   161A      3.506350
     162A      3.838250   163A      3.886346

    Final Occupation by Irrep:
              A
    DOCC [    29 ]

  @RHF Final Energy:  -326.25986740026161

   => Energetics <=

    Nuclear Repulsion Energy =            303.3995113444901222
    One-Electron Energy =               -1043.9972593260918075
    Two-Electron Energy =                 414.3378805813401300
    Total Energy =                       -326.2598674002616121

Computation Completed

Properties will be evaluated at   0.000000,   0.000000,   0.000000 [a0]

Properties computed using the SCF density matrix

  Nuclear Dipole Moment: [e a0]
     X:     5.8930      Y:    -2.7788      Z:     8.1027

  Electronic Dipole Moment: [e a0]
     X:    -4.9854      Y:     3.8635      Z:    -7.3420

  Dipole Moment: [e a0]
     X:     0.9076      Y:     1.0847      Z:     0.7606     Total:     1.6059

  Dipole Moment: [D]
     X:     2.3069      Y:     2.7571      Z:     1.9334     Total:     4.0818

*** tstop() called on ds3 at Tue Apr 28 09:32:03 2020
Module time:
	user time   =      31.92 seconds =       0.53 minutes
	system time =      13.24 seconds =       0.22 minutes
	total time  =         57 seconds =       0.95 minutes
Total time:
	user time   =      31.92 seconds =       0.53 minutes
	system time =      13.24 seconds =       0.22 minutes
	total time  =         57 seconds =       0.95 minutes
                                     G D M A

                                 by Anthony Stone

                           version 2.2.06, 22 June 2011

               Distributed Multipoles from Gaussian wavefunctions

Starting at 9:32:3 on 28 Apr 2020

Using SCF density matrix from file ./SSI/SSI-115ASN-124LEU-1-dimer.test.10703.fchk

                         Distributed Multipole Analysis

Standard DMA

Positions and radii in angstrom
Multipole moments in atomic units, ea_0^k for rank k

C          x =  0.982552  y =  0.196617  z = -0.934559 angstrom
           Maximum rank =  0   Radius =  0.650 angstrom
                   Q00  =  -0.139106

C          x =  1.571552  y =  0.035617  z = -2.339559 angstrom
           Maximum rank =  0   Radius =  0.650 angstrom
                   Q00  =  -0.204477

C          x = -0.498448  y =  0.595617  z = -0.953559 angstrom
           Maximum rank =  0   Radius =  0.650 angstrom
                   Q00  =   0.815770

O          x = -1.360448  y = -0.095383  z = -1.523559 angstrom
           Maximum rank =  0   Radius =  0.650 angstrom
                   Q00  =  -0.809279

N          x = -0.792448  y =  1.742617  z = -0.331559 angstrom
           Maximum rank =  0   Radius =  0.650 angstrom
                   Q00  =  -0.521553

H          x =  1.057552  y = -0.756383  z = -0.415559 angstrom
           Maximum rank =  0   Radius =  0.325 angstrom
                   Q00  =   0.110617

H          x =  1.557552  y =  0.938617  z = -0.378559 angstrom
           Maximum rank =  0   Radius =  0.325 angstrom
                   Q00  =   0.041352

H          x =  1.128552  y = -0.852383  z = -2.798559 angstrom
           Maximum rank =  0   Radius =  0.325 angstrom
                   Q00  =   0.107893

H          x = -1.759448  y =  2.056617  z = -0.355559 angstrom
           Maximum rank =  0   Radius =  0.325 angstrom
                   Q00  =   0.219476

H          x = -0.071448  y =  2.298617  z =  0.102441 angstrom
           Maximum rank =  0   Radius =  0.325 angstrom
                   Q00  =   0.211489

H          x =  2.660589  y = -0.105415  z = -2.275454 angstrom
           Maximum rank =  0   Radius =  0.325 angstrom
                   Q00  =   0.085750

H          x =  1.301872  y =  0.915356  z = -2.942330 angstrom
           Maximum rank =  0   Radius =  0.325 angstrom
                   Q00  =   0.082287

C          x =  0.128552  y = -1.106383  z =  2.222441 angstrom
           Maximum rank =  0   Radius =  0.650 angstrom
                   Q00  =  -0.235228

C          x =  0.025552  y = -1.379383  z =  3.696441 angstrom
           Maximum rank =  0   Radius =  0.650 angstrom
                   Q00  =  -0.217874

H          x =  1.174552  y = -1.126383  z =  1.917441 angstrom
           Maximum rank =  0   Radius =  0.325 angstrom
                   Q00  =   0.066776

H          x = -0.414448  y = -1.869383  z =  1.664441 angstrom
           Maximum rank =  0   Radius =  0.325 angstrom
                   Q00  =   0.086465

H          x = -0.304448  y = -0.130383  z =  1.997441 angstrom
           Maximum rank =  0   Radius =  0.325 angstrom
                   Q00  =   0.068501

H          x = -1.025448  y = -1.321383  z =  3.960441 angstrom
           Maximum rank =  0   Radius =  0.325 angstrom
                   Q00  =   0.079027

H          x =  0.605204  y = -0.614010  z =  4.233291 angstrom
           Maximum rank =  0   Radius =  0.325 angstrom
                   Q00  =   0.072866

H          x =  0.379949  y = -2.391738  z =  3.940451 angstrom
           Maximum rank =  0   Radius =  0.325 angstrom
                   Q00  =   0.079250

Total multipoles referred to origin at
           x =   0.000000,  y =    0.000000,  z =    0.000000 angstrom
                   Q00  =  -0.000000

Finished at 9:32:3 on 28 Apr 2020

  DMA results are available in the Python driver through the
	  variable('DMA DISTRIBUTED MULTIPOLES')
  and
	  variable('DMA TOTAL MULTIPOLES')
  commands.

    Psi4 stopped on: Tuesday, 28 April 2020 09:32AM
    Psi4 wall time for execution: 0:00:57.01

*** Psi4 exiting successfully. Buy a developer a beer!
