                               Psi4 1.3.2 release

  ==> Input File <==

--------------------------------------------------------------------------
import numpy as np
set {scf_type pk
basis cc-pvdz
d_convergence 10
gdma_switch   0
gdma_limit    0
gdma_origin   [ 0.0,  0.0,  0.0 ]
}
molecule test {
    units Angstrom
    0 1
    --
    0 1
    C                3.548649634435975    -1.656735168712746    -1.697144296452572
    C               -0.406350365564024    -0.586735168712746    -0.398144296452572
    C                0.286649634435976     0.221264831287254    -1.282144296452572
    C                0.181649634435976    -1.742735168712746     0.073855703547428
    C                1.559649634435976    -0.127735168712746    -1.708144296452572
    C                1.461649634435976    -2.097735168712747    -0.347144296452572
    C                2.166649634435976    -1.283735168712746    -1.231144296452572
    H               -1.404350365564024    -0.321735168712746    -0.080144296452572
    H               -0.171350365564024     1.128264831287254    -1.652144296452572
    H               -0.375350365564024    -2.383735168712746     0.735855703547428
    H                2.078649634435976     0.508264831287254    -2.412144296452572
    H                1.903649634435976    -3.015735168712746     0.013855703547428
    H                3.640649634435976    -1.420735168712746    -2.758144296452572
    H                3.672649634435976    -2.736735168712746    -1.599144296452572
    H                4.362090634435976    -1.160345168712746    -1.147674296452572
    C               -2.463350365564024     1.768264831287254     1.672855703547428
    C               -2.463350365564024     1.785264831287254     3.196855703547428
    C               -3.182350365564024     3.001264831287254     1.100855703547428
    H               -1.435350365564024     1.754264831287254     1.308855703547428
    H               -2.981350365564024     0.879264831287254     1.312855703547428
    H               -3.490350365564024     1.908264831287254     3.544855703547428
    H               -1.892350365564024     2.650264831287254     3.535855703547428
    H               -4.211350365564024     3.013264831287254     1.466855703547428
    H               -2.674350365564024     3.905264831287254     1.444855703547428
    H               -2.044560365564024     0.879674831287254     3.660025703547428
    H               -3.186690365564024     2.977424831287254     0.001125703547428

}
e, wfn = energy('scf', return_wfn=True)
gdma(wfn)
dmavals = variable('DMA DISTRIBUTED MULTIPOLES')
charges = np.array(dmavals)
print(charges)
np.save('SSI-066PHE-075LYS-1-dimer.npy', np.array(charges))--------------------------------------------------------------------------

*** tstart() called on ds3
*** at Tue Apr 28 08:21:33 2020

   => Loading Basis Set <=

    Name: CC-PVDZ
    Role: ORBITAL
    Keyword: BASIS
    atoms 1-7, 16-18  entry C          line   138 file /theoryfs2/ds/metcalf/miniconda2/envs/tf2gpu/share/psi4/basis/cc-pvdz.gbs
    atoms 8-15, 19-26 entry H          line    22 file /theoryfs2/ds/metcalf/miniconda2/envs/tf2gpu/share/psi4/basis/cc-pvdz.gbs

         ---------------------------------------------------------
                                   SCF
               by Justin Turney, Rob Parrish, Andy Simmonett
                          and Daniel G. A. Smith
                              RHF Reference
                        1 Threads,    500 MiB Core
         ---------------------------------------------------------

  ==> Geometry <==

    Molecular point group: c1
    Full point group: C1

    Geometry (in Angstrom), charge = 0, multiplicity = 1:

       Center              X                  Y                   Z               Mass
    ------------   -----------------  -----------------  -----------------  -----------------
         C            3.548649634436    -1.656735168713    -1.697144296453    12.000000000000
         C           -0.406350365564    -0.586735168713    -0.398144296453    12.000000000000
         C            0.286649634436     0.221264831287    -1.282144296453    12.000000000000
         C            0.181649634436    -1.742735168713     0.073855703547    12.000000000000
         C            1.559649634436    -0.127735168713    -1.708144296453    12.000000000000
         C            1.461649634436    -2.097735168713    -0.347144296453    12.000000000000
         C            2.166649634436    -1.283735168713    -1.231144296453    12.000000000000
         H           -1.404350365564    -0.321735168713    -0.080144296453     1.007825032230
         H           -0.171350365564     1.128264831287    -1.652144296453     1.007825032230
         H           -0.375350365564    -2.383735168713     0.735855703547     1.007825032230
         H            2.078649634436     0.508264831287    -2.412144296453     1.007825032230
         H            1.903649634436    -3.015735168713     0.013855703547     1.007825032230
         H            3.640649634436    -1.420735168713    -2.758144296453     1.007825032230
         H            3.672649634436    -2.736735168713    -1.599144296453     1.007825032230
         H            4.362090634436    -1.160345168713    -1.147674296453     1.007825032230
         C           -2.463350365564     1.768264831287     1.672855703547    12.000000000000
         C           -2.463350365564     1.785264831287     3.196855703547    12.000000000000
         C           -3.182350365564     3.001264831287     1.100855703547    12.000000000000
         H           -1.435350365564     1.754264831287     1.308855703547     1.007825032230
         H           -2.981350365564     0.879264831287     1.312855703547     1.007825032230
         H           -3.490350365564     1.908264831287     3.544855703547     1.007825032230
         H           -1.892350365564     2.650264831287     3.535855703547     1.007825032230
         H           -4.211350365564     3.013264831287     1.466855703547     1.007825032230
         H           -2.674350365564     3.905264831287     1.444855703547     1.007825032230
         H           -2.044560365564     0.879674831287     3.660025703547     1.007825032230
         H           -3.186690365564     2.977424831287     0.001125703547     1.007825032230

  Running in c1 symmetry.

  Rotational constants: A =      0.09428  B =      0.01319  C =      0.01234 [cm^-1]
  Rotational constants: A =   2826.38238  B =    395.30141  C =    370.02416 [MHz]
  Nuclear repulsion =  470.309382514455024

  Charge       = 0
  Multiplicity = 1
  Electrons    = 76
  Nalpha       = 38
  Nbeta        = 38

  ==> Algorithm <==

  SCF Algorithm Type is PK.
  DIIS enabled.
  MOM disabled.
  Fractional occupation disabled.
  Guess Type is SAD.
  Energy threshold   = 1.00e-06
  Density threshold  = 1.00e-10
  Integral threshold = 0.00e+00

  ==> Primary Basis <==

  Basis Set: CC-PVDZ
    Blend: CC-PVDZ
    Number of shells: 108
    Number of basis function: 220
    Number of Cartesian functions: 230
    Spherical Harmonics?: true
    Max angular momentum: 2

  ==> Pre-Iterations <==

   -------------------------------------------------------
    Irrep   Nso     Nmo     Nalpha   Nbeta   Ndocc  Nsocc
   -------------------------------------------------------
     A        220     220       0       0       0       0
   -------------------------------------------------------
    Total     220     220      38      38      38       0
   -------------------------------------------------------

  ==> Integral Setup <==

  Using integral reordering PK algorithm.
  Sizing the integral batches needed.
  Building batch lookup table.
   Calculation information:
      Number of atoms:                  26
      Number of AO shells:             108
      Number of primitives:            300
      Number of atomic orbitals:       230
      Number of basis functions:       220

      Integral cutoff                 1.00e-12
      Number of threads:                 1

	Batch   1 pq = [       0,    9405] index = [             0,44231715] size =     44231715
	Batch   2 pq = [    9405,   13301] index = [      44231715,88464951] size =     44233236
	Batch   3 pq = [   13301,   16290] index = [      88464951,132690195] size =     44225244
	Batch   4 pq = [   16290,   18810] index = [     132690195,176917455] size =     44227260
	Batch   5 pq = [   18810,   21030] index = [     176917455,221140965] size =     44223510
	Batch   6 pq = [   21030,   23037] index = [     221140965,265363203] size =     44222238
	Batch   7 pq = [   23037,   24310] index = [     265363203,295500205] size =     30137002
  Task number: 27
  Buffer size: 11059200
  Buffer per thread: 2
  We computed 12588641 shell quartets total.
  Whereas there are 17325441 unique shell quartets.

  ==> DiskJK: Disk-Based J/K Matrices <==

    J tasked:                  Yes
    K tasked:                  Yes
    wK tasked:                  No
    Memory [MiB]:              375
    Schwarz Cutoff:          1E-12

    OpenMP threads:              1

  Minimum eigenvalue in the overlap matrix is 2.9736587237E-04.
  Using Symmetric Orthogonalization.

  SCF Guess: Superposition of Atomic Densities via on-the-fly atomic UHF.

  ==> Iterations <==

                        Total Energy        Delta E     RMS |[F,P]|

   @RHF iter SAD:  -386.92728666860239   -3.86927e+02   0.00000e+00
   @RHF iter   1:  -387.77151587091510   -8.44229e-01   2.76138e-03 DIIS
   @RHF iter   2:  -387.99168160932055   -2.20166e-01   1.16460e-03 DIIS
   @RHF iter   3:  -388.02728053302047   -3.55989e-02   2.50118e-04 DIIS
   @RHF iter   4:  -388.03017514514403   -2.89461e-03   4.94519e-05 DIIS
   @RHF iter   5:  -388.03025819908441   -8.30539e-05   1.54106e-05 DIIS
   @RHF iter   6:  -388.03026576981136   -7.57073e-06   4.60182e-06 DIIS
   @RHF iter   7:  -388.03026651843390   -7.48623e-07   1.25100e-06 DIIS
   @RHF iter   8:  -388.03026658252338   -6.40895e-08   3.01661e-07 DIIS
   @RHF iter   9:  -388.03026659083122   -8.30784e-09   1.29121e-07 DIIS
   @RHF iter  10:  -388.03026659268147   -1.85025e-09   6.08473e-08 DIIS
   @RHF iter  11:  -388.03026659323825   -5.56781e-10   2.52161e-08 DIIS
   @RHF iter  12:  -388.03026659333079   -9.25411e-11   9.29608e-09 DIIS
   @RHF iter  13:  -388.03026659333977   -8.98126e-12   3.71618e-09 DIIS
   @RHF iter  14:  -388.03026659334131   -1.53477e-12   1.02608e-09 DIIS
   @RHF iter  15:  -388.03026659334245   -1.13687e-12   4.09143e-10 DIIS
   @RHF iter  16:  -388.03026659334091    1.53477e-12   1.74559e-10 DIIS
   @RHF iter  17:  -388.03026659334159   -6.82121e-13   7.58902e-11 DIIS
  Energy and wave function converged.

  ==> Post-Iterations <==

    Orbital Energies [Eh]
    ---------------------

    Doubly Occupied:

       1A    -11.239333     2A    -11.232526     3A    -11.232358
       4A    -11.229756     5A    -11.228898     6A    -11.228439
       7A    -11.226776     8A    -11.219969     9A    -11.217966
      10A    -11.215722    11A     -1.154459    12A     -1.054059
      13A     -1.045236    14A     -1.011411    15A     -0.931433
      16A     -0.922191    17A     -0.825284    18A     -0.799342
      19A     -0.793705    20A     -0.691699    21A     -0.631921
      22A     -0.628729    23A     -0.627693    24A     -0.596933
      25A     -0.581377    26A     -0.576116    27A     -0.562739
      28A     -0.544163    29A     -0.533716    30A     -0.529743
      31A     -0.489182    32A     -0.483370    33A     -0.482441
      34A     -0.474138    35A     -0.470533    36A     -0.465623
      37A     -0.331710    38A     -0.322594

    Virtual:

      39A      0.136738    40A      0.142696    41A      0.171655
      42A      0.190290    43A      0.203730    44A      0.208382
      45A      0.228766    46A      0.232306    47A      0.239451
      48A      0.256062    49A      0.260275    50A      0.265310
      51A      0.279460    52A      0.289595    53A      0.291259
      54A      0.307413    55A      0.310188    56A      0.330034
      57A      0.364563    58A      0.375989    59A      0.386485
      60A      0.414974    61A      0.461424    62A      0.473159
      63A      0.480545    64A      0.496192    65A      0.562819
      66A      0.577349    67A      0.597997    68A      0.607710
      69A      0.611942    70A      0.618620    71A      0.636830
      72A      0.658951    73A      0.686374    74A      0.689581
      75A      0.710886    76A      0.719655    77A      0.738062
      78A      0.745762    79A      0.746826    80A      0.756210
      81A      0.761011    82A      0.778889    83A      0.791271
      84A      0.809873    85A      0.815545    86A      0.835941
      87A      0.847490    88A      0.860535    89A      0.864755
      90A      0.876538    91A      0.879488    92A      0.894042
      93A      0.895425    94A      0.897452    95A      0.899308
      96A      0.902893    97A      0.905881    98A      0.915753
      99A      0.917065   100A      0.927617   101A      0.938780
     102A      0.946288   103A      0.962367   104A      0.972911
     105A      0.983878   106A      1.009541   107A      1.036828
     108A      1.054952   109A      1.123461   110A      1.128807
     111A      1.144714   112A      1.148462   113A      1.162053
     114A      1.174872   115A      1.194542   116A      1.207720
     117A      1.242298   118A      1.247114   119A      1.256248
     120A      1.260956   121A      1.301117   122A      1.312498
     123A      1.318568   124A      1.334320   125A      1.374980
     126A      1.415731   127A      1.476616   128A      1.489946
     129A      1.511412   130A      1.525559   131A      1.544989
     132A      1.559817   133A      1.602488   134A      1.612017
     135A      1.678114   136A      1.682230   137A      1.689188
     138A      1.700663   139A      1.703229   140A      1.737740
     141A      1.750875   142A      1.764371   143A      1.789802
     144A      1.812001   145A      1.863771   146A      1.865610
     147A      1.874938   148A      1.885172   149A      1.892326
     150A      1.899579   151A      1.911203   152A      1.914148
     153A      1.917882   154A      1.933401   155A      1.937535
     156A      1.944013   157A      1.948880   158A      1.957304
     159A      1.964138   160A      1.969297   161A      1.978619
     162A      1.985705   163A      1.989980   164A      1.996434
     165A      2.008940   166A      2.018769   167A      2.035258
     168A      2.043416   169A      2.065221   170A      2.074620
     171A      2.114228   172A      2.120145   173A      2.144048
     174A      2.154172   175A      2.163132   176A      2.181783
     177A      2.186660   178A      2.196752   179A      2.256958
     180A      2.279532   181A      2.291319   182A      2.299370
     183A      2.303731   184A      2.315508   185A      2.318461
     186A      2.321222   187A      2.330886   188A      2.339683
     189A      2.471237   190A      2.474539   191A      2.507180
     192A      2.507922   193A      2.530958   194A      2.545264
     195A      2.581672   196A      2.611272   197A      2.625727
     198A      2.629072   199A      2.744188   200A      2.755973
     201A      2.763203   202A      2.766974   203A      2.767534
     204A      2.785795   205A      2.800510   206A      2.811569
     207A      2.818126   208A      2.854879   209A      2.872694
     210A      2.907174   211A      2.962836   212A      2.972187
     213A      2.991705   214A      3.017661   215A      3.033562
     216A      3.075608   217A      3.164242   218A      3.214575
     219A      3.309146   220A      3.986297

    Final Occupation by Irrep:
              A
    DOCC [    38 ]

  @RHF Final Energy:  -388.03026659334159

   => Energetics <=

    Nuclear Repulsion Energy =            470.3093825144550237
    One-Electron Energy =               -1455.0127335112683795
    Two-Electron Energy =                 596.6730844034717620
    Total Energy =                       -388.0302665933415938

Computation Completed

Properties will be evaluated at   0.000000,   0.000000,   0.000000 [a0]

Properties computed using the SCF density matrix

  Nuclear Dipole Moment: [e a0]
     X:    -7.6964      Y:     8.0296      Z:     6.9144

  Electronic Dipole Moment: [e a0]
     X:     7.8151      Y:    -8.0743      Z:    -6.9649

  Dipole Moment: [e a0]
     X:     0.1187      Y:    -0.0447      Z:    -0.0505     Total:     0.1365

  Dipole Moment: [D]
     X:     0.3017      Y:    -0.1137      Z:    -0.1283     Total:     0.3470

*** tstop() called on ds3 at Tue Apr 28 08:26:26 2020
Module time:
	user time   =      88.70 seconds =       1.48 minutes
	system time =      42.05 seconds =       0.70 minutes
	total time  =        293 seconds =       4.88 minutes
Total time:
	user time   =      88.70 seconds =       1.48 minutes
	system time =      42.05 seconds =       0.70 minutes
	total time  =        293 seconds =       4.88 minutes
                                     G D M A

                                 by Anthony Stone

                           version 2.2.06, 22 June 2011

               Distributed Multipoles from Gaussian wavefunctions

Starting at 8:26:26 on 28 Apr 2020

Using SCF density matrix from file ./SSI/SSI-066PHE-075LYS-1-dimer.test.13507.fchk

                         Distributed Multipole Analysis

Standard DMA

Positions and radii in angstrom
Multipole moments in atomic units, ea_0^k for rank k

C          x =  3.548650  y = -1.656735  z = -1.697144 angstrom
           Maximum rank =  0   Radius =  0.650 angstrom
                   Q00  =  -0.205411

C          x = -0.406350  y = -0.586735  z = -0.398144 angstrom
           Maximum rank =  0   Radius =  0.650 angstrom
                   Q00  =  -0.075557

C          x =  0.286650  y =  0.221265  z = -1.282144 angstrom
           Maximum rank =  0   Radius =  0.650 angstrom
                   Q00  =  -0.022898

C          x =  0.181650  y = -1.742735  z =  0.073856 angstrom
           Maximum rank =  0   Radius =  0.650 angstrom
                   Q00  =  -0.077745

C          x =  1.559650  y = -0.127735  z = -1.708144 angstrom
           Maximum rank =  0   Radius =  0.650 angstrom
                   Q00  =  -0.092879

C          x =  1.461650  y = -2.097735  z = -0.347144 angstrom
           Maximum rank =  0   Radius =  0.650 angstrom
                   Q00  =  -0.029823

C          x =  2.166650  y = -1.283735  z = -1.231144 angstrom
           Maximum rank =  0   Radius =  0.650 angstrom
                   Q00  =  -0.093546

H          x = -1.404350  y = -0.321735  z = -0.080144 angstrom
           Maximum rank =  0   Radius =  0.325 angstrom
                   Q00  =   0.063161

H          x = -0.171350  y =  1.128265  z = -1.652144 angstrom
           Maximum rank =  0   Radius =  0.325 angstrom
                   Q00  =   0.060394

H          x = -0.375350  y = -2.383735  z =  0.735856 angstrom
           Maximum rank =  0   Radius =  0.325 angstrom
                   Q00  =   0.061745

H          x =  2.078650  y =  0.508265  z = -2.412144 angstrom
           Maximum rank =  0   Radius =  0.325 angstrom
                   Q00  =   0.054897

H          x =  1.903650  y = -3.015735  z =  0.013856 angstrom
           Maximum rank =  0   Radius =  0.325 angstrom
                   Q00  =   0.056813

H          x =  3.640650  y = -1.420735  z = -2.758144 angstrom
           Maximum rank =  0   Radius =  0.325 angstrom
                   Q00  =   0.097981

H          x =  3.672650  y = -2.736735  z = -1.599144 angstrom
           Maximum rank =  0   Radius =  0.325 angstrom
                   Q00  =   0.096396

H          x =  4.362091  y = -1.160345  z = -1.147674 angstrom
           Maximum rank =  0   Radius =  0.325 angstrom
                   Q00  =   0.105415

C          x = -2.463350  y =  1.768265  z =  1.672856 angstrom
           Maximum rank =  0   Radius =  0.650 angstrom
                   Q00  =  -0.096676

C          x = -2.463350  y =  1.785265  z =  3.196856 angstrom
           Maximum rank =  0   Radius =  0.650 angstrom
                   Q00  =  -0.233641

C          x = -3.182350  y =  3.001265  z =  1.100856 angstrom
           Maximum rank =  0   Radius =  0.650 angstrom
                   Q00  =  -0.237050

H          x = -1.435350  y =  1.754265  z =  1.308856 angstrom
           Maximum rank =  0   Radius =  0.325 angstrom
                   Q00  =   0.054999

H          x = -2.981350  y =  0.879265  z =  1.312856 angstrom
           Maximum rank =  0   Radius =  0.325 angstrom
                   Q00  =   0.041583

H          x = -3.490350  y =  1.908265  z =  3.544856 angstrom
           Maximum rank =  0   Radius =  0.325 angstrom
                   Q00  =   0.071834

H          x = -1.892350  y =  2.650265  z =  3.535856 angstrom
           Maximum rank =  0   Radius =  0.325 angstrom
                   Q00  =   0.076019

H          x = -4.211350  y =  3.013265  z =  1.466856 angstrom
           Maximum rank =  0   Radius =  0.325 angstrom
                   Q00  =   0.076738

H          x = -2.674350  y =  3.905265  z =  1.444856 angstrom
           Maximum rank =  0   Radius =  0.325 angstrom
                   Q00  =   0.077170

H          x = -2.044560  y =  0.879675  z =  3.660026 angstrom
           Maximum rank =  0   Radius =  0.325 angstrom
                   Q00  =   0.086604

H          x = -3.186690  y =  2.977425  z =  0.001126 angstrom
           Maximum rank =  0   Radius =  0.325 angstrom
                   Q00  =   0.083480

Total multipoles referred to origin at
           x =   0.000000,  y =    0.000000,  z =    0.000000 angstrom
                   Q00  =  -0.000000

Finished at 8:26:26 on 28 Apr 2020

  DMA results are available in the Python driver through the
	  variable('DMA DISTRIBUTED MULTIPOLES')
  and
	  variable('DMA TOTAL MULTIPOLES')
  commands.

    Psi4 stopped on: Tuesday, 28 April 2020 08:26AM
    Psi4 wall time for execution: 0:04:52.73

*** Psi4 exiting successfully. Buy a developer a beer!
