                               Psi4 1.3.2 release

  ==> Input File <==

--------------------------------------------------------------------------
import numpy as np
set {scf_type pk
basis cc-pvdz
d_convergence 10
gdma_switch   0
gdma_limit    0
gdma_origin   [ 0.0,  0.0,  0.0 ]
}
molecule test {
    units Angstrom
    -1 1
    --
    -1 1
    C                1.394438154830232    -0.899840135652760     1.606370769073524
    C                0.388438154830232     0.219159864347240     1.392370769073524
    O               -0.830561845169768    -0.049840135652760     1.309370769073524
    O                0.861438154830232     1.383159864347240     1.356370769073524
    H                1.728438154830232    -0.828840135652760     2.641370769073524
    H                2.271438154830232    -0.740840135652760     0.976370769073524
    H                1.004788154830232    -1.909200135652760     1.407950769073524
    C               -0.595561845169768    -0.364840135652760    -2.081629230926476
    C               -1.191561845169768    -0.276840135652760    -3.493629230926476
    H               -1.163561845169768     0.270159864347240    -1.403629230926476
    H               -0.642561845169768    -1.389840135652760    -1.724629230926476
    H                0.444438154830232    -0.040840135652760    -2.093629230926476
    H               -2.236561845169768    -0.578840135652760    -3.419629230926476
    H               -1.152761845169768     0.771389864347240    -3.824839230926476
    H               -0.693111845169768    -0.968780135652760    -4.188443230926476

}
e, wfn = energy('scf', return_wfn=True)
gdma(wfn)
dmavals = variable('DMA DISTRIBUTED MULTIPOLES')
charges = np.array(dmavals)
print(charges)
np.save('SSI-029GLU-045LEU-1-dimer.npy', np.array(charges))--------------------------------------------------------------------------

*** tstart() called on ds3
*** at Mon Apr 27 20:51:46 2020

   => Loading Basis Set <=

    Name: CC-PVDZ
    Role: ORBITAL
    Keyword: BASIS
    atoms 1-2, 8-9   entry C          line   138 file /theoryfs2/ds/metcalf/miniconda2/envs/tf2gpu/share/psi4/basis/cc-pvdz.gbs
    atoms 3-4        entry O          line   198 file /theoryfs2/ds/metcalf/miniconda2/envs/tf2gpu/share/psi4/basis/cc-pvdz.gbs
    atoms 5-7, 10-15 entry H          line    22 file /theoryfs2/ds/metcalf/miniconda2/envs/tf2gpu/share/psi4/basis/cc-pvdz.gbs

         ---------------------------------------------------------
                                   SCF
               by Justin Turney, Rob Parrish, Andy Simmonett
                          and Daniel G. A. Smith
                              RHF Reference
                        1 Threads,    500 MiB Core
         ---------------------------------------------------------

  ==> Geometry <==

    Molecular point group: c1
    Full point group: C1

    Geometry (in Angstrom), charge = -1, multiplicity = 1:

       Center              X                  Y                   Z               Mass
    ------------   -----------------  -----------------  -----------------  -----------------
         C            1.394438154830    -0.899840135653     1.606370769074    12.000000000000
         C            0.388438154830     0.219159864347     1.392370769074    12.000000000000
         O           -0.830561845170    -0.049840135653     1.309370769074    15.994914619570
         O            0.861438154830     1.383159864347     1.356370769074    15.994914619570
         H            1.728438154830    -0.828840135653     2.641370769074     1.007825032230
         H            2.271438154830    -0.740840135653     0.976370769074     1.007825032230
         H            1.004788154830    -1.909200135653     1.407950769074     1.007825032230
         C           -0.595561845170    -0.364840135653    -2.081629230926    12.000000000000
         C           -1.191561845170    -0.276840135653    -3.493629230926    12.000000000000
         H           -1.163561845170     0.270159864347    -1.403629230926     1.007825032230
         H           -0.642561845170    -1.389840135653    -1.724629230926     1.007825032230
         H            0.444438154830    -0.040840135653    -2.093629230926     1.007825032230
         H           -2.236561845170    -0.578840135653    -3.419629230926     1.007825032230
         H           -1.152761845170     0.771389864347    -3.824839230926     1.007825032230
         H           -0.693111845170    -0.968780135653    -4.188443230926     1.007825032230

  Running in c1 symmetry.

  Rotational constants: A =      0.18862  B =      0.03646  C =      0.03557 [cm^-1]
  Rotational constants: A =   5654.71593  B =   1093.11608  C =   1066.29053 [MHz]
  Nuclear repulsion =  220.754527749107439

  Charge       = -1
  Multiplicity = 1
  Electrons    = 50
  Nalpha       = 25
  Nbeta        = 25

  ==> Algorithm <==

  SCF Algorithm Type is PK.
  DIIS enabled.
  MOM disabled.
  Fractional occupation disabled.
  Guess Type is SAD.
  Energy threshold   = 1.00e-06
  Density threshold  = 1.00e-10
  Integral threshold = 0.00e+00

  ==> Primary Basis <==

  Basis Set: CC-PVDZ
    Blend: CC-PVDZ
    Number of shells: 63
    Number of basis function: 129
    Number of Cartesian functions: 135
    Spherical Harmonics?: true
    Max angular momentum: 2

  ==> Pre-Iterations <==

   -------------------------------------------------------
    Irrep   Nso     Nmo     Nalpha   Nbeta   Ndocc  Nsocc
   -------------------------------------------------------
     A        129     129       0       0       0       0
   -------------------------------------------------------
    Total     129     129      25      25      25       0
   -------------------------------------------------------

  ==> Integral Setup <==

  Using integral reordering PK algorithm.
  Sizing the integral batches needed.
  Building batch lookup table.
   Calculation information:
      Number of atoms:                  15
      Number of AO shells:              63
      Number of primitives:            177
      Number of atomic orbitals:       135
      Number of basis functions:       129

      Integral cutoff                 1.00e-12
      Number of threads:                 1

	Batch   1 pq = [       0,    8385] index = [             0,35158305] size =     35158305
  Task number: 4
  Buffer size: 11059200
  Buffer per thread: 2
  We computed 1623337 shell quartets total.
  Whereas there are 2033136 unique shell quartets.

  ==> DiskJK: Disk-Based J/K Matrices <==

    J tasked:                  Yes
    K tasked:                  Yes
    wK tasked:                  No
    Memory [MiB]:              375
    Schwarz Cutoff:          1E-12

    OpenMP threads:              1

  Minimum eigenvalue in the overlap matrix is 5.3382189319E-03.
  Using Symmetric Orthogonalization.

  SCF Guess: Superposition of Atomic Densities via on-the-fly atomic UHF.

  ==> Iterations <==

                        Total Energy        Delta E     RMS |[F,P]|

   @RHF iter SAD:  -304.82361101669960   -3.04824e+02   0.00000e+00
   @RHF iter   1:  -306.21168029023215   -1.38807e+00   5.63852e-03 DIIS
   @RHF iter   2:  -306.41113061426694   -1.99450e-01   3.15805e-03 DIIS
   @RHF iter   3:  -306.47191474983174   -6.07841e-02   4.74767e-04 DIIS
   @RHF iter   4:  -306.47447654290778   -2.56179e-03   1.76991e-04 DIIS
   @RHF iter   5:  -306.47485830932845   -3.81766e-04   2.55348e-05 DIIS
   @RHF iter   6:  -306.47486875838041   -1.04491e-05   5.34030e-06 DIIS
   @RHF iter   7:  -306.47486922741604   -4.69036e-07   1.60488e-06 DIIS
   @RHF iter   8:  -306.47486926539437   -3.79783e-08   3.72884e-07 DIIS
   @RHF iter   9:  -306.47486926812837   -2.73400e-09   8.29128e-08 DIIS
   @RHF iter  10:  -306.47486926829197   -1.63595e-10   2.46606e-08 DIIS
   @RHF iter  11:  -306.47486926830550   -1.35287e-11   8.86267e-09 DIIS
   @RHF iter  12:  -306.47486926830595   -4.54747e-13   3.27099e-09 DIIS
   @RHF iter  13:  -306.47486926830669   -7.38964e-13   1.03787e-09 DIIS
   @RHF iter  14:  -306.47486926830703   -3.41061e-13   3.79738e-10 DIIS
   @RHF iter  15:  -306.47486926830635    6.82121e-13   1.89784e-10 DIIS
   @RHF iter  16:  -306.47486926830663   -2.84217e-13   5.85623e-11 DIIS
  Energy and wave function converged.

  ==> Post-Iterations <==

    Orbital Energies [Eh]
    ---------------------

    Doubly Occupied:

       1A    -20.257621     2A    -20.250656     3A    -11.112053
       4A    -11.110678     5A    -11.082757     6A    -11.045858
       7A     -1.141101     8A     -1.030430     9A     -0.897383
      10A     -0.791850    11A     -0.713937    12A     -0.496762
      13A     -0.482832    14A     -0.476859    15A     -0.407937
      16A     -0.402240    17A     -0.396508    18A     -0.373798
      19A     -0.366566    20A     -0.362221    21A     -0.337116
      22A     -0.295843    23A     -0.176732    24A     -0.167978
      25A     -0.155828

    Virtual:

      26A      0.294837    27A      0.338239    28A      0.360176
      29A      0.363569    30A      0.385776    31A      0.389731
      32A      0.403867    33A      0.432786    34A      0.440385
      35A      0.492874    36A      0.517474    37A      0.579837
      38A      0.670773    39A      0.703900    40A      0.713568
      41A      0.725025    42A      0.762976    43A      0.802222
      44A      0.810231    45A      0.839315    46A      0.887672
      47A      0.938905    48A      0.975252    49A      0.998783
      50A      0.999653    51A      1.019829    52A      1.021004
      53A      1.027059    54A      1.034587    55A      1.041502
      56A      1.049794    57A      1.083937    58A      1.094517
      59A      1.115527    60A      1.151056    61A      1.231897
      62A      1.245463    63A      1.251864    64A      1.335297
      65A      1.347874    66A      1.376696    67A      1.398123
      68A      1.540731    69A      1.571206    70A      1.575703
      71A      1.597954    72A      1.605242    73A      1.611539
      74A      1.660857    75A      1.682311    76A      1.713569
      77A      1.742904    78A      1.778898    79A      1.830797
      80A      1.848706    81A      1.867342    82A      1.964598
      83A      1.991363    84A      2.018970    85A      2.039775
      86A      2.061073    87A      2.074926    88A      2.078611
      89A      2.084406    90A      2.086988    91A      2.106652
      92A      2.137513    93A      2.162898    94A      2.216153
      95A      2.220980    96A      2.245840    97A      2.257037
      98A      2.352126    99A      2.405655   100A      2.433175
     101A      2.442703   102A      2.508071   103A      2.563285
     104A      2.592771   105A      2.613561   106A      2.667420
     107A      2.681531   108A      2.699063   109A      2.730440
     110A      2.769082   111A      2.870598   112A      2.919258
     113A      2.930656   114A      2.951750   115A      2.972614
     116A      2.977575   117A      2.999608   118A      3.068662
     119A      3.081502   120A      3.247801   121A      3.279344
     122A      3.302436   123A      3.367164   124A      3.630769
     125A      3.793657   126A      3.850306   127A      4.059593
     128A      4.087606   129A      4.189909

    Final Occupation by Irrep:
              A
    DOCC [    25 ]

  @RHF Final Energy:  -306.47486926830663

   => Energetics <=

    Nuclear Repulsion Energy =            220.7545277491074387
    One-Electron Energy =                -865.7917038341762463
    Two-Electron Energy =                 338.5623068167622023
    Total Energy =                       -306.4748692683066338

Computation Completed

Properties will be evaluated at   0.000000,   0.000000,   0.000000 [a0]

Properties computed using the SCF density matrix

  Nuclear Dipole Moment: [e a0]
     X:    -0.4118      Y:    -5.0706      Z:   -10.8891

  Electronic Dipole Moment: [e a0]
     X:     0.5552      Y:     3.7434      Z:     8.8229

  Dipole Moment: [e a0]
     X:     0.1434      Y:    -1.3272      Z:    -2.0662     Total:     2.4600

  Dipole Moment: [D]
     X:     0.3644      Y:    -3.3735      Z:    -5.2519     Total:     6.2526

*** tstop() called on ds3 at Mon Apr 27 20:52:03 2020
Module time:
	user time   =      12.12 seconds =       0.20 minutes
	system time =       5.46 seconds =       0.09 minutes
	total time  =         17 seconds =       0.28 minutes
Total time:
	user time   =      12.12 seconds =       0.20 minutes
	system time =       5.46 seconds =       0.09 minutes
	total time  =         17 seconds =       0.28 minutes
                                     G D M A

                                 by Anthony Stone

                           version 2.2.06, 22 June 2011

               Distributed Multipoles from Gaussian wavefunctions

Starting at 20:52:3 on 27 Apr 2020

Using SCF density matrix from file ./SSI/SSI-029GLU-045LEU-1-dimer.test.19445.fchk

                         Distributed Multipole Analysis

Standard DMA

Positions and radii in angstrom
Multipole moments in atomic units, ea_0^k for rank k

C          x =  1.394438  y = -0.899840  z =  1.606371 angstrom
           Maximum rank =  0   Radius =  0.650 angstrom
                   Q00  =  -0.281407

C          x =  0.388438  y =  0.219160  z =  1.392371 angstrom
           Maximum rank =  0   Radius =  0.650 angstrom
                   Q00  =   0.971732

O          x = -0.830562  y = -0.049840  z =  1.309371 angstrom
           Maximum rank =  0   Radius =  0.650 angstrom
                   Q00  =  -0.921346

O          x =  0.861438  y =  1.383160  z =  1.356371 angstrom
           Maximum rank =  0   Radius =  0.650 angstrom
                   Q00  =  -0.938721

H          x =  1.728438  y = -0.828840  z =  2.641371 angstrom
           Maximum rank =  0   Radius =  0.325 angstrom
                   Q00  =   0.075498

H          x =  2.271438  y = -0.740840  z =  0.976371 angstrom
           Maximum rank =  0   Radius =  0.325 angstrom
                   Q00  =   0.058015

H          x =  1.004788  y = -1.909200  z =  1.407951 angstrom
           Maximum rank =  0   Radius =  0.325 angstrom
                   Q00  =   0.043229

C          x = -0.595562  y = -0.364840  z = -2.081629 angstrom
           Maximum rank =  0   Radius =  0.650 angstrom
                   Q00  =  -0.187449

C          x = -1.191562  y = -0.276840  z = -3.493629 angstrom
           Maximum rank =  0   Radius =  0.650 angstrom
                   Q00  =  -0.254842

H          x = -1.163562  y =  0.270160  z = -1.403629 angstrom
           Maximum rank =  0   Radius =  0.325 angstrom
                   Q00  =   0.114054

H          x = -0.642562  y = -1.389840  z = -1.724629 angstrom
           Maximum rank =  0   Radius =  0.325 angstrom
                   Q00  =   0.068540

H          x =  0.444438  y = -0.040840  z = -2.093629 angstrom
           Maximum rank =  0   Radius =  0.325 angstrom
                   Q00  =   0.070300

H          x = -2.236562  y = -0.578840  z = -3.419629 angstrom
           Maximum rank =  0   Radius =  0.325 angstrom
                   Q00  =   0.061631

H          x = -1.152762  y =  0.771390  z = -3.824839 angstrom
           Maximum rank =  0   Radius =  0.325 angstrom
                   Q00  =   0.067237

H          x = -0.693112  y = -0.968780  z = -4.188443 angstrom
           Maximum rank =  0   Radius =  0.325 angstrom
                   Q00  =   0.053530

Total multipoles referred to origin at
           x =   0.000000,  y =    0.000000,  z =    0.000000 angstrom
                   Q00  =  -1.000000

Finished at 20:52:3 on 27 Apr 2020

  DMA results are available in the Python driver through the
	  variable('DMA DISTRIBUTED MULTIPOLES')
  and
	  variable('DMA TOTAL MULTIPOLES')
  commands.

    Psi4 stopped on: Monday, 27 April 2020 08:52PM
    Psi4 wall time for execution: 0:00:17.19

*** Psi4 exiting successfully. Buy a developer a beer!
