                               Psi4 1.3.2 release

  ==> Input File <==

--------------------------------------------------------------------------
import numpy as np
set {scf_type pk
basis cc-pvdz
d_convergence 10
gdma_switch   0
gdma_limit    0
gdma_origin   [ 0.0,  0.0,  0.0 ]
}
molecule test {
    units Angstrom
    0 1
    --
    0 1
    C               -1.423230265403380    -1.428390405613750     0.522803745988984
    C               -1.485230265403380    -1.529390405613751     2.044803745988984
    C               -2.667230265403381    -2.029390405613750    -0.126196254011016
    H               -1.380230265403380    -0.376390405613751     0.246803745988984
    H               -0.531230265403380    -1.935390405613751     0.149803745988984
    H               -1.577230265403381    -2.583390405613751     2.314803745988984
    H               -3.562230265403381    -1.544390405613750     0.258803745988984
    H               -2.352750265403381    -0.973269405613750     2.429693745988984
    H               -0.549270265403380    -1.168017405613750     2.495797745988984
    H               -2.639990265403381    -1.835009405613750    -1.208543254011016
    H               -2.753420265403380    -3.110361005613751     0.058394745988984
    C                1.133769734596620     1.163609594386249    -0.397196254011016
    C                0.753769734596620     2.470609594386249    -1.103196254011016
    C                1.359769734596620     0.043609594386249    -1.401196254011016
    C                2.385769734596619     1.374609594386250     0.441803745988984
    H                0.334769734596620     0.879609594386250     0.278803745988984
    H                1.610769734596620     2.798609594386249    -1.690196254011016
    H                1.790769734596620    -0.820390405613751    -0.894196254011016
    H                0.414769734596620    -0.272390405613751    -1.844196254011016
    H                2.033769734596619     0.371609594386249    -2.191196254011016
    H                2.653769734596620     0.443609594386249     0.937803745988984
    H                3.218769734596620     1.685609594386250    -0.187196254011016
    H                2.207769734596619     2.120609594386249     1.215803745988984
    H                0.489073734596620     3.242765594386249    -0.365828254011016
    H               -0.091190265403380     2.299451594386249    -1.786386254011016

}
e, wfn = energy('scf', return_wfn=True)
gdma(wfn)
dmavals = variable('DMA DISTRIBUTED MULTIPOLES')
charges = np.array(dmavals)
print(charges)
np.save('SSI-089LEU-127VAL-1-dimer.npy', np.array(charges))--------------------------------------------------------------------------

*** tstart() called on ds3
*** at Sun Apr 26 20:02:31 2020

   => Loading Basis Set <=

    Name: CC-PVDZ
    Role: ORBITAL
    Keyword: BASIS
    atoms 1-3, 12-15  entry C          line   138 file /theoryfs2/ds/metcalf/miniconda2/envs/tf2gpu/share/psi4/basis/cc-pvdz.gbs
    atoms 4-11, 16-25 entry H          line    22 file /theoryfs2/ds/metcalf/miniconda2/envs/tf2gpu/share/psi4/basis/cc-pvdz.gbs

         ---------------------------------------------------------
                                   SCF
               by Justin Turney, Rob Parrish, Andy Simmonett
                          and Daniel G. A. Smith
                              RHF Reference
                        1 Threads,    500 MiB Core
         ---------------------------------------------------------

  ==> Geometry <==

    Molecular point group: c1
    Full point group: C1

    Geometry (in Angstrom), charge = 0, multiplicity = 1:

       Center              X                  Y                   Z               Mass
    ------------   -----------------  -----------------  -----------------  -----------------
         C           -1.423230265403    -1.428390405614     0.522803745989    12.000000000000
         C           -1.485230265403    -1.529390405614     2.044803745989    12.000000000000
         C           -2.667230265403    -2.029390405614    -0.126196254011    12.000000000000
         H           -1.380230265403    -0.376390405614     0.246803745989     1.007825032230
         H           -0.531230265403    -1.935390405614     0.149803745989     1.007825032230
         H           -1.577230265403    -2.583390405614     2.314803745989     1.007825032230
         H           -3.562230265403    -1.544390405614     0.258803745989     1.007825032230
         H           -2.352750265403    -0.973269405614     2.429693745989     1.007825032230
         H           -0.549270265403    -1.168017405614     2.495797745989     1.007825032230
         H           -2.639990265403    -1.835009405614    -1.208543254011     1.007825032230
         H           -2.753420265403    -3.110361005614     0.058394745989     1.007825032230
         C            1.133769734597     1.163609594386    -0.397196254011    12.000000000000
         C            0.753769734597     2.470609594386    -1.103196254011    12.000000000000
         C            1.359769734597     0.043609594386    -1.401196254011    12.000000000000
         C            2.385769734597     1.374609594386     0.441803745989    12.000000000000
         H            0.334769734597     0.879609594386     0.278803745989     1.007825032230
         H            1.610769734597     2.798609594386    -1.690196254011     1.007825032230
         H            1.790769734597    -0.820390405614    -0.894196254011     1.007825032230
         H            0.414769734597    -0.272390405614    -1.844196254011     1.007825032230
         H            2.033769734597     0.371609594386    -2.191196254011     1.007825032230
         H            2.653769734597     0.443609594386     0.937803745989     1.007825032230
         H            3.218769734597     1.685609594386    -0.187196254011     1.007825032230
         H            2.207769734597     2.120609594386     1.215803745989     1.007825032230
         H            0.489073734597     3.242765594386    -0.365828254011     1.007825032230
         H           -0.091190265403     2.299451594386    -1.786386254011     1.007825032230

  Running in c1 symmetry.

  Rotational constants: A =      0.10750  B =      0.02694  C =      0.02498 [cm^-1]
  Rotational constants: A =   3222.86512  B =    807.49941  C =    748.79131 [MHz]
  Nuclear repulsion =  315.151360923902871

  Charge       = 0
  Multiplicity = 1
  Electrons    = 60
  Nalpha       = 30
  Nbeta        = 30

  ==> Algorithm <==

  SCF Algorithm Type is PK.
  DIIS enabled.
  MOM disabled.
  Fractional occupation disabled.
  Guess Type is SAD.
  Energy threshold   = 1.00e-06
  Density threshold  = 1.00e-10
  Integral threshold = 0.00e+00

  ==> Primary Basis <==

  Basis Set: CC-PVDZ
    Blend: CC-PVDZ
    Number of shells: 96
    Number of basis function: 188
    Number of Cartesian functions: 195
    Spherical Harmonics?: true
    Max angular momentum: 2

  ==> Pre-Iterations <==

   -------------------------------------------------------
    Irrep   Nso     Nmo     Nalpha   Nbeta   Ndocc  Nsocc
   -------------------------------------------------------
     A        188     188       0       0       0       0
   -------------------------------------------------------
    Total     188     188      30      30      30       0
   -------------------------------------------------------

  ==> Integral Setup <==

  Using integral reordering PK algorithm.
  Sizing the integral batches needed.
  Building batch lookup table.
   Calculation information:
      Number of atoms:                  25
      Number of AO shells:              96
      Number of primitives:            244
      Number of atomic orbitals:       195
      Number of basis functions:       188

      Integral cutoff                 1.00e-12
      Number of threads:                 1

	Batch   1 pq = [       0,    9405] index = [             0,44231715] size =     44231715
	Batch   2 pq = [    9405,   13301] index = [      44231715,88464951] size =     44233236
	Batch   3 pq = [   13301,   16290] index = [      88464951,132690195] size =     44225244
	Batch   4 pq = [   16290,   17766] index = [     132690195,157824261] size =     25134066
  Task number: 15
  Buffer size: 11059200
  Buffer per thread: 2
  We computed 9804304 shell quartets total.
  Whereas there are 10841496 unique shell quartets.

  ==> DiskJK: Disk-Based J/K Matrices <==

    J tasked:                  Yes
    K tasked:                  Yes
    wK tasked:                  No
    Memory [MiB]:              375
    Schwarz Cutoff:          1E-12

    OpenMP threads:              1

  Minimum eigenvalue in the overlap matrix is 4.4253252772E-03.
  Using Symmetric Orthogonalization.

  SCF Guess: Superposition of Atomic Densities via on-the-fly atomic UHF.

  ==> Iterations <==

                        Total Energy        Delta E     RMS |[F,P]|

   @RHF iter SAD:  -274.48121763804681   -2.74481e+02   0.00000e+00
   @RHF iter   1:  -275.31520998314278   -8.33992e-01   3.29536e-03 DIIS
   @RHF iter   2:  -275.53380557819247   -2.18596e-01   1.44474e-03 DIIS
   @RHF iter   3:  -275.57334239692204   -3.95368e-02   2.96410e-04 DIIS
   @RHF iter   4:  -275.57638964710975   -3.04725e-03   6.29312e-05 DIIS
   @RHF iter   5:  -275.57648285187838   -9.32048e-05   1.41779e-05 DIIS
   @RHF iter   6:  -275.57648875734947   -5.90547e-06   2.60605e-06 DIIS
   @RHF iter   7:  -275.57648896163772   -2.04288e-07   6.20205e-07 DIIS
   @RHF iter   8:  -275.57648897502787   -1.33901e-08   1.63860e-07 DIIS
   @RHF iter   9:  -275.57648897587546   -8.47592e-10   4.19442e-08 DIIS
   @RHF iter  10:  -275.57648897595232   -7.68523e-11   8.41361e-09 DIIS
   @RHF iter  11:  -275.57648897595459   -2.27374e-12   2.03606e-09 DIIS
   @RHF iter  12:  -275.57648897595379    7.95808e-13   5.71778e-10 DIIS
   @RHF iter  13:  -275.57648897595590   -2.10321e-12   1.15865e-10 DIIS
   @RHF iter  14:  -275.57648897595629   -3.97904e-13   2.84895e-11 DIIS
  Energy and wave function converged.

  ==> Post-Iterations <==

    Orbital Energies [Eh]
    ---------------------

    Doubly Occupied:

       1A    -11.220107     2A    -11.219716     3A    -11.217725
       4A    -11.216916     5A    -11.215591     6A    -11.212306
       7A    -11.211412     8A     -1.084055     9A     -1.055264
      10A     -0.926864    11A     -0.924967    12A     -0.923014
      13A     -0.797678    14A     -0.764339    15A     -0.634432
      16A     -0.628410    17A     -0.594046    18A     -0.589717
      19A     -0.586478    20A     -0.548196    21A     -0.537879
      22A     -0.532706    23A     -0.531514    24A     -0.506640
      25A     -0.475326    26A     -0.473499    27A     -0.467492
      28A     -0.458651    29A     -0.454783    30A     -0.453614

    Virtual:

      31A      0.164804    32A      0.193294    33A      0.199006
      34A      0.214945    35A      0.223202    36A      0.240267
      37A      0.241802    38A      0.253940    39A      0.258461
      40A      0.272451    41A      0.274891    42A      0.288152
      43A      0.302571    44A      0.305098    45A      0.309605
      46A      0.321348    47A      0.329595    48A      0.346043
      49A      0.368236    50A      0.382470    51A      0.403420
      52A      0.422862    53A      0.435170    54A      0.550049
      55A      0.568653    56A      0.585851    57A      0.601828
      58A      0.605291    59A      0.609063    60A      0.620493
      61A      0.629558    62A      0.641465    63A      0.736989
      64A      0.762461    65A      0.777812    66A      0.793866
      67A      0.806987    68A      0.817703    69A      0.831847
      70A      0.851450    71A      0.862902    72A      0.878081
      73A      0.883967    74A      0.888042    75A      0.893168
      76A      0.897962    77A      0.899823    78A      0.905182
      79A      0.908744    80A      0.909658    81A      0.916040
      82A      0.920741    83A      0.933120    84A      0.939546
      85A      0.944858    86A      0.959435    87A      0.964513
      88A      0.974558    89A      0.987736    90A      1.007962
      91A      1.016316    92A      1.035945    93A      1.127648
      94A      1.132957    95A      1.136597    96A      1.157590
      97A      1.181100    98A      1.214411    99A      1.371608
     100A      1.381444   101A      1.411344   102A      1.414651
     103A      1.470922   104A      1.482215   105A      1.541408
     106A      1.560409   107A      1.566994   108A      1.624945
     109A      1.660059   110A      1.673317   111A      1.679866
     112A      1.683163   113A      1.686022   114A      1.694831
     115A      1.699974   116A      1.715937   117A      1.718900
     118A      1.732817   119A      1.840743   120A      1.844872
     121A      1.857159   122A      1.873192   123A      1.879384
     124A      1.892419   125A      1.915042   126A      1.928652
     127A      1.930672   128A      1.940681   129A      1.950318
     130A      1.953601   131A      1.968857   132A      1.978185
     133A      1.978240   134A      1.983030   135A      1.989235
     136A      1.992366   137A      2.002801   138A      2.009964
     139A      2.018139   140A      2.034064   141A      2.045205
     142A      2.077573   143A      2.088267   144A      2.117202
     145A      2.135608   146A      2.145086   147A      2.147365
     148A      2.155453   149A      2.246137   150A      2.261469
     151A      2.293948   152A      2.298870   153A      2.302937
     154A      2.317086   155A      2.336412   156A      2.340392
     157A      2.351184   158A      2.374150   159A      2.377909
     160A      2.481719   161A      2.504680   162A      2.525154
     163A      2.568843   164A      2.587994   165A      2.604935
     166A      2.607652   167A      2.625846   168A      2.647902
     169A      2.714586   170A      2.726907   171A      2.750760
     172A      2.756451   173A      2.761731   174A      2.785242
     175A      2.791653   176A      2.797736   177A      2.807441
     178A      2.819574   179A      2.832781   180A      2.854028
     181A      2.861093   182A      2.905614   183A      2.972344
     184A      2.978530   185A      3.016599   186A      3.026180
     187A      3.073028   188A      3.145050

    Final Occupation by Irrep:
              A
    DOCC [    30 ]

  @RHF Final Energy:  -275.57648897595629

   => Energetics <=

    Nuclear Repulsion Energy =            315.1513609239028710
    One-Electron Energy =                -994.5290244151746037
    Two-Electron Energy =                 403.8011745153154379
    Total Energy =                       -275.5764889759562948

Computation Completed

Properties will be evaluated at   0.000000,   0.000000,   0.000000 [a0]

Properties computed using the SCF density matrix

  Nuclear Dipole Moment: [e a0]
     X:    -0.6406      Y:    -0.7285      Z:     0.2051

  Electronic Dipole Moment: [e a0]
     X:     0.6218      Y:     0.7117      Z:    -0.1907

  Dipole Moment: [e a0]
     X:    -0.0187      Y:    -0.0168      Z:     0.0144     Total:     0.0290

  Dipole Moment: [D]
     X:    -0.0476      Y:    -0.0427      Z:     0.0367     Total:     0.0737

*** tstop() called on ds3 at Sun Apr 26 20:03:39 2020
Module time:
	user time   =      51.48 seconds =       0.86 minutes
	system time =      19.83 seconds =       0.33 minutes
	total time  =         68 seconds =       1.13 minutes
Total time:
	user time   =      51.48 seconds =       0.86 minutes
	system time =      19.83 seconds =       0.33 minutes
	total time  =         68 seconds =       1.13 minutes
                                     G D M A

                                 by Anthony Stone

                           version 2.2.06, 22 June 2011

               Distributed Multipoles from Gaussian wavefunctions

Starting at 20:3:39 on 26 Apr 2020

Using SCF density matrix from file ./SSI/SSI-089LEU-127VAL-1-dimer.test.10605.fchk

                         Distributed Multipole Analysis

Standard DMA

Positions and radii in angstrom
Multipole moments in atomic units, ea_0^k for rank k

C          x = -1.423230  y = -1.428390  z =  0.522804 angstrom
           Maximum rank =  0   Radius =  0.650 angstrom
                   Q00  =  -0.078422

C          x = -1.485230  y = -1.529390  z =  2.044804 angstrom
           Maximum rank =  0   Radius =  0.650 angstrom
                   Q00  =  -0.238402

C          x = -2.667230  y = -2.029390  z = -0.126196 angstrom
           Maximum rank =  0   Radius =  0.650 angstrom
                   Q00  =  -0.245358

H          x = -1.380230  y = -0.376390  z =  0.246804 angstrom
           Maximum rank =  0   Radius =  0.325 angstrom
                   Q00  =   0.043018

H          x = -0.531230  y = -1.935390  z =  0.149804 angstrom
           Maximum rank =  0   Radius =  0.325 angstrom
                   Q00  =   0.051959

H          x = -1.577230  y = -2.583390  z =  2.314804 angstrom
           Maximum rank =  0   Radius =  0.325 angstrom
                   Q00  =   0.074769

H          x = -3.562230  y = -1.544390  z =  0.258804 angstrom
           Maximum rank =  0   Radius =  0.325 angstrom
                   Q00  =   0.076435

H          x = -2.352750  y = -0.973269  z =  2.429694 angstrom
           Maximum rank =  0   Radius =  0.325 angstrom
                   Q00  =   0.078344

H          x = -0.549270  y = -1.168017  z =  2.495798 angstrom
           Maximum rank =  0   Radius =  0.325 angstrom
                   Q00  =   0.081954

H          x = -2.639990  y = -1.835009  z = -1.208543 angstrom
           Maximum rank =  0   Radius =  0.325 angstrom
                   Q00  =   0.080240

H          x = -2.753420  y = -3.110361  z =  0.058395 angstrom
           Maximum rank =  0   Radius =  0.325 angstrom
                   Q00  =   0.077724

C          x =  1.133770  y =  1.163610  z = -0.397196 angstrom
           Maximum rank =  0   Radius =  0.650 angstrom
                   Q00  =  -0.005892

C          x =  0.753770  y =  2.470610  z = -1.103196 angstrom
           Maximum rank =  0   Radius =  0.650 angstrom
                   Q00  =  -0.230353

C          x =  1.359770  y =  0.043610  z = -1.401196 angstrom
           Maximum rank =  0   Radius =  0.650 angstrom
                   Q00  =  -0.240568

C          x =  2.385770  y =  1.374610  z =  0.441804 angstrom
           Maximum rank =  0   Radius =  0.650 angstrom
                   Q00  =  -0.245209

H          x =  0.334770  y =  0.879610  z =  0.278804 angstrom
           Maximum rank =  0   Radius =  0.325 angstrom
                   Q00  =   0.016793

H          x =  1.610770  y =  2.798610  z = -1.690196 angstrom
           Maximum rank =  0   Radius =  0.325 angstrom
                   Q00  =   0.076066

H          x =  1.790770  y = -0.820390  z = -0.894196 angstrom
           Maximum rank =  0   Radius =  0.325 angstrom
                   Q00  =   0.077795

H          x =  0.414770  y = -0.272390  z = -1.844196 angstrom
           Maximum rank =  0   Radius =  0.325 angstrom
                   Q00  =   0.082252

H          x =  2.033770  y =  0.371610  z = -2.191196 angstrom
           Maximum rank =  0   Radius =  0.325 angstrom
                   Q00  =   0.075992

H          x =  2.653770  y =  0.443610  z =  0.937804 angstrom
           Maximum rank =  0   Radius =  0.325 angstrom
                   Q00  =   0.077741

H          x =  3.218770  y =  1.685610  z = -0.187196 angstrom
           Maximum rank =  0   Radius =  0.325 angstrom
                   Q00  =   0.074115

H          x =  2.207770  y =  2.120610  z =  1.215804 angstrom
           Maximum rank =  0   Radius =  0.325 angstrom
                   Q00  =   0.079706

H          x =  0.489074  y =  3.242766  z = -0.365828 angstrom
           Maximum rank =  0   Radius =  0.325 angstrom
                   Q00  =   0.081414

H          x = -0.091190  y =  2.299452  z = -1.786386 angstrom
           Maximum rank =  0   Radius =  0.325 angstrom
                   Q00  =   0.077887

Total multipoles referred to origin at
           x =   0.000000,  y =    0.000000,  z =    0.000000 angstrom
                   Q00  =  -0.000000

Finished at 20:3:39 on 26 Apr 2020

  DMA results are available in the Python driver through the
	  variable('DMA DISTRIBUTED MULTIPOLES')
  and
	  variable('DMA TOTAL MULTIPOLES')
  commands.

    Psi4 stopped on: Sunday, 26 April 2020 08:03PM
    Psi4 wall time for execution: 0:01:08.94

*** Psi4 exiting successfully. Buy a developer a beer!
