                               Psi4 1.3.2 release

  ==> Input File <==

--------------------------------------------------------------------------
import numpy as np
set {scf_type pk
basis cc-pvdz
d_convergence 10
gdma_switch   0
gdma_limit    0
gdma_origin   [ 0.0,  0.0,  0.0 ]
}
molecule test {
    units Angstrom
    0 1
    --
    0 1
    C               -0.671386480548399     3.052511632134277    -0.633589453534567
    C               -0.307386480548399     0.664511632134276     0.410410546465433
    C                0.144613519451601     1.979511632134276     0.040410546465433
    C                0.773613519451601     0.003511632134276     1.052410546465433
    C                1.439613519451601     2.062511632134276     0.459410546465433
    C               -1.624386480548399    -1.319488367865723     0.759410546465433
    C               -0.537386480548399    -1.947488367865724     1.382410546465433
    C               -1.521386480548399    -0.015488367865724     0.274410546465433
    C                0.672613519451601    -1.291488367865724     1.540410546465433
    N                1.818613519451601     0.888511632134276     1.069410546465433
    H               -2.561386480548399    -1.847488367865723     0.656410546465433
    H               -0.645386480548399    -2.960488367865724     1.749410546465433
    H               -2.361386480548399     0.465511632134276    -0.204589453534567
    H                1.510613519451601    -1.768488367865724     2.028410546465433
    H               -0.256386480548399     4.029511632134277    -0.380589453534567
    H               -1.669386480548399     3.010511632134276    -0.194589453534567
    H                2.070613519451601     2.938511632134276     0.343410546465433
    H                2.727613519451601     0.731511632134276     1.490410546465433
    H               -0.770366480548399     2.968601632134277    -1.725909453534567
    C                0.248613519451601    -2.288488367865723    -2.176589453534567
    C               -0.514386480548399    -1.598488367865724    -3.295589453534567
    H                0.096613519451601    -3.364488367865723    -2.216589453534567
    H                1.313613519451601    -2.076488367865724    -2.273589453534567
    H               -0.087386480548399    -1.911488367865724    -1.221589453534567
    H               -0.336386480548399    -0.529488367865724    -3.179589453534567
    H               -1.590596480548399    -1.817048367865724    -3.232279453534567
    H               -0.118606480548399    -1.898588367865723    -4.277069453534567

}
e, wfn = energy('scf', return_wfn=True)
gdma(wfn)
dmavals = variable('DMA DISTRIBUTED MULTIPOLES')
charges = np.array(dmavals)
print(charges)
np.save('SSI-062TRP-073ALA-1-dimer.npy', np.array(charges))--------------------------------------------------------------------------

*** tstart() called on ds3
*** at Tue Apr 28 16:50:43 2020

   => Loading Basis Set <=

    Name: CC-PVDZ
    Role: ORBITAL
    Keyword: BASIS
    atoms 1-9, 20-21   entry C          line   138 file /theoryfs2/ds/metcalf/miniconda2/envs/tf2gpu/share/psi4/basis/cc-pvdz.gbs
    atoms 10           entry N          line   168 file /theoryfs2/ds/metcalf/miniconda2/envs/tf2gpu/share/psi4/basis/cc-pvdz.gbs
    atoms 11-19, 22-27 entry H          line    22 file /theoryfs2/ds/metcalf/miniconda2/envs/tf2gpu/share/psi4/basis/cc-pvdz.gbs

         ---------------------------------------------------------
                                   SCF
               by Justin Turney, Rob Parrish, Andy Simmonett
                          and Daniel G. A. Smith
                              RHF Reference
                        1 Threads,    500 MiB Core
         ---------------------------------------------------------

  ==> Geometry <==

    Molecular point group: c1
    Full point group: C1

    Geometry (in Angstrom), charge = 0, multiplicity = 1:

       Center              X                  Y                   Z               Mass
    ------------   -----------------  -----------------  -----------------  -----------------
         C           -0.671386480548     3.052511632134    -0.633589453535    12.000000000000
         C           -0.307386480548     0.664511632134     0.410410546465    12.000000000000
         C            0.144613519452     1.979511632134     0.040410546465    12.000000000000
         C            0.773613519452     0.003511632134     1.052410546465    12.000000000000
         C            1.439613519452     2.062511632134     0.459410546465    12.000000000000
         C           -1.624386480548    -1.319488367866     0.759410546465    12.000000000000
         C           -0.537386480548    -1.947488367866     1.382410546465    12.000000000000
         C           -1.521386480548    -0.015488367866     0.274410546465    12.000000000000
         C            0.672613519452    -1.291488367866     1.540410546465    12.000000000000
         N            1.818613519452     0.888511632134     1.069410546465    14.003074004430
         H           -2.561386480548    -1.847488367866     0.656410546465     1.007825032230
         H           -0.645386480548    -2.960488367866     1.749410546465     1.007825032230
         H           -2.361386480548     0.465511632134    -0.204589453535     1.007825032230
         H            1.510613519452    -1.768488367866     2.028410546465     1.007825032230
         H           -0.256386480548     4.029511632134    -0.380589453535     1.007825032230
         H           -1.669386480548     3.010511632134    -0.194589453535     1.007825032230
         H            2.070613519452     2.938511632134     0.343410546465     1.007825032230
         H            2.727613519452     0.731511632134     1.490410546465     1.007825032230
         H           -0.770366480548     2.968601632134    -1.725909453535     1.007825032230
         C            0.248613519452    -2.288488367866    -2.176589453535    12.000000000000
         C           -0.514386480548    -1.598488367866    -3.295589453535    12.000000000000
         H            0.096613519452    -3.364488367866    -2.216589453535     1.007825032230
         H            1.313613519452    -2.076488367866    -2.273589453535     1.007825032230
         H           -0.087386480548    -1.911488367866    -1.221589453535     1.007825032230
         H           -0.336386480548    -0.529488367866    -3.179589453535     1.007825032230
         H           -1.590596480548    -1.817048367866    -3.232279453535     1.007825032230
         H           -0.118606480548    -1.898588367866    -4.277069453535     1.007825032230

  Running in c1 symmetry.

  Rotational constants: A =      0.03457  B =      0.02365  C =      0.01946 [cm^-1]
  Rotational constants: A =   1036.24526  B =    708.92975  C =    583.45787 [MHz]
  Nuclear repulsion =  672.611161519310372

  Charge       = 0
  Multiplicity = 1
  Electrons    = 88
  Nalpha       = 44
  Nbeta        = 44

  ==> Algorithm <==

  SCF Algorithm Type is PK.
  DIIS enabled.
  MOM disabled.
  Fractional occupation disabled.
  Guess Type is SAD.
  Energy threshold   = 1.00e-06
  Density threshold  = 1.00e-10
  Integral threshold = 0.00e+00

  ==> Primary Basis <==

  Basis Set: CC-PVDZ
    Blend: CC-PVDZ
    Number of shells: 117
    Number of basis function: 243
    Number of Cartesian functions: 255
    Spherical Harmonics?: true
    Max angular momentum: 2

  ==> Pre-Iterations <==

   -------------------------------------------------------
    Irrep   Nso     Nmo     Nalpha   Nbeta   Ndocc  Nsocc
   -------------------------------------------------------
     A        243     243       0       0       0       0
   -------------------------------------------------------
    Total     243     243      44      44      44       0
   -------------------------------------------------------

  ==> Integral Setup <==

  Using integral reordering PK algorithm.
  Sizing the integral batches needed.
  Building batch lookup table.
   Calculation information:
      Number of atoms:                  27
      Number of AO shells:             117
      Number of primitives:            339
      Number of atomic orbitals:       255
      Number of basis functions:       243

      Integral cutoff                 1.00e-12
      Number of threads:                 1

	Batch   1 pq = [       0,    9405] index = [             0,44231715] size =     44231715
	Batch   2 pq = [    9405,   13301] index = [      44231715,88464951] size =     44233236
	Batch   3 pq = [   13301,   16290] index = [      88464951,132690195] size =     44225244
	Batch   4 pq = [   16290,   18810] index = [     132690195,176917455] size =     44227260
	Batch   5 pq = [   18810,   21030] index = [     176917455,221140965] size =     44223510
	Batch   6 pq = [   21030,   23037] index = [     221140965,265363203] size =     44222238
	Batch   7 pq = [   23037,   24883] index = [     265363203,309594286] size =     44231083
	Batch   8 pq = [   24883,   26601] index = [     309594286,353819901] size =     44225615
	Batch   9 pq = [   26601,   28214] index = [     353819901,398029005] size =     44209104
	Batch  10 pq = [   28214,   29646] index = [     398029005,439457481] size =     41428476
  Task number: 40
  Buffer size: 11059200
  Buffer per thread: 2
  We computed 25338064 shell quartets total.
  Whereas there are 23829156 unique shell quartets.
     6.33 percent of shell quartets recomputed by reordering.

  ==> DiskJK: Disk-Based J/K Matrices <==

    J tasked:                  Yes
    K tasked:                  Yes
    wK tasked:                  No
    Memory [MiB]:              375
    Schwarz Cutoff:          1E-12

    OpenMP threads:              1

  Minimum eigenvalue in the overlap matrix is 2.4209821463E-04.
  Using Symmetric Orthogonalization.

  SCF Guess: Superposition of Atomic Densities via on-the-fly atomic UHF.

  ==> Iterations <==

                        Total Energy        Delta E     RMS |[F,P]|

   @RHF iter SAD:  -479.06097406626685   -4.79061e+02   0.00000e+00
   @RHF iter   1:  -479.48782108617678   -4.26847e-01   2.60725e-03 DIIS
   @RHF iter   2:  -479.71938612694083   -2.31565e-01   1.16579e-03 DIIS
   @RHF iter   3:  -479.76165896486259   -4.22728e-02   3.06930e-04 DIIS
   @RHF iter   4:  -479.76550916621187   -3.85020e-03   1.41127e-04 DIIS
   @RHF iter   5:  -479.76617847476734   -6.69309e-04   2.00974e-05 DIIS
   @RHF iter   6:  -479.76620758737226   -2.91126e-05   9.13215e-06 DIIS
   @RHF iter   7:  -479.76621341738382   -5.83001e-06   3.76232e-06 DIIS
   @RHF iter   8:  -479.76621502981413   -1.61243e-06   1.48514e-06 DIIS
   @RHF iter   9:  -479.76621535474277   -3.24929e-07   6.48475e-07 DIIS
   @RHF iter  10:  -479.76621541748773   -6.27450e-08   2.97944e-07 DIIS
   @RHF iter  11:  -479.76621543295511   -1.54674e-08   1.14902e-07 DIIS
   @RHF iter  12:  -479.76621543526591   -2.31080e-09   3.83460e-08 DIIS
   @RHF iter  13:  -479.76621543542694   -1.61037e-10   1.01980e-08 DIIS
   @RHF iter  14:  -479.76621543544474   -1.77920e-11   4.33757e-09 DIIS
   @RHF iter  15:  -479.76621543544439    3.41061e-13   2.23978e-09 DIIS
   @RHF iter  16:  -479.76621543544286    1.53477e-12   9.80393e-10 DIIS
   @RHF iter  17:  -479.76621543544900   -6.13909e-12   4.30141e-10 DIIS
   @RHF iter  18:  -479.76621543544059    8.41283e-12   1.62123e-10 DIIS
   @RHF iter  19:  -479.76621543544775   -7.16227e-12   5.27058e-11 DIIS
  Energy and wave function converged.

  ==> Post-Iterations <==

    Orbital Energies [Eh]
    ---------------------

    Doubly Occupied:

       1A    -15.603138     2A    -11.266767     3A    -11.266073
       4A    -11.232158     5A    -11.232068     6A    -11.230485
       7A    -11.229069     8A    -11.222739     9A    -11.222550
      10A    -11.220518    11A    -11.204436    12A    -11.193861
      13A     -1.296634    14A     -1.130549    15A     -1.073705
      16A     -1.004578    17A     -0.998343    18A     -0.988688
      19A     -0.932639    20A     -0.841348    21A     -0.819630
      22A     -0.805195    23A     -0.754688    24A     -0.721186
      25A     -0.663917    26A     -0.642910    27A     -0.604243
      28A     -0.595229    29A     -0.592094    30A     -0.584891
      31A     -0.581676    32A     -0.568356    33A     -0.554103
      34A     -0.537606    35A     -0.527485    36A     -0.495834
      37A     -0.488638    38A     -0.476735    39A     -0.472878
      40A     -0.469693    41A     -0.448252    42A     -0.375138
      43A     -0.297005    44A     -0.277429

    Virtual:

      45A      0.123761    46A      0.166366    47A      0.177737
      48A      0.180331    49A      0.198971    50A      0.208898
      51A      0.219272    52A      0.228517    53A      0.230248
      54A      0.253243    55A      0.261711    56A      0.266508
      57A      0.270598    58A      0.277909    59A      0.291401
      60A      0.297591    61A      0.319557    62A      0.347765
      63A      0.374566    64A      0.381799    65A      0.403265
      66A      0.414550    67A      0.419899    68A      0.442539
      69A      0.470006    70A      0.478873    71A      0.500501
      72A      0.510554    73A      0.585964    74A      0.593999
      75A      0.595197    76A      0.616447    77A      0.619236
      78A      0.634035    79A      0.638525    80A      0.657731
      81A      0.669524    82A      0.678834    83A      0.694167
      84A      0.709160    85A      0.724955    86A      0.729815
      87A      0.740682    88A      0.750013    89A      0.760147
      90A      0.767410    91A      0.776366    92A      0.785183
      93A      0.795438    94A      0.820790    95A      0.836318
      96A      0.845974    97A      0.863855    98A      0.871286
      99A      0.881764   100A      0.883714   101A      0.891689
     102A      0.894892   103A      0.902914   104A      0.908978
     105A      0.924933   106A      0.929161   107A      0.940525
     108A      0.943551   109A      0.948691   110A      0.953283
     111A      0.955542   112A      0.972575   113A      0.979591
     114A      0.989994   115A      1.010154   116A      1.041378
     117A      1.067758   118A      1.079065   119A      1.108671
     120A      1.128595   121A      1.134755   122A      1.142488
     123A      1.145324   124A      1.160277   125A      1.173151
     126A      1.189821   127A      1.211573   128A      1.224298
     129A      1.226679   130A      1.236826   131A      1.249175
     132A      1.273994   133A      1.287857   134A      1.298260
     135A      1.322793   136A      1.328833   137A      1.359156
     138A      1.365250   139A      1.409887   140A      1.431562
     141A      1.465910   142A      1.487218   143A      1.506745
     144A      1.521125   145A      1.546685   146A      1.569027
     147A      1.593738   148A      1.624479   149A      1.640806
     150A      1.646765   151A      1.657217   152A      1.689827
     153A      1.692790   154A      1.700009   155A      1.719491
     156A      1.743420   157A      1.765438   158A      1.767377
     159A      1.782297   160A      1.807590   161A      1.826542
     162A      1.837296   163A      1.871478   164A      1.880725
     165A      1.887336   166A      1.893632   167A      1.900806
     168A      1.909143   169A      1.920394   170A      1.922685
     171A      1.933147   172A      1.939002   173A      1.951489
     174A      1.963246   175A      1.972777   176A      1.975607
     177A      1.985321   178A      1.991522   179A      2.002391
     180A      2.007228   181A      2.015930   182A      2.020620
     183A      2.054291   184A      2.075199   185A      2.082783
     186A      2.096878   187A      2.107723   188A      2.113662
     189A      2.115168   190A      2.128154   191A      2.137183
     192A      2.151862   193A      2.162901   194A      2.175149
     195A      2.187456   196A      2.226721   197A      2.252750
     198A      2.285962   199A      2.298529   200A      2.312756
     201A      2.319479   202A      2.323355   203A      2.348451
     204A      2.354633   205A      2.396439   206A      2.413184
     207A      2.448025   208A      2.463787   209A      2.483597
     210A      2.497447   211A      2.536344   212A      2.581053
     213A      2.591250   214A      2.594535   215A      2.607787
     216A      2.631552   217A      2.661767   218A      2.679702
     219A      2.700548   220A      2.766114   221A      2.778182
     222A      2.782500   223A      2.787306   224A      2.800485
     225A      2.817896   226A      2.841573   227A      2.862258
     228A      2.869728   229A      2.882573   230A      2.893780
     231A      2.913900   232A      2.966173   233A      2.980706
     234A      3.025638   235A      3.040853   236A      3.051830
     237A      3.073076   238A      3.117168   239A      3.199994
     240A      3.300009   241A      3.375491   242A      3.737957
     243A      3.950251

    Final Occupation by Irrep:
              A
    DOCC [    44 ]

  @RHF Final Energy:  -479.76621543544775

   => Energetics <=

    Nuclear Repulsion Energy =            672.6111615193103717
    One-Electron Energy =               -1983.2644386387214581
    Two-Electron Energy =                 830.8870616839633385
    Total Energy =                       -479.7662154354477480

Computation Completed

Properties will be evaluated at   0.000000,   0.000000,   0.000000 [a0]

Properties computed using the SCF density matrix

  Nuclear Dipole Moment: [e a0]
     X:    -2.5160      Y:    -3.7805      Z:   -11.8512

  Electronic Dipole Moment: [e a0]
     X:     3.2526      Y:     4.1638      Z:    12.1778

  Dipole Moment: [e a0]
     X:     0.7366      Y:     0.3833      Z:     0.3267     Total:     0.8923

  Dipole Moment: [D]
     X:     1.8721      Y:     0.9742      Z:     0.8303     Total:     2.2679

*** tstop() called on ds3 at Tue Apr 28 16:54:58 2020
Module time:
	user time   =     192.19 seconds =       3.20 minutes
	system time =      70.69 seconds =       1.18 minutes
	total time  =        255 seconds =       4.25 minutes
Total time:
	user time   =     192.19 seconds =       3.20 minutes
	system time =      70.69 seconds =       1.18 minutes
	total time  =        255 seconds =       4.25 minutes
                                     G D M A

                                 by Anthony Stone

                           version 2.2.06, 22 June 2011

               Distributed Multipoles from Gaussian wavefunctions

Starting at 16:54:58 on 28 Apr 2020

Using SCF density matrix from file ./SSI/SSI-062TRP-073ALA-1-dimer.test.21433.fchk

                         Distributed Multipole Analysis

Standard DMA

Positions and radii in angstrom
Multipole moments in atomic units, ea_0^k for rank k

C          x = -0.671386  y =  3.052512  z = -0.633589 angstrom
           Maximum rank =  0   Radius =  0.650 angstrom
                   Q00  =  -0.210493

C          x = -0.307386  y =  0.664512  z =  0.410411 angstrom
           Maximum rank =  0   Radius =  0.650 angstrom
                   Q00  =  -0.052756

C          x =  0.144614  y =  1.979512  z =  0.040411 angstrom
           Maximum rank =  0   Radius =  0.650 angstrom
                   Q00  =  -0.125657

C          x =  0.773614  y =  0.003512  z =  1.052411 angstrom
           Maximum rank =  0   Radius =  0.650 angstrom
                   Q00  =   0.296815

C          x =  1.439614  y =  2.062512  z =  0.459411 angstrom
           Maximum rank =  0   Radius =  0.650 angstrom
                   Q00  =   0.076980

C          x = -1.624386  y = -1.319488  z =  0.759411 angstrom
           Maximum rank =  0   Radius =  0.650 angstrom
                   Q00  =  -0.084583

C          x = -0.537386  y = -1.947488  z =  1.382411 angstrom
           Maximum rank =  0   Radius =  0.650 angstrom
                   Q00  =  -0.076231

C          x = -1.521386  y = -0.015488  z =  0.274411 angstrom
           Maximum rank =  0   Radius =  0.650 angstrom
                   Q00  =  -0.097652

C          x =  0.672614  y = -1.291488  z =  1.540411 angstrom
           Maximum rank =  0   Radius =  0.650 angstrom
                   Q00  =  -0.117908

N          x =  1.818614  y =  0.888512  z =  1.069411 angstrom
           Maximum rank =  0   Radius =  0.650 angstrom
                   Q00  =  -0.497235

H          x = -2.561386  y = -1.847488  z =  0.656411 angstrom
           Maximum rank =  0   Radius =  0.325 angstrom
                   Q00  =   0.061334

H          x = -0.645386  y = -2.960488  z =  1.749411 angstrom
           Maximum rank =  0   Radius =  0.325 angstrom
                   Q00  =   0.066069

H          x = -2.361386  y =  0.465512  z = -0.204589 angstrom
           Maximum rank =  0   Radius =  0.325 angstrom
                   Q00  =   0.071790

H          x =  1.510614  y = -1.768488  z =  2.028411 angstrom
           Maximum rank =  0   Radius =  0.325 angstrom
                   Q00  =   0.074558

H          x = -0.256386  y =  4.029512  z = -0.380589 angstrom
           Maximum rank =  0   Radius =  0.325 angstrom
                   Q00  =   0.104355

H          x = -1.669386  y =  3.010512  z = -0.194589 angstrom
           Maximum rank =  0   Radius =  0.325 angstrom
                   Q00  =   0.100417

H          x =  2.070614  y =  2.938512  z =  0.343411 angstrom
           Maximum rank =  0   Radius =  0.325 angstrom
                   Q00  =   0.101695

H          x =  2.727614  y =  0.731512  z =  1.490411 angstrom
           Maximum rank =  0   Radius =  0.325 angstrom
                   Q00  =   0.217462

H          x = -0.770366  y =  2.968602  z = -1.725909 angstrom
           Maximum rank =  0   Radius =  0.325 angstrom
                   Q00  =   0.101033

C          x =  0.248614  y = -2.288488  z = -2.176589 angstrom
           Maximum rank =  0   Radius =  0.650 angstrom
                   Q00  =  -0.237202

C          x = -0.514386  y = -1.598488  z = -3.295589 angstrom
           Maximum rank =  0   Radius =  0.650 angstrom
                   Q00  =  -0.233654

H          x =  0.096614  y = -3.364488  z = -2.216589 angstrom
           Maximum rank =  0   Radius =  0.325 angstrom
                   Q00  =   0.065320

H          x =  1.313614  y = -2.076488  z = -2.273589 angstrom
           Maximum rank =  0   Radius =  0.325 angstrom
                   Q00  =   0.068354

H          x = -0.087386  y = -1.911488  z = -1.221589 angstrom
           Maximum rank =  0   Radius =  0.325 angstrom
                   Q00  =   0.107241

H          x = -0.336386  y = -0.529488  z = -3.179589 angstrom
           Maximum rank =  0   Radius =  0.325 angstrom
                   Q00  =   0.075521

H          x = -1.590596  y = -1.817048  z = -3.232279 angstrom
           Maximum rank =  0   Radius =  0.325 angstrom
                   Q00  =   0.074281

H          x = -0.118606  y = -1.898588  z = -4.277069 angstrom
           Maximum rank =  0   Radius =  0.325 angstrom
                   Q00  =   0.070144

Total multipoles referred to origin at
           x =   0.000000,  y =    0.000000,  z =    0.000000 angstrom
                   Q00  =  -0.000000

Finished at 16:54:58 on 28 Apr 2020

  DMA results are available in the Python driver through the
	  variable('DMA DISTRIBUTED MULTIPOLES')
  and
	  variable('DMA TOTAL MULTIPOLES')
  commands.

    Psi4 stopped on: Tuesday, 28 April 2020 04:54PM
    Psi4 wall time for execution: 0:04:15.10

*** Psi4 exiting successfully. Buy a developer a beer!
