                               Psi4 1.3.2 release

  ==> Input File <==

--------------------------------------------------------------------------
import numpy as np
set {scf_type pk
basis cc-pvdz
d_convergence 10
gdma_switch   0
gdma_limit    0
gdma_origin   [ 0.0,  0.0,  0.0 ]
}
molecule test {
    units Angstrom
    1 1
    --
    1 1
    C                0.201113230697401     0.774329075655542     1.978973032960670
    N                0.300113230697401    -0.513670924344458     1.415973032960669
    H                0.624113230697401    -1.142670924344458     2.154973032960669
    H                1.014113230697401    -0.721670924344458     0.726973032960670
    H               -0.603886769302599    -0.971670924344458     1.261973032960670
    H                0.326113230697401     0.333329075655542     2.982973032960670
    H                1.098113230697401     1.208329075655542     2.416973032960669
    H               -0.758198769302599     1.176079075655542     2.337183032960669
    C                1.081113230697401     0.714329075655542    -0.550026967039331
    C               -0.186886769302599    -0.069670924344458    -0.880026967039330
    O               -1.100886769302599    -0.385670924344458    -0.124026967039330
    N               -0.351886769302599    -0.378670924344458    -2.106026967039330
    H                1.458113230697401     1.097329075655542    -1.503026967039330
    H                1.931113230697401     0.086329075655542    -0.258026967039330
    H               -1.197886769302599    -0.877670924344458    -2.350026967039331
    H                0.345113230697401    -0.177670924344458    -2.810026967039331
    H                0.912389230697401     1.613709075655543     0.060423032960670

}
e, wfn = energy('scf', return_wfn=True)
gdma(wfn)
dmavals = variable('DMA DISTRIBUTED MULTIPOLES')
charges = np.array(dmavals)
print(charges)
np.save('SSI-001LYS-027ASN-2-dimer.npy', np.array(charges))--------------------------------------------------------------------------

*** tstart() called on ds3
*** at Tue Apr 28 09:03:40 2020

   => Loading Basis Set <=

    Name: CC-PVDZ
    Role: ORBITAL
    Keyword: BASIS
    atoms 1, 9-10    entry C          line   138 file /theoryfs2/ds/metcalf/miniconda2/envs/tf2gpu/share/psi4/basis/cc-pvdz.gbs
    atoms 2, 12      entry N          line   168 file /theoryfs2/ds/metcalf/miniconda2/envs/tf2gpu/share/psi4/basis/cc-pvdz.gbs
    atoms 3-8, 13-17 entry H          line    22 file /theoryfs2/ds/metcalf/miniconda2/envs/tf2gpu/share/psi4/basis/cc-pvdz.gbs
    atoms 11         entry O          line   198 file /theoryfs2/ds/metcalf/miniconda2/envs/tf2gpu/share/psi4/basis/cc-pvdz.gbs

         ---------------------------------------------------------
                                   SCF
               by Justin Turney, Rob Parrish, Andy Simmonett
                          and Daniel G. A. Smith
                              RHF Reference
                        1 Threads,    500 MiB Core
         ---------------------------------------------------------

  ==> Geometry <==

    Molecular point group: c1
    Full point group: C1

    Geometry (in Angstrom), charge = 1, multiplicity = 1:

       Center              X                  Y                   Z               Mass
    ------------   -----------------  -----------------  -----------------  -----------------
         C            0.201113230697     0.774329075656     1.978973032961    12.000000000000
         N            0.300113230697    -0.513670924344     1.415973032961    14.003074004430
         H            0.624113230697    -1.142670924344     2.154973032961     1.007825032230
         H            1.014113230697    -0.721670924344     0.726973032961     1.007825032230
         H           -0.603886769303    -0.971670924344     1.261973032961     1.007825032230
         H            0.326113230697     0.333329075656     2.982973032961     1.007825032230
         H            1.098113230697     1.208329075656     2.416973032961     1.007825032230
         H           -0.758198769303     1.176079075656     2.337183032961     1.007825032230
         C            1.081113230697     0.714329075656    -0.550026967039    12.000000000000
         C           -0.186886769303    -0.069670924344    -0.880026967039    12.000000000000
         O           -1.100886769303    -0.385670924344    -0.124026967039    15.994914619570
         N           -0.351886769303    -0.378670924344    -2.106026967039    14.003074004430
         H            1.458113230697     1.097329075656    -1.503026967039     1.007825032230
         H            1.931113230697     0.086329075656    -0.258026967039     1.007825032230
         H           -1.197886769303    -0.877670924344    -2.350026967039     1.007825032230
         H            0.345113230697    -0.177670924344    -2.810026967039     1.007825032230
         H            0.912389230697     1.613709075656     0.060423032961     1.007825032230

  Running in c1 symmetry.

  Rotational constants: A =      0.22394  B =      0.07792  C =      0.06545 [cm^-1]
  Rotational constants: A =   6713.41794  B =   2335.86534  C =   1962.19298 [MHz]
  Nuclear repulsion =  283.544130430389771

  Charge       = 1
  Multiplicity = 1
  Electrons    = 50
  Nalpha       = 25
  Nbeta        = 25

  ==> Algorithm <==

  SCF Algorithm Type is PK.
  DIIS enabled.
  MOM disabled.
  Fractional occupation disabled.
  Guess Type is SAD.
  Energy threshold   = 1.00e-06
  Density threshold  = 1.00e-10
  Integral threshold = 0.00e+00

  ==> Primary Basis <==

  Basis Set: CC-PVDZ
    Blend: CC-PVDZ
    Number of shells: 69
    Number of basis function: 139
    Number of Cartesian functions: 145
    Spherical Harmonics?: true
    Max angular momentum: 2

  ==> Pre-Iterations <==

   -------------------------------------------------------
    Irrep   Nso     Nmo     Nalpha   Nbeta   Ndocc  Nsocc
   -------------------------------------------------------
     A        139     139       0       0       0       0
   -------------------------------------------------------
    Total     139     139      25      25      25       0
   -------------------------------------------------------

  ==> Integral Setup <==

  Using integral reordering PK algorithm.
  Sizing the integral batches needed.
  Building batch lookup table.
   Calculation information:
      Number of atoms:                  17
      Number of AO shells:              69
      Number of primitives:            187
      Number of atomic orbitals:       145
      Number of basis functions:       139

      Integral cutoff                 1.00e-12
      Number of threads:                 1

	Batch   1 pq = [       0,    9730] index = [             0,47341315] size =     47341315
  Task number: 5
  Buffer size: 11059200
  Buffer per thread: 2
  We computed 3070110 shell quartets total.
  Whereas there are 2917320 unique shell quartets.
     5.24 percent of shell quartets recomputed by reordering.

  ==> DiskJK: Disk-Based J/K Matrices <==

    J tasked:                  Yes
    K tasked:                  Yes
    wK tasked:                  No
    Memory [MiB]:              375
    Schwarz Cutoff:          1E-12

    OpenMP threads:              1

  Minimum eigenvalue in the overlap matrix is 3.3662360606E-03.
  Using Symmetric Orthogonalization.

  SCF Guess: Superposition of Atomic Densities via on-the-fly atomic UHF.

  ==> Iterations <==

                        Total Energy        Delta E     RMS |[F,P]|

   @RHF iter SAD:  -303.80645283319626   -3.03806e+02   0.00000e+00
   @RHF iter   1:  -303.19723662811884    6.09216e-01   4.34751e-03 DIIS
   @RHF iter   2:  -303.35275920644943   -1.55523e-01   2.26728e-03 DIIS
   @RHF iter   3:  -303.39044029507903   -3.76811e-02   5.34339e-04 DIIS
   @RHF iter   4:  -303.39356504338838   -3.12475e-03   1.88825e-04 DIIS
   @RHF iter   5:  -303.39395406566297   -3.89022e-04   3.50838e-05 DIIS
   @RHF iter   6:  -303.39397853433314   -2.44687e-05   1.15317e-05 DIIS
   @RHF iter   7:  -303.39398107150828   -2.53718e-06   4.16557e-06 DIIS
   @RHF iter   8:  -303.39398155101935   -4.79511e-07   1.61614e-06 DIIS
   @RHF iter   9:  -303.39398162688991   -7.58706e-08   4.63298e-07 DIIS
   @RHF iter  10:  -303.39398163348091   -6.59099e-09   1.40319e-07 DIIS
   @RHF iter  11:  -303.39398163396567   -4.84761e-10   3.70236e-08 DIIS
   @RHF iter  12:  -303.39398163399983   -3.41629e-11   1.07851e-08 DIIS
   @RHF iter  13:  -303.39398163400080   -9.66338e-13   3.49285e-09 DIIS
   @RHF iter  14:  -303.39398163400159   -7.95808e-13   1.54978e-09 DIIS
   @RHF iter  15:  -303.39398163400108    5.11591e-13   5.69877e-10 DIIS
   @RHF iter  16:  -303.39398163400290   -1.81899e-12   2.06155e-10 DIIS
   @RHF iter  17:  -303.39398163400449   -1.59162e-12   9.54232e-11 DIIS
  Energy and wave function converged.

  ==> Post-Iterations <==

    Orbital Energies [Eh]
    ---------------------

    Doubly Occupied:

       1A    -20.666206     2A    -15.850274     3A    -15.745157
       4A    -11.519107     5A    -11.447202     6A    -11.416327
       7A     -1.578769     8A     -1.501731     9A     -1.389548
      10A     -1.188228    11A     -1.166671    12A     -0.988465
      13A     -0.970297    14A     -0.933300    15A     -0.888847
      16A     -0.874298    17A     -0.829491    18A     -0.790759
      19A     -0.762529    20A     -0.737945    21A     -0.712122
      22A     -0.699386    23A     -0.622746    24A     -0.587371
      25A     -0.562810

    Virtual:

      26A     -0.023209    27A      0.001345    28A      0.020142
      29A      0.034395    30A      0.047796    31A      0.062677
      32A      0.089428    33A      0.091070    34A      0.126417
      35A      0.131150    36A      0.144514    37A      0.175197
      38A      0.210185    39A      0.243759    40A      0.298579
      41A      0.380729    42A      0.401637    43A      0.431701
      44A      0.474615    45A      0.480541    46A      0.520184
      47A      0.545002    48A      0.549297    49A      0.567940
      50A      0.594873    51A      0.630423    52A      0.653644
      53A      0.673236    54A      0.687141    55A      0.701528
      56A      0.718354    57A      0.731155    58A      0.748772
      59A      0.762780    60A      0.776904    61A      0.794587
      62A      0.810855    63A      0.836819    64A      0.877172
      65A      0.902602    66A      0.914827    67A      0.935996
      68A      0.992229    69A      1.015480    70A      1.048938
      71A      1.106731    72A      1.169601    73A      1.181283
      74A      1.212926    75A      1.278449    76A      1.297124
      77A      1.311362    78A      1.338397    79A      1.386329
      80A      1.411539    81A      1.437248    82A      1.463492
      83A      1.511327    84A      1.549749    85A      1.578676
      86A      1.592740    87A      1.621608    88A      1.666953
      89A      1.670773    90A      1.701264    91A      1.739516
      92A      1.760065    93A      1.768465    94A      1.781213
      95A      1.807021    96A      1.846705    97A      1.879968
      98A      1.897666    99A      1.915798   100A      1.940344
     101A      1.952706   102A      1.980509   103A      1.994143
     104A      2.060508   105A      2.078678   106A      2.127365
     107A      2.151591   108A      2.186939   109A      2.205846
     110A      2.243585   111A      2.263928   112A      2.286797
     113A      2.312584   114A      2.366722   115A      2.379126
     116A      2.425786   117A      2.441157   118A      2.488424
     119A      2.518196   120A      2.547852   121A      2.581276
     122A      2.591019   123A      2.609934   124A      2.637883
     125A      2.688169   126A      2.718956   127A      2.756500
     128A      2.835538   129A      2.885201   130A      2.899589
     131A      2.982024   132A      3.158760   133A      3.193718
     134A      3.255055   135A      3.293861   136A      3.372467
     137A      3.393655   138A      3.730071   139A      3.801285

    Final Occupation by Irrep:
              A
    DOCC [    25 ]

  @RHF Final Energy:  -303.39398163400449

   => Energetics <=

    Nuclear Repulsion Energy =            283.5441304303897709
    One-Electron Energy =                -965.0170494463336581
    Two-Electron Energy =                 378.0789373819394541
    Total Energy =                       -303.3939816340044899

Computation Completed

Properties will be evaluated at   0.000000,   0.000000,   0.000000 [a0]

Properties computed using the SCF density matrix

  Nuclear Dipole Moment: [e a0]
     X:     4.8221      Y:     1.5230      Z:     4.7078

  Electronic Dipole Moment: [e a0]
     X:    -3.2832      Y:    -2.0490      Z:    -3.6676

  Dipole Moment: [e a0]
     X:     1.5389      Y:    -0.5261      Z:     1.0402     Total:     1.9305

  Dipole Moment: [D]
     X:     3.9115      Y:    -1.3372      Z:     2.6439     Total:     4.9069

*** tstop() called on ds3 at Tue Apr 28 09:04:10 2020
Module time:
	user time   =      20.73 seconds =       0.35 minutes
	system time =       6.52 seconds =       0.11 minutes
	total time  =         30 seconds =       0.50 minutes
Total time:
	user time   =      20.73 seconds =       0.35 minutes
	system time =       6.52 seconds =       0.11 minutes
	total time  =         30 seconds =       0.50 minutes
                                     G D M A

                                 by Anthony Stone

                           version 2.2.06, 22 June 2011

               Distributed Multipoles from Gaussian wavefunctions

Starting at 9:4:10 on 28 Apr 2020

Using SCF density matrix from file ./SSI/SSI-001LYS-027ASN-2-dimer.test.9398.fchk

                         Distributed Multipole Analysis

Standard DMA

Positions and radii in angstrom
Multipole moments in atomic units, ea_0^k for rank k

C          x =  0.201113  y =  0.774329  z =  1.978973 angstrom
           Maximum rank =  0   Radius =  0.650 angstrom
                   Q00  =  -0.241546

N          x =  0.300113  y = -0.513671  z =  1.415973 angstrom
           Maximum rank =  0   Radius =  0.650 angstrom
                   Q00  =  -0.026058

H          x =  0.624113  y = -1.142671  z =  2.154973 angstrom
           Maximum rank =  0   Radius =  0.325 angstrom
                   Q00  =   0.151759

H          x =  1.014113  y = -0.721671  z =  0.726973 angstrom
           Maximum rank =  0   Radius =  0.325 angstrom
                   Q00  =   0.232816

H          x = -0.603887  y = -0.971671  z =  1.261973 angstrom
           Maximum rank =  0   Radius =  0.325 angstrom
                   Q00  =   0.284777

H          x =  0.326113  y =  0.333329  z =  2.982973 angstrom
           Maximum rank =  0   Radius =  0.325 angstrom
                   Q00  =   0.122455

H          x =  1.098113  y =  1.208329  z =  2.416973 angstrom
           Maximum rank =  0   Radius =  0.325 angstrom
                   Q00  =   0.171733

H          x = -0.758199  y =  1.176079  z =  2.337183 angstrom
           Maximum rank =  0   Radius =  0.325 angstrom
                   Q00  =   0.184576

C          x =  1.081113  y =  0.714329  z = -0.550027 angstrom
           Maximum rank =  0   Radius =  0.650 angstrom
                   Q00  =  -0.345899

C          x = -0.186887  y = -0.069671  z = -0.880027 angstrom
           Maximum rank =  0   Radius =  0.650 angstrom
                   Q00  =   0.833117

O          x = -1.100887  y = -0.385671  z = -0.124027 angstrom
           Maximum rank =  0   Radius =  0.650 angstrom
                   Q00  =  -0.723511

N          x = -0.351887  y = -0.378671  z = -2.106027 angstrom
           Maximum rank =  0   Radius =  0.650 angstrom
                   Q00  =  -0.534141

H          x =  1.458113  y =  1.097329  z = -1.503027 angstrom
           Maximum rank =  0   Radius =  0.325 angstrom
                   Q00  =   0.144250

H          x =  1.931113  y =  0.086329  z = -0.258027 angstrom
           Maximum rank =  0   Radius =  0.325 angstrom
                   Q00  =   0.094551

H          x = -1.197887  y = -0.877671  z = -2.350027 angstrom
           Maximum rank =  0   Radius =  0.325 angstrom
                   Q00  =   0.259692

H          x =  0.345113  y = -0.177671  z = -2.810027 angstrom
           Maximum rank =  0   Radius =  0.325 angstrom
                   Q00  =   0.233450

H          x =  0.912389  y =  1.613709  z =  0.060423 angstrom
           Maximum rank =  0   Radius =  0.325 angstrom
                   Q00  =   0.157981

Total multipoles referred to origin at
           x =   0.000000,  y =    0.000000,  z =    0.000000 angstrom
                   Q00  =   1.000000

Finished at 9:4:10 on 28 Apr 2020

  DMA results are available in the Python driver through the
	  variable('DMA DISTRIBUTED MULTIPOLES')
  and
	  variable('DMA TOTAL MULTIPOLES')
  commands.

    Psi4 stopped on: Tuesday, 28 April 2020 09:04AM
    Psi4 wall time for execution: 0:00:30.71

*** Psi4 exiting successfully. Buy a developer a beer!
