                               Psi4 1.3.2 release

  ==> Input File <==

--------------------------------------------------------------------------
import numpy as np
set {scf_type pk
basis cc-pvdz
d_convergence 10
gdma_switch   0
gdma_limit    0
gdma_origin   [ 0.0,  0.0,  0.0 ]
}
molecule test {
    units Angstrom
    0 1
    --
    0 1
    C               -0.605221967108279     2.174391073637020    -2.290940872565180
    C               -1.782221967108279     3.127391073637021    -2.557940872565180
    C                0.686778032891721     2.479391073637021    -3.038940872565180
    H               -0.391221967108279     2.240391073637021    -1.225940872565180
    H               -0.911221967108279     1.146391073637020    -2.485940872565180
    H               -2.542221967108279     2.916391073637020    -1.803940872565180
    H                0.936778032891721     3.538391073637021    -2.984940872565180
    H                1.483778032891721     1.948391073637020    -2.515940872565180
    H               -2.228421967108279     2.942421073637020    -3.546220872565180
    H               -1.469911967108279     4.171751073637020    -2.410380872565180
    H                0.697598032891721     2.131121073637020    -4.082300872565180
    C                1.590778032891721    -1.217608926362980     3.328059127434821
    C               -0.771221967108279    -0.147608926362980     0.526059127434820
    C               -0.755221967108279    -1.279608926362980    -0.300940872565180
    C                0.009778032891721    -0.115608926362980     1.698059127434820
    C                0.800778032891721    -1.218608926362980     2.046059127434820
    C                0.037778032891721    -2.384608926362980     0.040059127434820
    C                0.810778032891721    -2.349608926362980     1.212059127434820
    H               -1.390221967108279     0.698391073637020     0.269059127434820
    H               -1.355221967108279    -1.298608926362980    -1.199940872565180
    H               -0.007221967108279     0.759391073637021     2.331059127434820
    H                0.059778032891721    -3.254608926362979    -0.600940872565180
    H                1.715778032891721    -0.195608926362980     3.689059127434820
    H                2.583778032891721    -1.612608926362980     3.108059127434820
    H                1.423778032891721    -3.201608926362979     1.470059127434820
    H                1.123158032891721    -1.831758926362980     4.111739127434819

}
e, wfn = energy('scf', return_wfn=True)
gdma(wfn)
dmavals = variable('DMA DISTRIBUTED MULTIPOLES')
charges = np.array(dmavals)
print(charges)
np.save('SSI-030GLU-042PHE-1-dimer.npy', np.array(charges))--------------------------------------------------------------------------

*** tstart() called on ds3
*** at Mon Apr 27 20:41:05 2020

   => Loading Basis Set <=

    Name: CC-PVDZ
    Role: ORBITAL
    Keyword: BASIS
    atoms 1-3, 12-18  entry C          line   138 file /theoryfs2/ds/metcalf/miniconda2/envs/tf2gpu/share/psi4/basis/cc-pvdz.gbs
    atoms 4-11, 19-26 entry H          line    22 file /theoryfs2/ds/metcalf/miniconda2/envs/tf2gpu/share/psi4/basis/cc-pvdz.gbs

         ---------------------------------------------------------
                                   SCF
               by Justin Turney, Rob Parrish, Andy Simmonett
                          and Daniel G. A. Smith
                              RHF Reference
                        1 Threads,    500 MiB Core
         ---------------------------------------------------------

  ==> Geometry <==

    Molecular point group: c1
    Full point group: C1

    Geometry (in Angstrom), charge = 0, multiplicity = 1:

       Center              X                  Y                   Z               Mass
    ------------   -----------------  -----------------  -----------------  -----------------
         C           -0.605221967108     2.174391073637    -2.290940872565    12.000000000000
         C           -1.782221967108     3.127391073637    -2.557940872565    12.000000000000
         C            0.686778032892     2.479391073637    -3.038940872565    12.000000000000
         H           -0.391221967108     2.240391073637    -1.225940872565     1.007825032230
         H           -0.911221967108     1.146391073637    -2.485940872565     1.007825032230
         H           -2.542221967108     2.916391073637    -1.803940872565     1.007825032230
         H            0.936778032892     3.538391073637    -2.984940872565     1.007825032230
         H            1.483778032892     1.948391073637    -2.515940872565     1.007825032230
         H           -2.228421967108     2.942421073637    -3.546220872565     1.007825032230
         H           -1.469911967108     4.171751073637    -2.410380872565     1.007825032230
         H            0.697598032892     2.131121073637    -4.082300872565     1.007825032230
         C            1.590778032892    -1.217608926363     3.328059127435    12.000000000000
         C           -0.771221967108    -0.147608926363     0.526059127435    12.000000000000
         C           -0.755221967108    -1.279608926363    -0.300940872565    12.000000000000
         C            0.009778032892    -0.115608926363     1.698059127435    12.000000000000
         C            0.800778032892    -1.218608926363     2.046059127435    12.000000000000
         C            0.037778032892    -2.384608926363     0.040059127435    12.000000000000
         C            0.810778032892    -2.349608926363     1.212059127435    12.000000000000
         H           -1.390221967108     0.698391073637     0.269059127435     1.007825032230
         H           -1.355221967108    -1.298608926363    -1.199940872565     1.007825032230
         H           -0.007221967108     0.759391073637     2.331059127435     1.007825032230
         H            0.059778032892    -3.254608926363    -0.600940872565     1.007825032230
         H            1.715778032892    -0.195608926363     3.689059127435     1.007825032230
         H            2.583778032892    -1.612608926363     3.108059127435     1.007825032230
         H            1.423778032892    -3.201608926363     1.470059127435     1.007825032230
         H            1.123158032892    -1.831758926363     4.111739127435     1.007825032230

  Running in c1 symmetry.

  Rotational constants: A =      0.07342  B =      0.01487  C =      0.01415 [cm^-1]
  Rotational constants: A =   2201.20553  B =    445.87315  C =    424.22497 [MHz]
  Nuclear repulsion =  473.938811134264313

  Charge       = 0
  Multiplicity = 1
  Electrons    = 76
  Nalpha       = 38
  Nbeta        = 38

  ==> Algorithm <==

  SCF Algorithm Type is PK.
  DIIS enabled.
  MOM disabled.
  Fractional occupation disabled.
  Guess Type is SAD.
  Energy threshold   = 1.00e-06
  Density threshold  = 1.00e-10
  Integral threshold = 0.00e+00

  ==> Primary Basis <==

  Basis Set: CC-PVDZ
    Blend: CC-PVDZ
    Number of shells: 108
    Number of basis function: 220
    Number of Cartesian functions: 230
    Spherical Harmonics?: true
    Max angular momentum: 2

  ==> Pre-Iterations <==

   -------------------------------------------------------
    Irrep   Nso     Nmo     Nalpha   Nbeta   Ndocc  Nsocc
   -------------------------------------------------------
     A        220     220       0       0       0       0
   -------------------------------------------------------
    Total     220     220      38      38      38       0
   -------------------------------------------------------

  ==> Integral Setup <==

  Using integral reordering PK algorithm.
  Sizing the integral batches needed.
  Building batch lookup table.
   Calculation information:
      Number of atoms:                  26
      Number of AO shells:             108
      Number of primitives:            300
      Number of atomic orbitals:       230
      Number of basis functions:       220

      Integral cutoff                 1.00e-12
      Number of threads:                 1

	Batch   1 pq = [       0,    9405] index = [             0,44231715] size =     44231715
	Batch   2 pq = [    9405,   13301] index = [      44231715,88464951] size =     44233236
	Batch   3 pq = [   13301,   16290] index = [      88464951,132690195] size =     44225244
	Batch   4 pq = [   16290,   18810] index = [     132690195,176917455] size =     44227260
	Batch   5 pq = [   18810,   21030] index = [     176917455,221140965] size =     44223510
	Batch   6 pq = [   21030,   23037] index = [     221140965,265363203] size =     44222238
	Batch   7 pq = [   23037,   24310] index = [     265363203,295500205] size =     30137002
  Task number: 27
  Buffer size: 11059200
  Buffer per thread: 2
  We computed 13698870 shell quartets total.
  Whereas there are 17325441 unique shell quartets.

  ==> DiskJK: Disk-Based J/K Matrices <==

    J tasked:                  Yes
    K tasked:                  Yes
    wK tasked:                  No
    Memory [MiB]:              375
    Schwarz Cutoff:          1E-12

    OpenMP threads:              1

  Minimum eigenvalue in the overlap matrix is 3.3138852307E-04.
  Using Symmetric Orthogonalization.

  SCF Guess: Superposition of Atomic Densities via on-the-fly atomic UHF.

  ==> Iterations <==

                        Total Energy        Delta E     RMS |[F,P]|

   @RHF iter SAD:  -386.73882595319628   -3.86739e+02   0.00000e+00
   @RHF iter   1:  -387.77259171020967   -1.03377e+00   2.72259e-03 DIIS
   @RHF iter   2:  -387.98893493661114   -2.16343e-01   1.13563e-03 DIIS
   @RHF iter   3:  -388.02302064111575   -3.40857e-02   2.48243e-04 DIIS
   @RHF iter   4:  -388.02588516329246   -2.86452e-03   5.18520e-05 DIIS
   @RHF iter   5:  -388.02597276094696   -8.75977e-05   1.66114e-05 DIIS
   @RHF iter   6:  -388.02598138045829   -8.61951e-06   4.87680e-06 DIIS
   @RHF iter   7:  -388.02598223337185   -8.52914e-07   1.21515e-06 DIIS
   @RHF iter   8:  -388.02598229952969   -6.61578e-08   3.21045e-07 DIIS
   @RHF iter   9:  -388.02598230925366   -9.72398e-09   1.35336e-07 DIIS
   @RHF iter  10:  -388.02598231163137   -2.37770e-09   6.98168e-08 DIIS
   @RHF iter  11:  -388.02598231238375   -7.52379e-10   2.58945e-08 DIIS
   @RHF iter  12:  -388.02598231249726   -1.13516e-10   8.65143e-09 DIIS
   @RHF iter  13:  -388.02598231250431   -7.04858e-12   3.50970e-09 DIIS
   @RHF iter  14:  -388.02598231250511   -7.95808e-13   9.43929e-10 DIIS
   @RHF iter  15:  -388.02598231250710   -1.98952e-12   4.39471e-10 DIIS
   @RHF iter  16:  -388.02598231250573    1.36424e-12   2.10661e-10 DIIS
   @RHF iter  17:  -388.02598231250539    3.41061e-13   8.45210e-11 DIIS
  Energy and wave function converged.

  ==> Post-Iterations <==

    Orbital Energies [Eh]
    ---------------------

    Doubly Occupied:

       1A    -11.243399     2A    -11.239326     3A    -11.238460
       4A    -11.234054     5A    -11.233631     6A    -11.233408
       7A    -11.230118     8A    -11.217675     9A    -11.217029
      10A    -11.212832    11A     -1.145983    12A     -1.049260
      13A     -1.041902    14A     -1.007343    15A     -0.929513
      16A     -0.925311    17A     -0.824173    18A     -0.794047
      19A     -0.792234    20A     -0.688134    21A     -0.633600
      22A     -0.627227    23A     -0.623045    24A     -0.589263
      25A     -0.580523    26A     -0.577114    27A     -0.561235
      28A     -0.546632    29A     -0.536901    30A     -0.535438
      31A     -0.485950    32A     -0.484422    33A     -0.480152
      34A     -0.470671    35A     -0.467460    36A     -0.457967
      37A     -0.329411    38A     -0.319939

    Virtual:

      39A      0.131775    40A      0.138400    41A      0.170353
      42A      0.190769    43A      0.204421    44A      0.209911
      45A      0.224344    46A      0.227850    47A      0.243340
      48A      0.251984    49A      0.259668    50A      0.270297
      51A      0.277653    52A      0.280992    53A      0.296462
      54A      0.300725    55A      0.327901    56A      0.330048
      57A      0.360656    58A      0.372692    59A      0.384972
      60A      0.432496    61A      0.452023    62A      0.462017
      63A      0.477178    64A      0.493308    65A      0.561947
      66A      0.572711    67A      0.593653    68A      0.606741
      69A      0.610008    70A      0.627345    71A      0.635887
      72A      0.651506    73A      0.677609    74A      0.690176
      75A      0.712106    76A      0.720989    77A      0.738514
      78A      0.740208    79A      0.744415    80A      0.753596
      81A      0.761637    82A      0.766397    83A      0.777430
      84A      0.800310    85A      0.816088    86A      0.832242
      87A      0.849224    88A      0.867800    89A      0.870787
      90A      0.878355    91A      0.886595    92A      0.891502
      93A      0.894398    94A      0.897938    95A      0.900821
      96A      0.906046    97A      0.908666    98A      0.911580
      99A      0.921536   100A      0.932877   101A      0.938631
     102A      0.948807   103A      0.961074   104A      0.977417
     105A      0.986611   106A      0.996460   107A      1.028042
     108A      1.059627   109A      1.105976   110A      1.121492
     111A      1.130275   112A      1.147776   113A      1.151318
     114A      1.156060   115A      1.190044   116A      1.223962
     117A      1.232389   118A      1.244612   119A      1.246599
     120A      1.251364   121A      1.291689   122A      1.303777
     123A      1.314594   124A      1.317597   125A      1.394662
     126A      1.414200   127A      1.451748   128A      1.478693
     129A      1.503475   130A      1.520398   131A      1.531847
     132A      1.559841   133A      1.603960   134A      1.652072
     135A      1.676041   136A      1.680220   137A      1.691375
     138A      1.695422   139A      1.707847   140A      1.730874
     141A      1.744851   142A      1.753978   143A      1.786539
     144A      1.804944   145A      1.843626   146A      1.860048
     147A      1.865082   148A      1.875847   149A      1.882115
     150A      1.890016   151A      1.902509   152A      1.907000
     153A      1.909538   154A      1.919883   155A      1.931190
     156A      1.934296   157A      1.942139   158A      1.954091
     159A      1.969268   160A      1.972424   161A      1.974844
     162A      1.983855   163A      1.989952   164A      1.995286
     165A      2.020707   166A      2.030531   167A      2.033905
     168A      2.051375   169A      2.066497   170A      2.078627
     171A      2.102960   172A      2.103680   173A      2.132514
     174A      2.150913   175A      2.156095   176A      2.157774
     177A      2.163919   178A      2.188514   179A      2.240078
     180A      2.269593   181A      2.280146   182A      2.287719
     183A      2.292218   184A      2.304214   185A      2.319319
     186A      2.341589   187A      2.345693   188A      2.386686
     189A      2.453199   190A      2.462802   191A      2.472838
     192A      2.502632   193A      2.523141   194A      2.550524
     195A      2.552906   196A      2.614663   197A      2.621414
     198A      2.624824   199A      2.730265   200A      2.743735
     201A      2.763018   202A      2.767184   203A      2.769860
     204A      2.776878   205A      2.780262   206A      2.805873
     207A      2.829388   208A      2.837482   209A      2.863634
     210A      2.908059   211A      2.955036   212A      2.958771
     213A      2.988517   214A      2.993287   215A      3.016673
     216A      3.072328   217A      3.138544   218A      3.179136
     219A      3.278681   220A      3.931131

    Final Occupation by Irrep:
              A
    DOCC [    38 ]

  @RHF Final Energy:  -388.02598231250539

   => Energetics <=

    Nuclear Repulsion Energy =            473.9388111342643128
    One-Electron Energy =               -1462.3200322646880522
    Two-Electron Energy =                 600.3552388179182344
    Total Energy =                       -388.0259823125054481

Computation Completed

Properties will be evaluated at   0.000000,   0.000000,   0.000000 [a0]

Properties computed using the SCF density matrix

  Nuclear Dipole Moment: [e a0]
     X:    -0.2543      Y:    10.4042      Z:    -7.3849

  Electronic Dipole Moment: [e a0]
     X:     0.3480      Y:   -10.4712      Z:     7.5553

  Dipole Moment: [e a0]
     X:     0.0938      Y:    -0.0670      Z:     0.1704     Total:     0.2057

  Dipole Moment: [D]
     X:     0.2383      Y:    -0.1702      Z:     0.4331     Total:     0.5228

*** tstop() called on ds3 at Mon Apr 27 20:43:24 2020
Module time:
	user time   =      95.46 seconds =       1.59 minutes
	system time =      44.28 seconds =       0.74 minutes
	total time  =        139 seconds =       2.32 minutes
Total time:
	user time   =      95.46 seconds =       1.59 minutes
	system time =      44.28 seconds =       0.74 minutes
	total time  =        139 seconds =       2.32 minutes
                                     G D M A

                                 by Anthony Stone

                           version 2.2.06, 22 June 2011

               Distributed Multipoles from Gaussian wavefunctions

Starting at 20:43:24 on 27 Apr 2020

Using SCF density matrix from file ./SSI/SSI-030GLU-042PHE-1-dimer.test.15939.fchk

                         Distributed Multipole Analysis

Standard DMA

Positions and radii in angstrom
Multipole moments in atomic units, ea_0^k for rank k

C          x = -0.605222  y =  2.174391  z = -2.290941 angstrom
           Maximum rank =  0   Radius =  0.650 angstrom
                   Q00  =  -0.066563

C          x = -1.782222  y =  3.127391  z = -2.557941 angstrom
           Maximum rank =  0   Radius =  0.650 angstrom
                   Q00  =  -0.250210

C          x =  0.686778  y =  2.479391  z = -3.038941 angstrom
           Maximum rank =  0   Radius =  0.650 angstrom
                   Q00  =  -0.256503

H          x = -0.391222  y =  2.240391  z = -1.225941 angstrom
           Maximum rank =  0   Radius =  0.325 angstrom
                   Q00  =   0.044287

H          x = -0.911222  y =  1.146391  z = -2.485941 angstrom
           Maximum rank =  0   Radius =  0.325 angstrom
                   Q00  =   0.049749

H          x = -2.542222  y =  2.916391  z = -1.803941 angstrom
           Maximum rank =  0   Radius =  0.325 angstrom
                   Q00  =   0.076351

H          x =  0.936778  y =  3.538391  z = -2.984941 angstrom
           Maximum rank =  0   Radius =  0.325 angstrom
                   Q00  =   0.077731

H          x =  1.483778  y =  1.948391  z = -2.515941 angstrom
           Maximum rank =  0   Radius =  0.325 angstrom
                   Q00  =   0.087357

H          x = -2.228422  y =  2.942421  z = -3.546221 angstrom
           Maximum rank =  0   Radius =  0.325 angstrom
                   Q00  =   0.079699

H          x = -1.469912  y =  4.171751  z = -2.410381 angstrom
           Maximum rank =  0   Radius =  0.325 angstrom
                   Q00  =   0.079896

H          x =  0.697598  y =  2.131121  z = -4.082301 angstrom
           Maximum rank =  0   Radius =  0.325 angstrom
                   Q00  =   0.078681

C          x =  1.590778  y = -1.217609  z =  3.328059 angstrom
           Maximum rank =  0   Radius =  0.650 angstrom
                   Q00  =  -0.195542

C          x = -0.771222  y = -0.147609  z =  0.526059 angstrom
           Maximum rank =  0   Radius =  0.650 angstrom
                   Q00  =  -0.062205

C          x = -0.755222  y = -1.279609  z = -0.300941 angstrom
           Maximum rank =  0   Radius =  0.650 angstrom
                   Q00  =  -0.086761

C          x =  0.009778  y = -0.115609  z =  1.698059 angstrom
           Maximum rank =  0   Radius =  0.650 angstrom
                   Q00  =  -0.090608

C          x =  0.800778  y = -1.218609  z =  2.046059 angstrom
           Maximum rank =  0   Radius =  0.650 angstrom
                   Q00  =  -0.101283

C          x =  0.037778  y = -2.384609  z =  0.040059 angstrom
           Maximum rank =  0   Radius =  0.650 angstrom
                   Q00  =  -0.076648

C          x =  0.810778  y = -2.349609  z =  1.212059 angstrom
           Maximum rank =  0   Radius =  0.650 angstrom
                   Q00  =  -0.009240

H          x = -1.390222  y =  0.698391  z =  0.269059 angstrom
           Maximum rank =  0   Radius =  0.325 angstrom
                   Q00  =   0.070047

H          x = -1.355222  y = -1.298609  z = -1.199941 angstrom
           Maximum rank =  0   Radius =  0.325 angstrom
                   Q00  =   0.063717

H          x = -0.007222  y =  0.759391  z =  2.331059 angstrom
           Maximum rank =  0   Radius =  0.325 angstrom
                   Q00  =   0.060858

H          x =  0.059778  y = -3.254609  z = -0.600941 angstrom
           Maximum rank =  0   Radius =  0.325 angstrom
                   Q00  =   0.068185

H          x =  1.715778  y = -0.195609  z =  3.689059 angstrom
           Maximum rank =  0   Radius =  0.325 angstrom
                   Q00  =   0.098031

H          x =  2.583778  y = -1.612609  z =  3.108059 angstrom
           Maximum rank =  0   Radius =  0.325 angstrom
                   Q00  =   0.097656

H          x =  1.423778  y = -3.201609  z =  1.470059 angstrom
           Maximum rank =  0   Radius =  0.325 angstrom
                   Q00  =   0.058042

H          x =  1.123158  y = -1.831759  z =  4.111739 angstrom
           Maximum rank =  0   Radius =  0.325 angstrom
                   Q00  =   0.105274

Total multipoles referred to origin at
           x =   0.000000,  y =    0.000000,  z =    0.000000 angstrom
                   Q00  =  -0.000000

Finished at 20:43:24 on 27 Apr 2020

  DMA results are available in the Python driver through the
	  variable('DMA DISTRIBUTED MULTIPOLES')
  and
	  variable('DMA TOTAL MULTIPOLES')
  commands.

    Psi4 stopped on: Monday, 27 April 2020 08:43PM
    Psi4 wall time for execution: 0:02:19.34

*** Psi4 exiting successfully. Buy a developer a beer!
