                               Psi4 1.3.2 release

  ==> Input File <==

--------------------------------------------------------------------------
import numpy as np
set {scf_type pk
basis cc-pvdz
d_convergence 10
gdma_switch   0
gdma_limit    0
gdma_origin   [ 0.0,  0.0,  0.0 ]
}
molecule test {
    units Angstrom
    0 1
    --
    0 1
    C               -1.144679123912652     0.040418680805068     0.623166066864818
    C               -2.043679123912653     0.484418680805068    -0.545833933135182
    C               -0.949679123912652     1.182418680805068     1.621166066864818
    C               -1.736679123912652    -1.197581319194932     1.310166066864818
    H               -0.168679123912652    -0.227581319194932     0.224166066864818
    H               -3.050679123912652     0.642418680805068    -0.152833933135182
    H               -1.914679123912652     1.576418680805068     1.915166066864818
    H               -0.412679123912652     0.850418680805068     2.508166066864818
    H               -0.373679123912652     1.984418680805068     1.177166066864818
    H               -2.659679123912652    -0.926581319194932     1.823166066864818
    H               -1.989679123912652    -1.945581319194932     0.563166066864818
    H               -2.054220123912652    -0.269283319194932    -1.346973933135182
    H               -1.688609123912652     1.438258680805068    -0.963093933135182
    H               -1.051611123912652    -1.675972319194932     2.025585066864818
    C                2.316320876087347    -0.302581319194932    -0.936833933135182
    C                3.406320876087348    -0.199581319194932    -1.988833933135182
    H                1.470320876087348    -0.863581319194932    -1.328833933135182
    H                2.690320876087347    -0.829581319194932    -0.068833933135182
    H                1.992320876087348     0.694418680805068    -0.633833933135182
    H                3.621320876087348    -1.190581319194932    -2.356833933135182
    H                3.076909776087347     0.434733680805068    -2.824973933135182
    H                4.323728876087348     0.218212680805068    -1.548593933135182

}
e, wfn = energy('scf', return_wfn=True)
gdma(wfn)
dmavals = variable('DMA DISTRIBUTED MULTIPOLES')
charges = np.array(dmavals)
print(charges)
np.save('SSI-249ILE-300LEU-1-dimer.npy', np.array(charges))--------------------------------------------------------------------------

*** tstart() called on ds3
*** at Mon Apr 27 19:59:05 2020

   => Loading Basis Set <=

    Name: CC-PVDZ
    Role: ORBITAL
    Keyword: BASIS
    atoms 1-4, 15-16  entry C          line   138 file /theoryfs2/ds/metcalf/miniconda2/envs/tf2gpu/share/psi4/basis/cc-pvdz.gbs
    atoms 5-14, 17-22 entry H          line    22 file /theoryfs2/ds/metcalf/miniconda2/envs/tf2gpu/share/psi4/basis/cc-pvdz.gbs

         ---------------------------------------------------------
                                   SCF
               by Justin Turney, Rob Parrish, Andy Simmonett
                          and Daniel G. A. Smith
                              RHF Reference
                        1 Threads,    500 MiB Core
         ---------------------------------------------------------

  ==> Geometry <==

    Molecular point group: c1
    Full point group: C1

    Geometry (in Angstrom), charge = 0, multiplicity = 1:

       Center              X                  Y                   Z               Mass
    ------------   -----------------  -----------------  -----------------  -----------------
         C           -1.144679123913     0.040418680805     0.623166066865    12.000000000000
         C           -2.043679123913     0.484418680805    -0.545833933135    12.000000000000
         C           -0.949679123913     1.182418680805     1.621166066865    12.000000000000
         C           -1.736679123913    -1.197581319195     1.310166066865    12.000000000000
         H           -0.168679123913    -0.227581319195     0.224166066865     1.007825032230
         H           -3.050679123913     0.642418680805    -0.152833933135     1.007825032230
         H           -1.914679123913     1.576418680805     1.915166066865     1.007825032230
         H           -0.412679123913     0.850418680805     2.508166066865     1.007825032230
         H           -0.373679123913     1.984418680805     1.177166066865     1.007825032230
         H           -2.659679123913    -0.926581319195     1.823166066865     1.007825032230
         H           -1.989679123913    -1.945581319195     0.563166066865     1.007825032230
         H           -2.054220123913    -0.269283319195    -1.346973933135     1.007825032230
         H           -1.688609123913     1.438258680805    -0.963093933135     1.007825032230
         H           -1.051611123913    -1.675972319195     2.025585066865     1.007825032230
         C            2.316320876087    -0.302581319195    -0.936833933135    12.000000000000
         C            3.406320876087    -0.199581319195    -1.988833933135    12.000000000000
         H            1.470320876087    -0.863581319195    -1.328833933135     1.007825032230
         H            2.690320876087    -0.829581319195    -0.068833933135     1.007825032230
         H            1.992320876087     0.694418680805    -0.633833933135     1.007825032230
         H            3.621320876087    -1.190581319195    -2.356833933135     1.007825032230
         H            3.076909776087     0.434733680805    -2.824973933135     1.007825032230
         H            4.323728876087     0.218212680805    -1.548593933135     1.007825032230

  Running in c1 symmetry.

  Rotational constants: A =      0.14284  B =      0.02998  C =      0.02987 [cm^-1]
  Rotational constants: A =   4282.17597  B =    898.72977  C =    895.47975 [MHz]
  Nuclear repulsion =  242.462439152998087

  Charge       = 0
  Multiplicity = 1
  Electrons    = 52
  Nalpha       = 26
  Nbeta        = 26

  ==> Algorithm <==

  SCF Algorithm Type is PK.
  DIIS enabled.
  MOM disabled.
  Fractional occupation disabled.
  Guess Type is SAD.
  Energy threshold   = 1.00e-06
  Density threshold  = 1.00e-10
  Integral threshold = 0.00e+00

  ==> Primary Basis <==

  Basis Set: CC-PVDZ
    Blend: CC-PVDZ
    Number of shells: 84
    Number of basis function: 164
    Number of Cartesian functions: 170
    Spherical Harmonics?: true
    Max angular momentum: 2

  ==> Pre-Iterations <==

   -------------------------------------------------------
    Irrep   Nso     Nmo     Nalpha   Nbeta   Ndocc  Nsocc
   -------------------------------------------------------
     A        164     164       0       0       0       0
   -------------------------------------------------------
    Total     164     164      26      26      26       0
   -------------------------------------------------------

  ==> Integral Setup <==

  Using integral reordering PK algorithm.
  Sizing the integral batches needed.
  Building batch lookup table.
   Calculation information:
      Number of atoms:                  22
      Number of AO shells:              84
      Number of primitives:            212
      Number of atomic orbitals:       170
      Number of basis functions:       164

      Integral cutoff                 1.00e-12
      Number of threads:                 1

	Batch   1 pq = [       0,    9405] index = [             0,44231715] size =     44231715
	Batch   2 pq = [    9405,   13530] index = [      44231715,91537215] size =     47305500
  Task number: 9
  Buffer size: 11059200
  Buffer per thread: 2
  We computed 5497913 shell quartets total.
  Whereas there are 6374235 unique shell quartets.

  ==> DiskJK: Disk-Based J/K Matrices <==

    J tasked:                  Yes
    K tasked:                  Yes
    wK tasked:                  No
    Memory [MiB]:              375
    Schwarz Cutoff:          1E-12

    OpenMP threads:              1

  Minimum eigenvalue in the overlap matrix is 4.5886469280E-03.
  Using Symmetric Orthogonalization.

  SCF Guess: Superposition of Atomic Densities via on-the-fly atomic UHF.

  ==> Iterations <==

                        Total Energy        Delta E     RMS |[F,P]|

   @RHF iter SAD:  -235.41619751361100   -2.35416e+02   0.00000e+00
   @RHF iter   1:  -236.31340843890348   -8.97211e-01   3.53489e-03 DIIS
   @RHF iter   2:  -236.50424168712379   -1.90833e-01   1.52733e-03 DIIS
   @RHF iter   3:  -236.53789083120620   -3.36491e-02   3.12601e-04 DIIS
   @RHF iter   4:  -236.54051535127647   -2.62452e-03   6.89397e-05 DIIS
   @RHF iter   5:  -236.54060018824703   -8.48370e-05   1.58315e-05 DIIS
   @RHF iter   6:  -236.54060590909944   -5.72085e-06   2.79268e-06 DIIS
   @RHF iter   7:  -236.54060610869806   -1.99599e-07   6.92024e-07 DIIS
   @RHF iter   8:  -236.54060612306850   -1.43704e-08   1.72147e-07 DIIS
   @RHF iter   9:  -236.54060612395591   -8.87411e-10   4.96296e-08 DIIS
   @RHF iter  10:  -236.54060612403893   -8.30198e-11   1.06489e-08 DIIS
   @RHF iter  11:  -236.54060612404211   -3.18323e-12   2.07717e-09 DIIS
   @RHF iter  12:  -236.54060612404220   -8.52651e-14   3.60107e-10 DIIS
   @RHF iter  13:  -236.54060612404211    8.52651e-14   6.76922e-11 DIIS
  Energy and wave function converged.

  ==> Post-Iterations <==

    Orbital Energies [Eh]
    ---------------------

    Doubly Occupied:

       1A    -11.222020     2A    -11.218066     3A    -11.216541
       4A    -11.216357     5A    -11.213129     6A    -11.210577
       7A     -1.078029     8A     -1.022991     9A     -0.926969
      10A     -0.922401    11A     -0.838901    12A     -0.764097
      13A     -0.631000    14A     -0.602973    15A     -0.599497
      16A     -0.585672    17A     -0.583604    18A     -0.534799
      19A     -0.532759    20A     -0.506426    21A     -0.505170
      22A     -0.488052    23A     -0.486283    24A     -0.457601
      25A     -0.457040    26A     -0.452831

    Virtual:

      27A      0.166824    28A      0.194049    29A      0.211572
      30A      0.222907    31A      0.225573    32A      0.249854
      33A      0.257074    34A      0.258577    35A      0.261961
      36A      0.268582    37A      0.290223    38A      0.300753
      39A      0.303041    40A      0.313361    41A      0.321950
      42A      0.325914    43A      0.367670    44A      0.410711
      45A      0.413654    46A      0.427587    47A      0.565226
      48A      0.571185    49A      0.594588    50A      0.600610
      51A      0.605841    52A      0.625091    53A      0.626208
      54A      0.661862    55A      0.686248    56A      0.708450
      57A      0.775383    58A      0.782066    59A      0.788473
      60A      0.833063    61A      0.858058    62A      0.875222
      63A      0.881832    64A      0.886005    65A      0.890867
      66A      0.891395    67A      0.897836    68A      0.904497
      69A      0.909444    70A      0.911566    71A      0.917993
      72A      0.923367    73A      0.925996    74A      0.935973
      75A      0.951235    76A      0.960223    77A      0.978763
      78A      0.986814    79A      0.996709    80A      1.051089
      81A      1.121502    82A      1.128876    83A      1.132761
      84A      1.135776    85A      1.214294    86A      1.309171
      87A      1.368788    88A      1.392210    89A      1.408558
      90A      1.481828    91A      1.484242    92A      1.543135
      93A      1.559458    94A      1.581686    95A      1.662284
      96A      1.668056    97A      1.670616    98A      1.682502
      99A      1.688506   100A      1.695335   101A      1.698038
     102A      1.730768   103A      1.739606   104A      1.835301
     105A      1.837110   106A      1.858890   107A      1.866979
     108A      1.876607   109A      1.921737   110A      1.932262
     111A      1.934500   112A      1.946863   113A      1.949398
     114A      1.952067   115A      1.954228   116A      1.960047
     117A      1.966333   118A      1.976727   119A      1.991525
     120A      1.997843   121A      2.000546   122A      2.028147
     123A      2.074722   124A      2.095884   125A      2.106286
     126A      2.112566   127A      2.119541   128A      2.124331
     129A      2.146903   130A      2.245686   131A      2.253479
     132A      2.298032   133A      2.307904   134A      2.316494
     135A      2.346285   136A      2.351266   137A      2.352889
     138A      2.373381   139A      2.456388   140A      2.472350
     141A      2.473804   142A      2.565639   143A      2.581146
     144A      2.594006   145A      2.614784   146A      2.619620
     147A      2.711100   148A      2.722317   149A      2.750545
     150A      2.766459   151A      2.784473   152A      2.787734
     153A      2.803550   154A      2.810188   155A      2.834038
     156A      2.838912   157A      2.854077   158A      2.861968
     159A      2.868068   160A      2.955570   161A      2.965451
     162A      3.016332   163A      3.029186   164A      3.159415

    Final Occupation by Irrep:
              A
    DOCC [    26 ]

  @RHF Final Energy:  -236.54060612404211

   => Energetics <=

    Nuclear Repulsion Energy =            242.4624391529980869
    One-Electron Energy =                -797.4585236408648825
    Two-Electron Energy =                 318.4554783638247386
    Total Energy =                       -236.5406061240420854

Computation Completed

Properties will be evaluated at   0.000000,   0.000000,   0.000000 [a0]

Properties computed using the SCF density matrix

  Nuclear Dipole Moment: [e a0]
     X:     1.6975      Y:    -0.0839      Z:    -0.9264

  Electronic Dipole Moment: [e a0]
     X:    -1.6241      Y:     0.0590      Z:     0.9000

  Dipole Moment: [e a0]
     X:     0.0734      Y:    -0.0248      Z:    -0.0264     Total:     0.0818

  Dipole Moment: [D]
     X:     0.1865      Y:    -0.0631      Z:    -0.0672     Total:     0.2080

*** tstop() called on ds3 at Mon Apr 27 19:59:43 2020
Module time:
	user time   =      27.71 seconds =       0.46 minutes
	system time =      11.28 seconds =       0.19 minutes
	total time  =         38 seconds =       0.63 minutes
Total time:
	user time   =      27.71 seconds =       0.46 minutes
	system time =      11.28 seconds =       0.19 minutes
	total time  =         38 seconds =       0.63 minutes
                                     G D M A

                                 by Anthony Stone

                           version 2.2.06, 22 June 2011

               Distributed Multipoles from Gaussian wavefunctions

Starting at 19:59:43 on 27 Apr 2020

Using SCF density matrix from file ./SSI/SSI-249ILE-300LEU-1-dimer.test.11286.fchk

                         Distributed Multipole Analysis

Standard DMA

Positions and radii in angstrom
Multipole moments in atomic units, ea_0^k for rank k

C          x = -1.144679  y =  0.040419  z =  0.623166 angstrom
           Maximum rank =  0   Radius =  0.650 angstrom
                   Q00  =   0.007528

C          x = -2.043679  y =  0.484419  z = -0.545834 angstrom
           Maximum rank =  0   Radius =  0.650 angstrom
                   Q00  =  -0.238535

C          x = -0.949679  y =  1.182419  z =  1.621166 angstrom
           Maximum rank =  0   Radius =  0.650 angstrom
                   Q00  =  -0.248789

C          x = -1.736679  y = -1.197581  z =  1.310166 angstrom
           Maximum rank =  0   Radius =  0.650 angstrom
                   Q00  =  -0.254719

H          x = -0.168679  y = -0.227581  z =  0.224166 angstrom
           Maximum rank =  0   Radius =  0.325 angstrom
                   Q00  =   0.021178

H          x = -3.050679  y =  0.642419  z = -0.152834 angstrom
           Maximum rank =  0   Radius =  0.325 angstrom
                   Q00  =   0.076007

H          x = -1.914679  y =  1.576419  z =  1.915166 angstrom
           Maximum rank =  0   Radius =  0.325 angstrom
                   Q00  =   0.075312

H          x = -0.412679  y =  0.850419  z =  2.508166 angstrom
           Maximum rank =  0   Radius =  0.325 angstrom
                   Q00  =   0.080775

H          x = -0.373679  y =  1.984419  z =  1.177166 angstrom
           Maximum rank =  0   Radius =  0.325 angstrom
                   Q00  =   0.080770

H          x = -2.659679  y = -0.926581  z =  1.823166 angstrom
           Maximum rank =  0   Radius =  0.325 angstrom
                   Q00  =   0.074655

H          x = -1.989679  y = -1.945581  z =  0.563166 angstrom
           Maximum rank =  0   Radius =  0.325 angstrom
                   Q00  =   0.077789

H          x = -2.054220  y = -0.269283  z = -1.346974 angstrom
           Maximum rank =  0   Radius =  0.325 angstrom
                   Q00  =   0.082931

H          x = -1.688609  y =  1.438259  z = -0.963094 angstrom
           Maximum rank =  0   Radius =  0.325 angstrom
                   Q00  =   0.079226

H          x = -1.051611  y = -1.675972  z =  2.025585 angstrom
           Maximum rank =  0   Radius =  0.325 angstrom
                   Q00  =   0.082837

C          x =  2.316321  y = -0.302581  z = -0.936834 angstrom
           Maximum rank =  0   Radius =  0.650 angstrom
                   Q00  =  -0.242911

C          x =  3.406321  y = -0.199581  z = -1.988834 angstrom
           Maximum rank =  0   Radius =  0.650 angstrom
                   Q00  =  -0.225517

H          x =  1.470321  y = -0.863581  z = -1.328834 angstrom
           Maximum rank =  0   Radius =  0.325 angstrom
                   Q00  =   0.075390

H          x =  2.690321  y = -0.829581  z = -0.068834 angstrom
           Maximum rank =  0   Radius =  0.325 angstrom
                   Q00  =   0.080273

H          x =  1.992321  y =  0.694419  z = -0.633834 angstrom
           Maximum rank =  0   Radius =  0.325 angstrom
                   Q00  =   0.076760

H          x =  3.621321  y = -1.190581  z = -2.356834 angstrom
           Maximum rank =  0   Radius =  0.325 angstrom
                   Q00  =   0.081236

H          x =  3.076910  y =  0.434734  z = -2.824974 angstrom
           Maximum rank =  0   Radius =  0.325 angstrom
                   Q00  =   0.078866

H          x =  4.323729  y =  0.218213  z = -1.548594 angstrom
           Maximum rank =  0   Radius =  0.325 angstrom
                   Q00  =   0.078937

Total multipoles referred to origin at
           x =   0.000000,  y =    0.000000,  z =    0.000000 angstrom
                   Q00  =  -0.000000

Finished at 19:59:43 on 27 Apr 2020

  DMA results are available in the Python driver through the
	  variable('DMA DISTRIBUTED MULTIPOLES')
  and
	  variable('DMA TOTAL MULTIPOLES')
  commands.

    Psi4 stopped on: Monday, 27 April 2020 07:59PM
    Psi4 wall time for execution: 0:00:37.73

*** Psi4 exiting successfully. Buy a developer a beer!
