                               Psi4 1.3.2 release

  ==> Input File <==

--------------------------------------------------------------------------
import numpy as np
set {scf_type pk
basis cc-pvdz
d_convergence 10
gdma_switch   0
gdma_limit    0
gdma_origin   [ 0.0,  0.0,  0.0 ]
}
molecule test {
    units Angstrom
    -1 1
    --
    -1 1
    C               -0.658901492520309    -2.505695988396529     0.372846236305734
    C               -2.158901492520309    -2.640695988396529     0.579846236305734
    C               -0.021901492520309    -1.769695988396529     1.546846236305734
    H               -0.214901492520309    -3.498695988396529     0.278846236305734
    H               -0.476901492520309    -1.952695988396529    -0.550153763694266
    H               -2.572901492520309    -1.641695988396529     0.727846236305734
    H               -2.352901492520309    -3.236695988396529     1.472846236305734
    H               -0.559901492520309    -0.829695988396529     1.709846236305734
    H               -0.134901492520309    -2.385695988396529     2.442846236305734
    H               -2.659291492520309    -3.097945988396529    -0.286486763694266
    H                1.041728507479691    -1.557852988396529     1.362954656305734
    C                0.654098507479691     2.748304011603471     0.385846236305734
    C                0.714098507479691     1.661304011603471    -0.681153763694266
    O                0.440098507479691     0.489304011603471    -0.368153763694266
    O                1.044098507479691     1.963304011603471    -1.854153763694266
    H               -0.173901492520309     3.394304011603472     0.092846236305734
    H                1.581098507479691     3.326304011603471     0.356846236305734
    H                0.488478507479691     2.399925011603471     1.415992306305734

}
e, wfn = energy('scf', return_wfn=True)
gdma(wfn)
dmavals = variable('DMA DISTRIBUTED MULTIPOLES')
charges = np.array(dmavals)
print(charges)
np.save('SSI-008LYS-068GLU-1-dimer.npy', np.array(charges))--------------------------------------------------------------------------

*** tstart() called on ds3
*** at Tue Apr 28 03:31:23 2020

   => Loading Basis Set <=

    Name: CC-PVDZ
    Role: ORBITAL
    Keyword: BASIS
    atoms 1-3, 12-13  entry C          line   138 file /theoryfs2/ds/metcalf/miniconda2/envs/tf2gpu/share/psi4/basis/cc-pvdz.gbs
    atoms 4-11, 16-18 entry H          line    22 file /theoryfs2/ds/metcalf/miniconda2/envs/tf2gpu/share/psi4/basis/cc-pvdz.gbs
    atoms 14-15       entry O          line   198 file /theoryfs2/ds/metcalf/miniconda2/envs/tf2gpu/share/psi4/basis/cc-pvdz.gbs

         ---------------------------------------------------------
                                   SCF
               by Justin Turney, Rob Parrish, Andy Simmonett
                          and Daniel G. A. Smith
                              RHF Reference
                        1 Threads,    500 MiB Core
         ---------------------------------------------------------

  ==> Geometry <==

    Molecular point group: c1
    Full point group: C1

    Geometry (in Angstrom), charge = -1, multiplicity = 1:

       Center              X                  Y                   Z               Mass
    ------------   -----------------  -----------------  -----------------  -----------------
         C           -0.658901492520    -2.505695988397     0.372846236306    12.000000000000
         C           -2.158901492520    -2.640695988397     0.579846236306    12.000000000000
         C           -0.021901492520    -1.769695988397     1.546846236306    12.000000000000
         H           -0.214901492520    -3.498695988397     0.278846236306     1.007825032230
         H           -0.476901492520    -1.952695988397    -0.550153763694     1.007825032230
         H           -2.572901492520    -1.641695988397     0.727846236306     1.007825032230
         H           -2.352901492520    -3.236695988397     1.472846236306     1.007825032230
         H           -0.559901492520    -0.829695988397     1.709846236306     1.007825032230
         H           -0.134901492520    -2.385695988397     2.442846236306     1.007825032230
         H           -2.659291492520    -3.097945988397    -0.286486763694     1.007825032230
         H            1.041728507480    -1.557852988397     1.362954656306     1.007825032230
         C            0.654098507480     2.748304011603     0.385846236306    12.000000000000
         C            0.714098507480     1.661304011603    -0.681153763694    12.000000000000
         O            0.440098507480     0.489304011603    -0.368153763694    15.994914619570
         O            1.044098507480     1.963304011603    -1.854153763694    15.994914619570
         H           -0.173901492520     3.394304011603     0.092846236306     1.007825032230
         H            1.581098507480     3.326304011603     0.356846236306     1.007825032230
         H            0.488478507480     2.399925011603     1.415992306306     1.007825032230

  Running in c1 symmetry.

  Rotational constants: A =      0.16093  B =      0.02701  C =      0.02555 [cm^-1]
  Rotational constants: A =   4824.62789  B =    809.86800  C =    765.87879 [MHz]
  Nuclear repulsion =  288.338361797234086

  Charge       = -1
  Multiplicity = 1
  Electrons    = 58
  Nalpha       = 29
  Nbeta        = 29

  ==> Algorithm <==

  SCF Algorithm Type is PK.
  DIIS enabled.
  MOM disabled.
  Fractional occupation disabled.
  Guess Type is SAD.
  Energy threshold   = 1.00e-06
  Density threshold  = 1.00e-10
  Integral threshold = 0.00e+00

  ==> Primary Basis <==

  Basis Set: CC-PVDZ
    Blend: CC-PVDZ
    Number of shells: 75
    Number of basis function: 153
    Number of Cartesian functions: 160
    Spherical Harmonics?: true
    Max angular momentum: 2

  ==> Pre-Iterations <==

   -------------------------------------------------------
    Irrep   Nso     Nmo     Nalpha   Nbeta   Ndocc  Nsocc
   -------------------------------------------------------
     A        153     153       0       0       0       0
   -------------------------------------------------------
    Total     153     153      29      29      29       0
   -------------------------------------------------------

  ==> Integral Setup <==

  Using integral reordering PK algorithm.
  Sizing the integral batches needed.
  Building batch lookup table.
   Calculation information:
      Number of atoms:                  18
      Number of AO shells:              75
      Number of primitives:            209
      Number of atomic orbitals:       160
      Number of basis functions:       153

      Integral cutoff                 1.00e-12
      Number of threads:                 1

	Batch   1 pq = [       0,    9405] index = [             0,44231715] size =     44231715
	Batch   2 pq = [    9405,   11781] index = [      44231715,69401871] size =     25170156
  Task number: 7
  Buffer size: 11059200
  Buffer per thread: 2
  We computed 3260668 shell quartets total.
  Whereas there are 4062675 unique shell quartets.

  ==> DiskJK: Disk-Based J/K Matrices <==

    J tasked:                  Yes
    K tasked:                  Yes
    wK tasked:                  No
    Memory [MiB]:              375
    Schwarz Cutoff:          1E-12

    OpenMP threads:              1

  Minimum eigenvalue in the overlap matrix is 5.5275612936E-03.
  Using Symmetric Orthogonalization.

  SCF Guess: Superposition of Atomic Densities via on-the-fly atomic UHF.

  ==> Iterations <==

                        Total Energy        Delta E     RMS |[F,P]|

   @RHF iter SAD:  -343.88889561033864   -3.43889e+02   0.00000e+00
   @RHF iter   1:  -345.20836205915589   -1.31947e+00   5.01488e-03 DIIS
   @RHF iter   2:  -345.43882199719587   -2.30460e-01   2.82435e-03 DIIS
   @RHF iter   3:  -345.50951908461963   -7.06971e-02   4.31147e-04 DIIS
   @RHF iter   4:  -345.51252114596099   -3.00206e-03   1.60834e-04 DIIS
   @RHF iter   5:  -345.51293842679615   -4.17281e-04   2.48032e-05 DIIS
   @RHF iter   6:  -345.51295015660287   -1.17298e-05   7.65454e-06 DIIS
   @RHF iter   7:  -345.51295108924796   -9.32645e-07   2.54848e-06 DIIS
   @RHF iter   8:  -345.51295117402248   -8.47745e-08   7.79532e-07 DIIS
   @RHF iter   9:  -345.51295118450156   -1.04791e-08   2.45913e-07 DIIS
   @RHF iter  10:  -345.51295118594174   -1.44018e-09   7.28454e-08 DIIS
   @RHF iter  11:  -345.51295118617173   -2.29988e-10   2.76605e-08 DIIS
   @RHF iter  12:  -345.51295118620283   -3.10934e-11   8.29199e-09 DIIS
   @RHF iter  13:  -345.51295118620652   -3.69482e-12   2.42624e-09 DIIS
   @RHF iter  14:  -345.51295118620516    1.36424e-12   6.34301e-10 DIIS
   @RHF iter  15:  -345.51295118620703   -1.87583e-12   1.77065e-10 DIIS
   @RHF iter  16:  -345.51295118620698    5.68434e-14   7.05300e-11 DIIS
  Energy and wave function converged.

  ==> Post-Iterations <==

    Orbital Energies [Eh]
    ---------------------

    Doubly Occupied:

       1A    -20.261214     2A    -20.253371     3A    -11.116258
       4A    -11.101951     5A    -11.085721     6A    -11.077864
       7A    -11.054036     8A     -1.150826     9A     -1.032587
      10A     -0.927701    11A     -0.799192    12A     -0.794336
      13A     -0.666979    14A     -0.507180    15A     -0.494656
      16A     -0.472069    17A     -0.420625    18A     -0.415404
      19A     -0.410496    20A     -0.404180    21A     -0.395139
      22A     -0.343783    23A     -0.342941    24A     -0.339296
      25A     -0.336050    26A     -0.304668    27A     -0.184595
      28A     -0.168024    29A     -0.159375

    Virtual:

      30A      0.302163    31A      0.342089    32A      0.346224
      33A      0.355671    34A      0.374578    35A      0.383863
      36A      0.397961    37A      0.406312    38A      0.414260
      39A      0.436791    40A      0.457400    41A      0.484724
      42A      0.501868    43A      0.551674    44A      0.575525
      45A      0.687713    46A      0.695453    47A      0.711428
      48A      0.730839    49A      0.741310    50A      0.755449
      51A      0.799386    52A      0.815334    53A      0.885852
      54A      0.924727    55A      0.936566    56A      0.952013
      57A      0.966976    58A      0.983601    59A      0.997110
      60A      1.003555    61A      1.015030    62A      1.015575
      63A      1.028625    64A      1.032489    65A      1.040782
      66A      1.050440    67A      1.059326    68A      1.064414
      69A      1.077600    70A      1.098044    71A      1.114882
      72A      1.151158    73A      1.228466    74A      1.253590
      75A      1.256587    76A      1.318468    77A      1.343974
      78A      1.354532    79A      1.483650    80A      1.494636
      81A      1.532087    82A      1.559766    83A      1.584170
      84A      1.603067    85A      1.613796    86A      1.626154
      87A      1.655175    88A      1.714069    89A      1.716781
      90A      1.732744    91A      1.793504    92A      1.799312
      93A      1.827449    94A      1.840494    95A      1.845434
      96A      1.868192    97A      1.970259    98A      1.999887
      99A      2.014025   100A      2.041236   101A      2.053597
     102A      2.070923   103A      2.083544   104A      2.087915
     105A      2.088730   106A      2.094909   107A      2.109786
     108A      2.117603   109A      2.133309   110A      2.148578
     111A      2.160833   112A      2.215486   113A      2.216020
     114A      2.245896   115A      2.269044   116A      2.297642
     117A      2.323087   118A      2.412031   119A      2.422517
     120A      2.434175   121A      2.443355   122A      2.446428
     123A      2.477769   124A      2.587433   125A      2.622249
     126A      2.650943   127A      2.663413   128A      2.700962
     129A      2.717656   130A      2.742264   131A      2.763945
     132A      2.805402   133A      2.875542   134A      2.895868
     135A      2.913539   136A      2.930632   137A      2.950248
     138A      2.959342   139A      2.990420   140A      3.040987
     141A      3.096561   142A      3.099990   143A      3.188180
     144A      3.244245   145A      3.283601   146A      3.292482
     147A      3.363657   148A      3.646235   149A      3.780975
     150A      3.818628   151A      4.063978   152A      4.121595
     153A      4.207622

    Final Occupation by Irrep:
              A
    DOCC [    29 ]

  @RHF Final Energy:  -345.51295118620698

   => Energetics <=

    Nuclear Repulsion Energy =            288.3383617972340858
    One-Electron Energy =               -1053.6615939509504187
    Two-Electron Energy =                 419.8102809675094136
    Total Energy =                       -345.5129511862069762

Computation Completed

Properties will be evaluated at   0.000000,   0.000000,   0.000000 [a0]

Properties computed using the SCF density matrix

  Nuclear Dipole Moment: [e a0]
     X:    -5.6498      Y:    -8.5009      Z:     8.4493

  Electronic Dipole Moment: [e a0]
     X:     4.4904      Y:     6.9279      Z:    -6.4986

  Dipole Moment: [e a0]
     X:    -1.1594      Y:    -1.5730      Z:     1.9507     Total:     2.7611

  Dipole Moment: [D]
     X:    -2.9470      Y:    -3.9982      Z:     4.9581     Total:     7.0180

*** tstop() called on ds3 at Tue Apr 28 03:31:55 2020
Module time:
	user time   =      21.77 seconds =       0.36 minutes
	system time =      10.56 seconds =       0.18 minutes
	total time  =         32 seconds =       0.53 minutes
Total time:
	user time   =      21.77 seconds =       0.36 minutes
	system time =      10.56 seconds =       0.18 minutes
	total time  =         32 seconds =       0.53 minutes
                                     G D M A

                                 by Anthony Stone

                           version 2.2.06, 22 June 2011

               Distributed Multipoles from Gaussian wavefunctions

Starting at 3:31:55 on 28 Apr 2020

Using SCF density matrix from file ./SSI/SSI-008LYS-068GLU-1-dimer.test.16083.fchk

                         Distributed Multipole Analysis

Standard DMA

Positions and radii in angstrom
Multipole moments in atomic units, ea_0^k for rank k

C          x = -0.658901  y = -2.505696  z =  0.372846 angstrom
           Maximum rank =  0   Radius =  0.650 angstrom
                   Q00  =  -0.071313

C          x = -2.158901  y = -2.640696  z =  0.579846 angstrom
           Maximum rank =  0   Radius =  0.650 angstrom
                   Q00  =  -0.232459

C          x = -0.021901  y = -1.769696  z =  1.546846 angstrom
           Maximum rank =  0   Radius =  0.650 angstrom
                   Q00  =  -0.188027

H          x = -0.214901  y = -3.498696  z =  0.278846 angstrom
           Maximum rank =  0   Radius =  0.325 angstrom
                   Q00  =  -0.001725

H          x = -0.476901  y = -1.952696  z = -0.550154 angstrom
           Maximum rank =  0   Radius =  0.325 angstrom
                   Q00  =   0.098247

H          x = -2.572901  y = -1.641696  z =  0.727846 angstrom
           Maximum rank =  0   Radius =  0.325 angstrom
                   Q00  =   0.080960

H          x = -2.352901  y = -3.236696  z =  1.472846 angstrom
           Maximum rank =  0   Radius =  0.325 angstrom
                   Q00  =   0.041839

H          x = -0.559901  y = -0.829696  z =  1.709846 angstrom
           Maximum rank =  0   Radius =  0.325 angstrom
                   Q00  =   0.093273

H          x = -0.134901  y = -2.385696  z =  2.442846 angstrom
           Maximum rank =  0   Radius =  0.325 angstrom
                   Q00  =   0.000738

H          x = -2.659291  y = -3.097946  z = -0.286487 angstrom
           Maximum rank =  0   Radius =  0.325 angstrom
                   Q00  =   0.060316

H          x =  1.041729  y = -1.557853  z =  1.362955 angstrom
           Maximum rank =  0   Radius =  0.325 angstrom
                   Q00  =   0.101151

C          x =  0.654099  y =  2.748304  z =  0.385846 angstrom
           Maximum rank =  0   Radius =  0.650 angstrom
                   Q00  =  -0.284403

C          x =  0.714099  y =  1.661304  z = -0.681154 angstrom
           Maximum rank =  0   Radius =  0.650 angstrom
                   Q00  =   0.971341

O          x =  0.440099  y =  0.489304  z = -0.368154 angstrom
           Maximum rank =  0   Radius =  0.650 angstrom
                   Q00  =  -0.924477

O          x =  1.044099  y =  1.963304  z = -1.854154 angstrom
           Maximum rank =  0   Radius =  0.650 angstrom
                   Q00  =  -0.937533

H          x = -0.173901  y =  3.394304  z =  0.092846 angstrom
           Maximum rank =  0   Radius =  0.325 angstrom
                   Q00  =   0.073321

H          x =  1.581099  y =  3.326304  z =  0.356846 angstrom
           Maximum rank =  0   Radius =  0.325 angstrom
                   Q00  =   0.064566

H          x =  0.488479  y =  2.399925  z =  1.415992 angstrom
           Maximum rank =  0   Radius =  0.325 angstrom
                   Q00  =   0.054184

Total multipoles referred to origin at
           x =   0.000000,  y =    0.000000,  z =    0.000000 angstrom
                   Q00  =  -1.000000

Finished at 3:31:55 on 28 Apr 2020

  DMA results are available in the Python driver through the
	  variable('DMA DISTRIBUTED MULTIPOLES')
  and
	  variable('DMA TOTAL MULTIPOLES')
  commands.

    Psi4 stopped on: Tuesday, 28 April 2020 03:31AM
    Psi4 wall time for execution: 0:00:32.06

*** Psi4 exiting successfully. Buy a developer a beer!
