                               Psi4 1.3.2 release

  ==> Input File <==

--------------------------------------------------------------------------
import numpy as np
set {scf_type pk
basis cc-pvdz
d_convergence 10
gdma_switch   0
gdma_limit    0
gdma_origin   [ 0.0,  0.0,  0.0 ]
}
molecule test {
    units Angstrom
    0 1
    --
    0 1
    C                1.262643385330807    -0.582864732161486     0.435657186217869
    C                2.217643385330807     0.008135267838514     1.489657186217869
    C                1.612643385330807    -1.943864732161486    -0.140342813782131
    H                0.279643385330807    -0.677864732161486     0.900657186217868
    H                1.157643385330807     0.123135267838514    -0.390342813782131
    H                3.199643385330807     0.132135267838514     1.037657186217869
    H                1.957643385330807    -2.614864732161486     0.642657186217868
    H                0.710643385330807    -2.376864732161486    -0.573342813782131
    H                2.288303385330807    -0.618714732161486     2.390807186217869
    H                1.829893385330807     1.006755267838514     1.739487186217869
    H                2.372323385330807    -1.883834732161486    -0.933612813782131
    C               -2.155356614669193     0.881135267838514    -0.303342813782131
    C               -2.836356614669193     1.596135267838514    -1.451342813782131
    H               -1.143356614669193     1.245135267838514    -0.159342813782131
    H               -2.711356614669193     1.051135267838514     0.618657186217869
    H               -2.111356614669193    -0.190864732161486    -0.499342813782131
    H               -2.946356614669194     2.647135267838514    -1.189342813782132
    H               -2.252896614669194     1.498775267838514    -2.378762813782132
    H               -3.835586614669193     1.150835267838514    -1.566442813782131

}
e, wfn = energy('scf', return_wfn=True)
gdma(wfn)
dmavals = variable('DMA DISTRIBUTED MULTIPOLES')
charges = np.array(dmavals)
print(charges)
np.save('SSI-192GLN-197VAL-1-dimer.npy', np.array(charges))--------------------------------------------------------------------------

*** tstart() called on ds3
*** at Mon Apr 27 07:59:36 2020

   => Loading Basis Set <=

    Name: CC-PVDZ
    Role: ORBITAL
    Keyword: BASIS
    atoms 1-3, 12-13  entry C          line   138 file /theoryfs2/ds/metcalf/miniconda2/envs/tf2gpu/share/psi4/basis/cc-pvdz.gbs
    atoms 4-11, 14-19 entry H          line    22 file /theoryfs2/ds/metcalf/miniconda2/envs/tf2gpu/share/psi4/basis/cc-pvdz.gbs

         ---------------------------------------------------------
                                   SCF
               by Justin Turney, Rob Parrish, Andy Simmonett
                          and Daniel G. A. Smith
                              RHF Reference
                        1 Threads,    500 MiB Core
         ---------------------------------------------------------

  ==> Geometry <==

    Molecular point group: c1
    Full point group: C1

    Geometry (in Angstrom), charge = 0, multiplicity = 1:

       Center              X                  Y                   Z               Mass
    ------------   -----------------  -----------------  -----------------  -----------------
         C            1.262643385331    -0.582864732161     0.435657186218    12.000000000000
         C            2.217643385331     0.008135267839     1.489657186218    12.000000000000
         C            1.612643385331    -1.943864732161    -0.140342813782    12.000000000000
         H            0.279643385331    -0.677864732161     0.900657186218     1.007825032230
         H            1.157643385331     0.123135267839    -0.390342813782     1.007825032230
         H            3.199643385331     0.132135267839     1.037657186218     1.007825032230
         H            1.957643385331    -2.614864732161     0.642657186218     1.007825032230
         H            0.710643385331    -2.376864732161    -0.573342813782     1.007825032230
         H            2.288303385331    -0.618714732161     2.390807186218     1.007825032230
         H            1.829893385331     1.006755267839     1.739487186218     1.007825032230
         H            2.372323385331    -1.883834732161    -0.933612813782     1.007825032230
         C           -2.155356614669     0.881135267839    -0.303342813782    12.000000000000
         C           -2.836356614669     1.596135267839    -1.451342813782    12.000000000000
         H           -1.143356614669     1.245135267839    -0.159342813782     1.007825032230
         H           -2.711356614669     1.051135267839     0.618657186218     1.007825032230
         H           -2.111356614669    -0.190864732161    -0.499342813782     1.007825032230
         H           -2.946356614669     2.647135267839    -1.189342813782     1.007825032230
         H           -2.252896614669     1.498775267839    -2.378762813782     1.007825032230
         H           -3.835586614669     1.150835267839    -1.566442813782     1.007825032230

  Running in c1 symmetry.

  Rotational constants: A =      0.22518  B =      0.03574  C =      0.03245 [cm^-1]
  Rotational constants: A =   6750.65136  B =   1071.52247  C =    972.75973 [MHz]
  Nuclear repulsion =  174.982449072924737

  Charge       = 0
  Multiplicity = 1
  Electrons    = 44
  Nalpha       = 22
  Nbeta        = 22

  ==> Algorithm <==

  SCF Algorithm Type is PK.
  DIIS enabled.
  MOM disabled.
  Fractional occupation disabled.
  Guess Type is SAD.
  Energy threshold   = 1.00e-06
  Density threshold  = 1.00e-10
  Integral threshold = 0.00e+00

  ==> Primary Basis <==

  Basis Set: CC-PVDZ
    Blend: CC-PVDZ
    Number of shells: 72
    Number of basis function: 140
    Number of Cartesian functions: 145
    Spherical Harmonics?: true
    Max angular momentum: 2

  ==> Pre-Iterations <==

   -------------------------------------------------------
    Irrep   Nso     Nmo     Nalpha   Nbeta   Ndocc  Nsocc
   -------------------------------------------------------
     A        140     140       0       0       0       0
   -------------------------------------------------------
    Total     140     140      22      22      22       0
   -------------------------------------------------------

  ==> Integral Setup <==

  Using integral reordering PK algorithm.
  Sizing the integral batches needed.
  Building batch lookup table.
   Calculation information:
      Number of atoms:                  19
      Number of AO shells:              72
      Number of primitives:            180
      Number of atomic orbitals:       145
      Number of basis functions:       140

      Integral cutoff                 1.00e-12
      Number of threads:                 1

	Batch   1 pq = [       0,    9405] index = [             0,44231715] size =     44231715
	Batch   2 pq = [    9405,    9870] index = [      44231715,48713385] size =      4481670
  Task number: 5
  Buffer size: 11059200
  Buffer per thread: 2
  We computed 2697884 shell quartets total.
  Whereas there are 3454506 unique shell quartets.

  ==> DiskJK: Disk-Based J/K Matrices <==

    J tasked:                  Yes
    K tasked:                  Yes
    wK tasked:                  No
    Memory [MiB]:              375
    Schwarz Cutoff:          1E-12

    OpenMP threads:              1

  Minimum eigenvalue in the overlap matrix is 5.3585769487E-03.
  Using Symmetric Orthogonalization.

  SCF Guess: Superposition of Atomic Densities via on-the-fly atomic UHF.

  ==> Iterations <==

                        Total Energy        Delta E     RMS |[F,P]|

   @RHF iter SAD:  -196.36845342711729   -1.96368e+02   0.00000e+00
   @RHF iter   1:  -197.30884260004083   -9.40389e-01   3.81951e-03 DIIS
   @RHF iter   2:  -197.46994974481626   -1.61107e-01   1.64647e-03 DIIS
   @RHF iter   3:  -197.49855663966807   -2.86069e-02   3.26083e-04 DIIS
   @RHF iter   4:  -197.50079569402232   -2.23905e-03   4.95976e-05 DIIS
   @RHF iter   5:  -197.50083588139222   -4.01874e-05   1.49839e-05 DIIS
   @RHF iter   6:  -197.50083933991220   -3.45852e-06   2.45446e-06 DIIS
   @RHF iter   7:  -197.50083944889022   -1.08978e-07   4.74630e-07 DIIS
   @RHF iter   8:  -197.50083945360899   -4.71877e-09   1.29984e-07 DIIS
   @RHF iter   9:  -197.50083945394758   -3.38588e-10   4.01407e-08 DIIS
   @RHF iter  10:  -197.50083945398688   -3.93072e-11   8.42079e-09 DIIS
   @RHF iter  11:  -197.50083945398893   -2.04636e-12   1.55529e-09 DIIS
   @RHF iter  12:  -197.50083945398933   -3.97904e-13   2.84585e-10 DIIS
   @RHF iter  13:  -197.50083945398879    5.40012e-13   5.06786e-11 DIIS
  Energy and wave function converged.

  ==> Post-Iterations <==

    Orbital Energies [Eh]
    ---------------------

    Doubly Occupied:

       1A    -11.218664     2A    -11.218171     3A    -11.218087
       4A    -11.214509     5A    -11.214030     6A     -1.050745
       7A     -1.022144     8A     -0.927398     9A     -0.835003
      10A     -0.793454    11A     -0.623524    12A     -0.601312
      13A     -0.600039    14A     -0.590440    15A     -0.552121
      16A     -0.536445    17A     -0.502197    18A     -0.486824
      19A     -0.483960    20A     -0.471752    21A     -0.468214
      22A     -0.458057

    Virtual:

      23A      0.170172    24A      0.193296    25A      0.211266
      26A      0.221499    27A      0.231341    28A      0.250530
      29A      0.258978    30A      0.266399    31A      0.271324
      32A      0.287356    33A      0.294676    34A      0.298141
      35A      0.308503    36A      0.328133    37A      0.375351
      38A      0.411692    39A      0.434486    40A      0.573728
      41A      0.582439    42A      0.602661    43A      0.604778
      44A      0.609120    45A      0.620330    46A      0.634975
      47A      0.655358    48A      0.678643    49A      0.762504
      50A      0.770154    51A      0.809309    52A      0.854938
      53A      0.875635    54A      0.879228    55A      0.883028
      56A      0.892861    57A      0.895092    58A      0.896010
      59A      0.900675    60A      0.905338    61A      0.906228
      62A      0.915463    63A      0.920823    64A      0.931588
      65A      0.952278    66A      0.975226    67A      0.981361
      68A      0.991699    69A      1.116714    70A      1.124183
      71A      1.126966    72A      1.158973    73A      1.213029
      74A      1.243703    75A      1.380259    76A      1.458192
      77A      1.473905    78A      1.478427    79A      1.492177
      80A      1.526988    81A      1.585801    82A      1.642527
      83A      1.671089    84A      1.678577    85A      1.682606
      86A      1.706627    87A      1.709357    88A      1.839849
      89A      1.859152    90A      1.861000    91A      1.869180
      92A      1.888517    93A      1.897300    94A      1.917176
      95A      1.923829    96A      1.934618    97A      1.952150
      98A      1.952506    99A      1.958165   100A      1.961627
     101A      1.969689   102A      1.971622   103A      1.990340
     104A      2.003626   105A      2.019682   106A      2.027820
     107A      2.045848   108A      2.101602   109A      2.120513
     110A      2.141045   111A      2.173158   112A      2.261592
     113A      2.297471   114A      2.310008   115A      2.325990
     116A      2.337316   117A      2.357806   118A      2.453881
     119A      2.470540   120A      2.486335   121A      2.527422
     122A      2.565010   123A      2.577947   124A      2.580313
     125A      2.611695   126A      2.643909   127A      2.754444
     128A      2.762140   129A      2.768628   130A      2.779793
     131A      2.794629   132A      2.820250   133A      2.849369
     134A      2.857062   135A      2.910545   136A      2.941986
     137A      2.949533   138A      2.976523   139A      2.987240
     140A      3.054656

    Final Occupation by Irrep:
              A
    DOCC [    22 ]

  @RHF Final Energy:  -197.50083945398879

   => Energetics <=

    Nuclear Repulsion Energy =            174.9824490729247373
    One-Electron Energy =                -610.7924039934141547
    Two-Electron Energy =                 238.3091154665006286
    Total Energy =                       -197.5008394539887888

Computation Completed

Properties will be evaluated at   0.000000,   0.000000,   0.000000 [a0]

Properties computed using the SCF density matrix

  Nuclear Dipole Moment: [e a0]
     X:    -1.1298      Y:     0.4613      Z:    -0.3381

  Electronic Dipole Moment: [e a0]
     X:     1.0981      Y:    -0.4468      Z:     0.3403

  Dipole Moment: [e a0]
     X:    -0.0317      Y:     0.0144      Z:     0.0023     Total:     0.0349

  Dipole Moment: [D]
     X:    -0.0806      Y:     0.0367      Z:     0.0058     Total:     0.0888

*** tstop() called on ds3 at Mon Apr 27 08:00:06 2020
Module time:
	user time   =      14.39 seconds =       0.24 minutes
	system time =       6.20 seconds =       0.10 minutes
	total time  =         30 seconds =       0.50 minutes
Total time:
	user time   =      14.39 seconds =       0.24 minutes
	system time =       6.20 seconds =       0.10 minutes
	total time  =         30 seconds =       0.50 minutes
                                     G D M A

                                 by Anthony Stone

                           version 2.2.06, 22 June 2011

               Distributed Multipoles from Gaussian wavefunctions

Starting at 8:0:6 on 27 Apr 2020

Using SCF density matrix from file ./SSI/SSI-192GLN-197VAL-1-dimer.test.422.fchk

                         Distributed Multipole Analysis

Standard DMA

Positions and radii in angstrom
Multipole moments in atomic units, ea_0^k for rank k

C          x =  1.262643  y = -0.582865  z =  0.435657 angstrom
           Maximum rank =  0   Radius =  0.650 angstrom
                   Q00  =  -0.071528

C          x =  2.217643  y =  0.008135  z =  1.489657 angstrom
           Maximum rank =  0   Radius =  0.650 angstrom
                   Q00  =  -0.257629

C          x =  1.612643  y = -1.943865  z = -0.140343 angstrom
           Maximum rank =  0   Radius =  0.650 angstrom
                   Q00  =  -0.243602

H          x =  0.279643  y = -0.677865  z =  0.900657 angstrom
           Maximum rank =  0   Radius =  0.325 angstrom
                   Q00  =   0.046718

H          x =  1.157643  y =  0.123135  z = -0.390343 angstrom
           Maximum rank =  0   Radius =  0.325 angstrom
                   Q00  =   0.044679

H          x =  3.199643  y =  0.132135  z =  1.037657 angstrom
           Maximum rank =  0   Radius =  0.325 angstrom
                   Q00  =   0.076752

H          x =  1.957643  y = -2.614865  z =  0.642657 angstrom
           Maximum rank =  0   Radius =  0.325 angstrom
                   Q00  =   0.076823

H          x =  0.710643  y = -2.376865  z = -0.573343 angstrom
           Maximum rank =  0   Radius =  0.325 angstrom
                   Q00  =   0.085879

H          x =  2.288303  y = -0.618715  z =  2.390807 angstrom
           Maximum rank =  0   Radius =  0.325 angstrom
                   Q00  =   0.082550

H          x =  1.829893  y =  1.006755  z =  1.739487 angstrom
           Maximum rank =  0   Radius =  0.325 angstrom
                   Q00  =   0.082277

H          x =  2.372323  y = -1.883835  z = -0.933613 angstrom
           Maximum rank =  0   Radius =  0.325 angstrom
                   Q00  =   0.077011

C          x = -2.155357  y =  0.881135  z = -0.303343 angstrom
           Maximum rank =  0   Radius =  0.650 angstrom
                   Q00  =  -0.236260

C          x = -2.836357  y =  1.596135  z = -1.451343 angstrom
           Maximum rank =  0   Radius =  0.650 angstrom
                   Q00  =  -0.228317

H          x = -1.143357  y =  1.245135  z = -0.159343 angstrom
           Maximum rank =  0   Radius =  0.325 angstrom
                   Q00  =   0.079964

H          x = -2.711357  y =  1.051135  z =  0.618657 angstrom
           Maximum rank =  0   Radius =  0.325 angstrom
                   Q00  =   0.076503

H          x = -2.111357  y = -0.190865  z = -0.499343 angstrom
           Maximum rank =  0   Radius =  0.325 angstrom
                   Q00  =   0.075086

H          x = -2.946357  y =  2.647135  z = -1.189343 angstrom
           Maximum rank =  0   Radius =  0.325 angstrom
                   Q00  =   0.078261

H          x = -2.252897  y =  1.498775  z = -2.378763 angstrom
           Maximum rank =  0   Radius =  0.325 angstrom
                   Q00  =   0.079373

H          x = -3.835587  y =  1.150835  z = -1.566443 angstrom
           Maximum rank =  0   Radius =  0.325 angstrom
                   Q00  =   0.075462

Total multipoles referred to origin at
           x =   0.000000,  y =    0.000000,  z =    0.000000 angstrom
                   Q00  =  -0.000000

Finished at 8:0:6 on 27 Apr 2020

  DMA results are available in the Python driver through the
	  variable('DMA DISTRIBUTED MULTIPOLES')
  and
	  variable('DMA TOTAL MULTIPOLES')
  commands.

    Psi4 stopped on: Monday, 27 April 2020 08:00AM
    Psi4 wall time for execution: 0:00:29.80

*** Psi4 exiting successfully. Buy a developer a beer!
