                               Psi4 1.3.2 release

  ==> Input File <==

--------------------------------------------------------------------------
import numpy as np
set {scf_type pk
basis cc-pvdz
d_convergence 10
gdma_switch   0
gdma_limit    0
gdma_origin   [ 0.0,  0.0,  0.0 ]
}
molecule test {
    units Angstrom
    0 1
    --
    0 1
    C               -0.043992439609457     1.743973505601268    -2.207267824335653
    C               -0.280992439609457     0.752973505601268    -1.078267824335653
    O                0.702007560390543     0.191973505601268    -0.545267824335653
    O               -1.460992439609457     0.518973505601268    -0.732267824335653
    H               -0.598992439609457     2.664973505601268    -2.024267824335653
    H               -0.439992439609457     1.296973505601268    -3.121267824335653
    H                1.022557560390543     1.971648505601268    -2.350907824335653
    C                0.546007560390543    -1.023026494398732     2.747732175664347
    N                0.464007560390543    -1.880026494398732     1.533732175664347
    H                1.007007560390543    -2.730026494398732     1.624732175664347
    H               -0.493992439609457    -2.138026494398732     1.327732175664347
    H                0.793007560390543    -1.353026494398732     0.720732175664347
    H               -0.016992439609457    -1.484026494398732     3.562732175664347
    H                0.111007560390543    -0.040026494398732     2.536732175664347
    H                1.583267560390543    -0.899680494398732     3.092522175664346

}
e, wfn = energy('scf', return_wfn=True)
gdma(wfn)
dmavals = variable('DMA DISTRIBUTED MULTIPOLES')
charges = np.array(dmavals)
print(charges)
np.save('SSI-147ASP-188LYS-1-dimer.npy', np.array(charges))--------------------------------------------------------------------------

*** tstart() called on ds3
*** at Mon Apr 27 22:32:54 2020

   => Loading Basis Set <=

    Name: CC-PVDZ
    Role: ORBITAL
    Keyword: BASIS
    atoms 1-2, 8     entry C          line   138 file /theoryfs2/ds/metcalf/miniconda2/envs/tf2gpu/share/psi4/basis/cc-pvdz.gbs
    atoms 3-4        entry O          line   198 file /theoryfs2/ds/metcalf/miniconda2/envs/tf2gpu/share/psi4/basis/cc-pvdz.gbs
    atoms 5-7, 10-15 entry H          line    22 file /theoryfs2/ds/metcalf/miniconda2/envs/tf2gpu/share/psi4/basis/cc-pvdz.gbs
    atoms 9          entry N          line   168 file /theoryfs2/ds/metcalf/miniconda2/envs/tf2gpu/share/psi4/basis/cc-pvdz.gbs

         ---------------------------------------------------------
                                   SCF
               by Justin Turney, Rob Parrish, Andy Simmonett
                          and Daniel G. A. Smith
                              RHF Reference
                        1 Threads,    500 MiB Core
         ---------------------------------------------------------

  ==> Geometry <==

    Molecular point group: c1
    Full point group: C1

    Geometry (in Angstrom), charge = 0, multiplicity = 1:

       Center              X                  Y                   Z               Mass
    ------------   -----------------  -----------------  -----------------  -----------------
         C           -0.043992439609     1.743973505601    -2.207267824336    12.000000000000
         C           -0.280992439609     0.752973505601    -1.078267824336    12.000000000000
         O            0.702007560391     0.191973505601    -0.545267824336    15.994914619570
         O           -1.460992439609     0.518973505601    -0.732267824336    15.994914619570
         H           -0.598992439609     2.664973505601    -2.024267824336     1.007825032230
         H           -0.439992439609     1.296973505601    -3.121267824336     1.007825032230
         H            1.022557560391     1.971648505601    -2.350907824336     1.007825032230
         C            0.546007560391    -1.023026494399     2.747732175664    12.000000000000
         N            0.464007560391    -1.880026494399     1.533732175664    14.003074004430
         H            1.007007560391    -2.730026494399     1.624732175664     1.007825032230
         H           -0.493992439609    -2.138026494399     1.327732175664     1.007825032230
         H            0.793007560391    -1.353026494399     0.720732175664     1.007825032230
         H           -0.016992439609    -1.484026494399     3.562732175664     1.007825032230
         H            0.111007560391    -0.040026494399     2.536732175664     1.007825032230
         H            1.583267560391    -0.899680494399     3.092522175664     1.007825032230

  Running in c1 symmetry.

  Rotational constants: A =      0.25534  B =      0.04069  C =      0.03863 [cm^-1]
  Rotational constants: A =   7654.78945  B =   1219.88448  C =   1158.10840 [MHz]
  Nuclear repulsion =  237.075508208150808

  Charge       = 0
  Multiplicity = 1
  Electrons    = 50
  Nalpha       = 25
  Nbeta        = 25

  ==> Algorithm <==

  SCF Algorithm Type is PK.
  DIIS enabled.
  MOM disabled.
  Fractional occupation disabled.
  Guess Type is SAD.
  Energy threshold   = 1.00e-06
  Density threshold  = 1.00e-10
  Integral threshold = 0.00e+00

  ==> Primary Basis <==

  Basis Set: CC-PVDZ
    Blend: CC-PVDZ
    Number of shells: 63
    Number of basis function: 129
    Number of Cartesian functions: 135
    Spherical Harmonics?: true
    Max angular momentum: 2

  ==> Pre-Iterations <==

   -------------------------------------------------------
    Irrep   Nso     Nmo     Nalpha   Nbeta   Ndocc  Nsocc
   -------------------------------------------------------
     A        129     129       0       0       0       0
   -------------------------------------------------------
    Total     129     129      25      25      25       0
   -------------------------------------------------------

  ==> Integral Setup <==

  Using integral reordering PK algorithm.
  Sizing the integral batches needed.
  Building batch lookup table.
   Calculation information:
      Number of atoms:                  15
      Number of AO shells:              63
      Number of primitives:            177
      Number of atomic orbitals:       135
      Number of basis functions:       129

      Integral cutoff                 1.00e-12
      Number of threads:                 1

	Batch   1 pq = [       0,    8385] index = [             0,35158305] size =     35158305
  Task number: 4
  Buffer size: 11059200
  Buffer per thread: 2
  We computed 1648707 shell quartets total.
  Whereas there are 2033136 unique shell quartets.

  ==> DiskJK: Disk-Based J/K Matrices <==

    J tasked:                  Yes
    K tasked:                  Yes
    wK tasked:                  No
    Memory [MiB]:              375
    Schwarz Cutoff:          1E-12

    OpenMP threads:              1

  Minimum eigenvalue in the overlap matrix is 5.3667356463E-03.
  Using Symmetric Orthogonalization.

  SCF Guess: Superposition of Atomic Densities via on-the-fly atomic UHF.

  ==> Iterations <==

                        Total Energy        Delta E     RMS |[F,P]|

   @RHF iter SAD:  -321.68914839014695   -3.21689e+02   0.00000e+00
   @RHF iter   1:  -322.78127446320440   -1.09213e+00   5.24850e-03 DIIS
   @RHF iter   2:  -322.95298255133275   -1.71708e-01   2.90186e-03 DIIS
   @RHF iter   3:  -323.00248604882478   -4.95035e-02   4.73945e-04 DIIS
   @RHF iter   4:  -323.00498037780716   -2.49433e-03   1.57726e-04 DIIS
   @RHF iter   5:  -323.00526062079501   -2.80243e-04   3.09990e-05 DIIS
   @RHF iter   6:  -323.00527358626863   -1.29655e-05   1.57679e-05 DIIS
   @RHF iter   7:  -323.00527570744885   -2.12118e-06   3.39599e-06 DIIS
   @RHF iter   8:  -323.00527603730308   -3.29854e-07   1.51900e-06 DIIS
   @RHF iter   9:  -323.00527610373956   -6.64365e-08   4.50314e-07 DIIS
   @RHF iter  10:  -323.00527610978588   -6.04632e-09   1.36450e-07 DIIS
   @RHF iter  11:  -323.00527611009744   -3.11559e-10   3.76567e-08 DIIS
   @RHF iter  12:  -323.00527611012268   -2.52385e-11   8.70530e-09 DIIS
   @RHF iter  13:  -323.00527611012581   -3.12639e-12   2.50797e-09 DIIS
   @RHF iter  14:  -323.00527611012387    1.93268e-12   9.39041e-10 DIIS
   @RHF iter  15:  -323.00527611012501   -1.13687e-12   2.84110e-10 DIIS
   @RHF iter  16:  -323.00527611012541   -3.97904e-13   1.30840e-10 DIIS
   @RHF iter  17:  -323.00527611012313    2.27374e-12   4.10277e-11 DIIS
  Energy and wave function converged.

  ==> Post-Iterations <==

    Orbital Energies [Eh]
    ---------------------

    Doubly Occupied:

       1A    -20.420589     2A    -20.397884     3A    -15.739834
       4A    -11.345834     5A    -11.258386     6A    -11.164230
       7A     -1.360402     8A     -1.298579     9A     -1.182467
      10A     -1.017153    11A     -0.914175    12A     -0.822012
      13A     -0.810191    14A     -0.710743    15A     -0.637811
      16A     -0.621318    17A     -0.616516    18A     -0.546392
      19A     -0.536633    20A     -0.530941    21A     -0.473122
      22A     -0.442121    23A     -0.334855    24A     -0.314622
      25A     -0.311806

    Virtual:

      26A      0.098533    27A      0.158294    28A      0.163877
      29A      0.209554    30A      0.229484    31A      0.254614
      32A      0.271598    33A      0.284793    34A      0.309920
      35A      0.315913    36A      0.360182    37A      0.460760
      38A      0.504662    39A      0.521491    40A      0.564256
      41A      0.572811    42A      0.598152    43A      0.661089
      44A      0.688790    45A      0.706849    46A      0.769233
      47A      0.783451    48A      0.788114    49A      0.797158
      50A      0.819767    51A      0.848547    52A      0.861474
      53A      0.894985    54A      0.918373    55A      0.927529
      56A      0.930603    57A      0.945583    58A      0.973077
      59A      0.977807    60A      1.004493    61A      1.063685
      62A      1.078571    63A      1.102807    64A      1.181827
      65A      1.219673    66A      1.230218    67A      1.312290
      68A      1.382883    69A      1.405181    70A      1.417858
      71A      1.446617    72A      1.465419    73A      1.491496
      74A      1.507675    75A      1.558659    76A      1.597513
      77A      1.605177    78A      1.697070    79A      1.729615
      80A      1.736561    81A      1.783619    82A      1.812178
      83A      1.820730    84A      1.840047    85A      1.870287
      86A      1.883434    87A      1.922329    88A      1.964734
      89A      1.983157    90A      2.005205    91A      2.068745
      92A      2.082764    93A      2.087147    94A      2.114039
      95A      2.122800    96A      2.145829    97A      2.156496
      98A      2.212578    99A      2.276395   100A      2.290457
     101A      2.315383   102A      2.394092   103A      2.411372
     104A      2.460611   105A      2.534128   106A      2.556137
     107A      2.599115   108A      2.631903   109A      2.634971
     110A      2.662913   111A      2.674813   112A      2.806661
     113A      2.852382   114A      2.869656   115A      2.873325
     116A      2.884055   117A      2.923374   118A      3.090963
     119A      3.125465   120A      3.145842   121A      3.205596
     122A      3.247180   123A      3.263528   124A      3.487017
     125A      3.640029   126A      3.679454   127A      3.921585
     128A      3.938630   129A      4.064966

    Final Occupation by Irrep:
              A
    DOCC [    25 ]

  @RHF Final Energy:  -323.00527611012313

   => Energetics <=

    Nuclear Repulsion Energy =            237.0755082081508078
    One-Electron Energy =                -912.5443374998044419
    Two-Electron Energy =                 352.4635531815304716
    Total Energy =                       -323.0052761101231340

Computation Completed

Properties will be evaluated at   0.000000,   0.000000,   0.000000 [a0]

Properties computed using the SCF density matrix

  Nuclear Dipole Moment: [e a0]
     X:     2.7764      Y:    -2.5328      Z:     5.0224

  Electronic Dipole Moment: [e a0]
     X:    -1.3962      Y:    -0.5340      Z:    -1.6487

  Dipole Moment: [e a0]
     X:     1.3802      Y:    -3.0668      Z:     3.3737     Total:     4.7636

  Dipole Moment: [D]
     X:     3.5081      Y:    -7.7950      Z:     8.5751     Total:    12.1079

*** tstop() called on ds3 at Mon Apr 27 22:33:15 2020
Module time:
	user time   =      13.56 seconds =       0.23 minutes
	system time =       7.48 seconds =       0.12 minutes
	total time  =         21 seconds =       0.35 minutes
Total time:
	user time   =      13.56 seconds =       0.23 minutes
	system time =       7.48 seconds =       0.12 minutes
	total time  =         21 seconds =       0.35 minutes
                                     G D M A

                                 by Anthony Stone

                           version 2.2.06, 22 June 2011

               Distributed Multipoles from Gaussian wavefunctions

Starting at 22:33:15 on 27 Apr 2020

Using SCF density matrix from file ./SSI/SSI-147ASP-188LYS-1-dimer.test.31236.fchk

                         Distributed Multipole Analysis

Standard DMA

Positions and radii in angstrom
Multipole moments in atomic units, ea_0^k for rank k

C          x = -0.043992  y =  1.743974  z = -2.207268 angstrom
           Maximum rank =  0   Radius =  0.650 angstrom
                   Q00  =  -0.275198

C          x = -0.280992  y =  0.752974  z = -1.078268 angstrom
           Maximum rank =  0   Radius =  0.650 angstrom
                   Q00  =   0.926739

O          x =  0.702008  y =  0.191974  z = -0.545268 angstrom
           Maximum rank =  0   Radius =  0.650 angstrom
                   Q00  =  -0.958705

O          x = -1.460992  y =  0.518974  z = -0.732268 angstrom
           Maximum rank =  0   Radius =  0.650 angstrom
                   Q00  =  -0.908217

H          x = -0.598992  y =  2.664974  z = -2.024268 angstrom
           Maximum rank =  0   Radius =  0.325 angstrom
                   Q00  =   0.093527

H          x = -0.439992  y =  1.296974  z = -3.121268 angstrom
           Maximum rank =  0   Radius =  0.325 angstrom
                   Q00  =   0.099158

H          x =  1.022558  y =  1.971649  z = -2.350908 angstrom
           Maximum rank =  0   Radius =  0.325 angstrom
                   Q00  =   0.071519

C          x =  0.546008  y = -1.023026  z =  2.747732 angstrom
           Maximum rank =  0   Radius =  0.650 angstrom
                   Q00  =  -0.139990

N          x =  0.464008  y = -1.880026  z =  1.533732 angstrom
           Maximum rank =  0   Radius =  0.650 angstrom
                   Q00  =  -0.104764

H          x =  1.007008  y = -2.730026  z =  1.624732 angstrom
           Maximum rank =  0   Radius =  0.325 angstrom
                   Q00  =   0.216822

H          x = -0.493992  y = -2.138026  z =  1.327732 angstrom
           Maximum rank =  0   Radius =  0.325 angstrom
                   Q00  =   0.252194

H          x =  0.793008  y = -1.353026  z =  0.720732 angstrom
           Maximum rank =  0   Radius =  0.325 angstrom
                   Q00  =   0.291022

H          x = -0.016992  y = -1.484026  z =  3.562732 angstrom
           Maximum rank =  0   Radius =  0.325 angstrom
                   Q00  =   0.121319

H          x =  0.111008  y = -0.040026  z =  2.536732 angstrom
           Maximum rank =  0   Radius =  0.325 angstrom
                   Q00  =   0.174329

H          x =  1.583268  y = -0.899680  z =  3.092522 angstrom
           Maximum rank =  0   Radius =  0.325 angstrom
                   Q00  =   0.140244

Total multipoles referred to origin at
           x =   0.000000,  y =    0.000000,  z =    0.000000 angstrom
                   Q00  =  -0.000000

Finished at 22:33:15 on 27 Apr 2020

  DMA results are available in the Python driver through the
	  variable('DMA DISTRIBUTED MULTIPOLES')
  and
	  variable('DMA TOTAL MULTIPOLES')
  commands.

    Psi4 stopped on: Monday, 27 April 2020 10:33PM
    Psi4 wall time for execution: 0:00:20.78

*** Psi4 exiting successfully. Buy a developer a beer!
