                               Psi4 1.3.2 release

  ==> Input File <==

--------------------------------------------------------------------------
import numpy as np
set {scf_type pk
basis cc-pvdz
d_convergence 10
gdma_switch   0
gdma_limit    0
gdma_origin   [ 0.0,  0.0,  0.0 ]
}
molecule test {
    units Angstrom
    0 1
    --
    0 1
    C               -0.173444022285962     0.414201761793393    -2.167476205990996
    C                1.317555977714038     0.706201761793393    -2.009476205990996
    H               -0.334444022285962    -0.392798238206607    -2.879476205990996
    H               -0.598444022285962     0.121201761793393    -1.213476205990996
    H               -0.691444022285962     1.307201761793393    -2.503476205990996
    H                1.821555977714038    -0.205798238206607    -1.699476205990996
    H                1.398555977714038     1.425201761793393    -1.195476205990996
    H                1.788315977714038     1.094471761793393    -2.924696205990997
    C               -0.537444022285962    -0.857798238206607     1.403523794009004
    C               -0.613444022285962    -0.258798238206607     2.760523794009004
    H                0.154555977714038    -0.274798238206607     0.798523794009004
    H               -0.162444022285962    -1.880798238206607     1.453523794009004
    H               -1.526444022285962    -0.853798238206607     0.950523794009004
    H                0.417555977714038    -0.160798238206607     3.100523794009004
    H               -1.080344022285962     0.735601761793393     2.816833794009003
    H               -1.106294022285962    -0.960219238206607     3.449803794009004

}
e, wfn = energy('scf', return_wfn=True)
gdma(wfn)
dmavals = variable('DMA DISTRIBUTED MULTIPOLES')
charges = np.array(dmavals)
print(charges)
np.save('SSI-037ILE-165VAL-1-dimer.npy', np.array(charges))--------------------------------------------------------------------------

*** tstart() called on ds3
*** at Mon Apr 27 17:08:25 2020

   => Loading Basis Set <=

    Name: CC-PVDZ
    Role: ORBITAL
    Keyword: BASIS
    atoms 1-2, 9-10  entry C          line   138 file /theoryfs2/ds/metcalf/miniconda2/envs/tf2gpu/share/psi4/basis/cc-pvdz.gbs
    atoms 3-8, 11-16 entry H          line    22 file /theoryfs2/ds/metcalf/miniconda2/envs/tf2gpu/share/psi4/basis/cc-pvdz.gbs

         ---------------------------------------------------------
                                   SCF
               by Justin Turney, Rob Parrish, Andy Simmonett
                          and Daniel G. A. Smith
                              RHF Reference
                        1 Threads,    500 MiB Core
         ---------------------------------------------------------

  ==> Geometry <==

    Molecular point group: c1
    Full point group: C1

    Geometry (in Angstrom), charge = 0, multiplicity = 1:

       Center              X                  Y                   Z               Mass
    ------------   -----------------  -----------------  -----------------  -----------------
         C           -0.173444022286     0.414201761793    -2.167476205991    12.000000000000
         C            1.317555977714     0.706201761793    -2.009476205991    12.000000000000
         H           -0.334444022286    -0.392798238207    -2.879476205991     1.007825032230
         H           -0.598444022286     0.121201761793    -1.213476205991     1.007825032230
         H           -0.691444022286     1.307201761793    -2.503476205991     1.007825032230
         H            1.821555977714    -0.205798238207    -1.699476205991     1.007825032230
         H            1.398555977714     1.425201761793    -1.195476205991     1.007825032230
         H            1.788315977714     1.094471761793    -2.924696205991     1.007825032230
         C           -0.537444022286    -0.857798238207     1.403523794009    12.000000000000
         C           -0.613444022286    -0.258798238207     2.760523794009    12.000000000000
         H            0.154555977714    -0.274798238207     0.798523794009     1.007825032230
         H           -0.162444022286    -1.880798238207     1.453523794009     1.007825032230
         H           -1.526444022286    -0.853798238207     0.950523794009     1.007825032230
         H            0.417555977714    -0.160798238207     3.100523794009     1.007825032230
         H           -1.080344022286     0.735601761793     2.816833794009     1.007825032230
         H           -1.106294022286    -0.960219238207     3.449803794009     1.007825032230

  Running in c1 symmetry.

  Rotational constants: A =      0.44789  B =      0.05129  C =      0.04911 [cm^-1]
  Rotational constants: A =  13427.40658  B =   1537.60596  C =   1472.17719 [MHz]
  Nuclear repulsion =  123.549568306606545

  Charge       = 0
  Multiplicity = 1
  Electrons    = 36
  Nalpha       = 18
  Nbeta        = 18

  ==> Algorithm <==

  SCF Algorithm Type is PK.
  DIIS enabled.
  MOM disabled.
  Fractional occupation disabled.
  Guess Type is SAD.
  Energy threshold   = 1.00e-06
  Density threshold  = 1.00e-10
  Integral threshold = 0.00e+00

  ==> Primary Basis <==

  Basis Set: CC-PVDZ
    Blend: CC-PVDZ
    Number of shells: 60
    Number of basis function: 116
    Number of Cartesian functions: 120
    Spherical Harmonics?: true
    Max angular momentum: 2

  ==> Pre-Iterations <==

   -------------------------------------------------------
    Irrep   Nso     Nmo     Nalpha   Nbeta   Ndocc  Nsocc
   -------------------------------------------------------
     A        116     116       0       0       0       0
   -------------------------------------------------------
    Total     116     116      18      18      18       0
   -------------------------------------------------------

  ==> Integral Setup <==

  Using integral reordering PK algorithm.
  Sizing the integral batches needed.
  Building batch lookup table.
   Calculation information:
      Number of atoms:                  16
      Number of AO shells:              60
      Number of primitives:            148
      Number of atomic orbitals:       120
      Number of basis functions:       116

      Integral cutoff                 1.00e-12
      Number of threads:                 1

	Batch   1 pq = [       0,    6786] index = [             0,23028291] size =     23028291
  Task number: 3
  Buffer size: 11059200
  Buffer per thread: 2
  We computed 1458725 shell quartets total.
  Whereas there are 1675365 unique shell quartets.

  ==> DiskJK: Disk-Based J/K Matrices <==

    J tasked:                  Yes
    K tasked:                  Yes
    wK tasked:                  No
    Memory [MiB]:              375
    Schwarz Cutoff:          1E-12

    OpenMP threads:              1

  Minimum eigenvalue in the overlap matrix is 6.3438351887E-03.
  Using Symmetric Orthogonalization.

  SCF Guess: Superposition of Atomic Densities via on-the-fly atomic UHF.

  ==> Iterations <==

                        Total Energy        Delta E     RMS |[F,P]|

   @RHF iter SAD:  -157.45336090623425   -1.57453e+02   0.00000e+00
   @RHF iter   1:  -158.29881854536626   -8.45458e-01   4.28895e-03 DIIS
   @RHF iter   2:  -158.43560414321405   -1.36786e-01   1.83554e-03 DIIS
   @RHF iter   3:  -158.45994461880210   -2.43405e-02   3.53912e-04 DIIS
   @RHF iter   4:  -158.46181834845729   -1.87373e-03   3.98927e-05 DIIS
   @RHF iter   5:  -158.46184317147055   -2.48230e-05   7.74698e-06 DIIS
   @RHF iter   6:  -158.46184393935840   -7.67888e-07   1.93412e-06 DIIS
   @RHF iter   7:  -158.46184397379693   -3.44385e-08   3.16115e-07 DIIS
   @RHF iter   8:  -158.46184397495620   -1.15926e-09   4.89128e-08 DIIS
   @RHF iter   9:  -158.46184397499130   -3.51008e-11   1.40931e-08 DIIS
   @RHF iter  10:  -158.46184397499411   -2.81375e-12   3.34662e-09 DIIS
   @RHF iter  11:  -158.46184397499388    2.27374e-13   7.78627e-10 DIIS
   @RHF iter  12:  -158.46184397499383    5.68434e-14   1.52467e-10 DIIS
   @RHF iter  13:  -158.46184397499368    1.42109e-13   2.53040e-11 DIIS
  Energy and wave function converged.

  ==> Post-Iterations <==

    Orbital Energies [Eh]
    ---------------------

    Doubly Occupied:

       1A    -11.217252     2A    -11.216302     3A    -11.214715
       4A    -11.212661     5A     -1.031378     6A     -1.018646
       7A     -0.838085     8A     -0.833455     9A     -0.609448
      10A     -0.604786    11A     -0.598761    12A     -0.593852
      13A     -0.515416    14A     -0.501645    15A     -0.488237
      16A     -0.484214    17A     -0.478299    18A     -0.475923

    Virtual:

      19A      0.173277    20A      0.199379    21A      0.223065
      22A      0.239660    23A      0.249438    24A      0.257996
      25A      0.263555    26A      0.272415    27A      0.284459
      28A      0.287342    29A      0.314068    30A      0.340791
      31A      0.392820    32A      0.415884    33A      0.579612
      34A      0.602482    35A      0.605692    36A      0.607234
      37A      0.612163    38A      0.639017    39A      0.656195
      40A      0.681116    41A      0.718810    42A      0.784110
      43A      0.847238    44A      0.876654    45A      0.881344
      46A      0.887581    47A      0.895543    48A      0.899026
      49A      0.901921    50A      0.909852    51A      0.914961
      52A      0.922692    53A      0.942751    54A      0.946741
      55A      0.981047    56A      1.050481    57A      1.117986
      58A      1.122231    59A      1.133923    60A      1.169812
      61A      1.242353    62A      1.308724    63A      1.457556
      64A      1.469537    65A      1.488705    66A      1.501174
      67A      1.576630    68A      1.590554    69A      1.680946
      70A      1.683012    71A      1.694608    72A      1.701957
      73A      1.851843    74A      1.864236    75A      1.868886
      76A      1.873788    77A      1.893123    78A      1.922735
      79A      1.930544    80A      1.945228    81A      1.947535
      82A      1.958015    83A      1.965716    84A      1.971029
      85A      1.975687    86A      1.991456    87A      2.008962
      88A      2.031097    89A      2.082964    90A      2.093621
      91A      2.145537    92A      2.161336    93A      2.298572
      94A      2.312180    95A      2.318810    96A      2.338896
      97A      2.441972    98A      2.450741    99A      2.477327
     100A      2.495546   101A      2.549142   102A      2.574257
     103A      2.589637   104A      2.602354   105A      2.758041
     106A      2.775761   107A      2.794003   108A      2.810663
     109A      2.844244   110A      2.849769   111A      2.874321
     112A      2.888270   113A      2.948679   114A      2.958980
     115A      2.960970   116A      3.005787

    Final Occupation by Irrep:
              A
    DOCC [    18 ]

  @RHF Final Energy:  -158.46184397499368

   => Energetics <=

    Nuclear Repulsion Energy =            123.5495683066065453
    One-Electron Energy =                -456.1566767325599017
    Two-Electron Energy =                 174.1452644509596723
    Total Energy =                       -158.4618439749936840

Computation Completed

Properties will be evaluated at   0.000000,   0.000000,   0.000000 [a0]

Properties computed using the SCF density matrix

  Nuclear Dipole Moment: [e a0]
     X:     0.0756      Y:    -0.0425      Z:     0.1440

  Electronic Dipole Moment: [e a0]
     X:    -0.0735      Y:     0.0235      Z:    -0.1094

  Dipole Moment: [e a0]
     X:     0.0022      Y:    -0.0190      Z:     0.0347     Total:     0.0396

  Dipole Moment: [D]
     X:     0.0055      Y:    -0.0482      Z:     0.0881     Total:     0.1006

*** tstop() called on ds3 at Mon Apr 27 17:08:35 2020
Module time:
	user time   =       7.45 seconds =       0.12 minutes
	system time =       3.02 seconds =       0.05 minutes
	total time  =         10 seconds =       0.17 minutes
Total time:
	user time   =       7.45 seconds =       0.12 minutes
	system time =       3.02 seconds =       0.05 minutes
	total time  =         10 seconds =       0.17 minutes
                                     G D M A

                                 by Anthony Stone

                           version 2.2.06, 22 June 2011

               Distributed Multipoles from Gaussian wavefunctions

Starting at 17:8:35 on 27 Apr 2020

Using SCF density matrix from file ./SSI/SSI-037ILE-165VAL-1-dimer.test.16992.fchk

                         Distributed Multipole Analysis

Standard DMA

Positions and radii in angstrom
Multipole moments in atomic units, ea_0^k for rank k

C          x = -0.173444  y =  0.414202  z = -2.167476 angstrom
           Maximum rank =  0   Radius =  0.650 angstrom
                   Q00  =  -0.243506

C          x =  1.317556  y =  0.706202  z = -2.009476 angstrom
           Maximum rank =  0   Radius =  0.650 angstrom
                   Q00  =  -0.238250

H          x = -0.334444  y = -0.392798  z = -2.879476 angstrom
           Maximum rank =  0   Radius =  0.325 angstrom
                   Q00  =   0.077052

H          x = -0.598444  y =  0.121202  z = -1.213476 angstrom
           Maximum rank =  0   Radius =  0.325 angstrom
                   Q00  =   0.092808

H          x = -0.691444  y =  1.307202  z = -2.503476 angstrom
           Maximum rank =  0   Radius =  0.325 angstrom
                   Q00  =   0.076916

H          x =  1.821556  y = -0.205798  z = -1.699476 angstrom
           Maximum rank =  0   Radius =  0.325 angstrom
                   Q00  =   0.077492

H          x =  1.398556  y =  1.425202  z = -1.195476 angstrom
           Maximum rank =  0   Radius =  0.325 angstrom
                   Q00  =   0.073301

H          x =  1.788316  y =  1.094472  z = -2.924696 angstrom
           Maximum rank =  0   Radius =  0.325 angstrom
                   Q00  =   0.083893

C          x = -0.537444  y = -0.857798  z =  1.403524 angstrom
           Maximum rank =  0   Radius =  0.650 angstrom
                   Q00  =  -0.213023

C          x = -0.613444  y = -0.258798  z =  2.760524 angstrom
           Maximum rank =  0   Radius =  0.650 angstrom
                   Q00  =  -0.234551

H          x =  0.154556  y = -0.274798  z =  0.798524 angstrom
           Maximum rank =  0   Radius =  0.325 angstrom
                   Q00  =   0.073023

H          x = -0.162444  y = -1.880798  z =  1.453524 angstrom
           Maximum rank =  0   Radius =  0.325 angstrom
                   Q00  =   0.080384

H          x = -1.526444  y = -0.853798  z =  0.950524 angstrom
           Maximum rank =  0   Radius =  0.325 angstrom
                   Q00  =   0.072642

H          x =  0.417556  y = -0.160798  z =  3.100524 angstrom
           Maximum rank =  0   Radius =  0.325 angstrom
                   Q00  =   0.068017

H          x = -1.080344  y =  0.735602  z =  2.816834 angstrom
           Maximum rank =  0   Radius =  0.325 angstrom
                   Q00  =   0.080248

H          x = -1.106294  y = -0.960219  z =  3.449804 angstrom
           Maximum rank =  0   Radius =  0.325 angstrom
                   Q00  =   0.073552

Total multipoles referred to origin at
           x =   0.000000,  y =    0.000000,  z =    0.000000 angstrom
                   Q00  =  -0.000000

Finished at 17:8:35 on 27 Apr 2020

  DMA results are available in the Python driver through the
	  variable('DMA DISTRIBUTED MULTIPOLES')
  and
	  variable('DMA TOTAL MULTIPOLES')
  commands.

    Psi4 stopped on: Monday, 27 April 2020 05:08PM
    Psi4 wall time for execution: 0:00:10.30

*** Psi4 exiting successfully. Buy a developer a beer!
