                               Psi4 1.3.2 release

  ==> Input File <==

--------------------------------------------------------------------------
import numpy as np
set {scf_type pk
basis cc-pvdz
d_convergence 10
gdma_switch   0
gdma_limit    0
gdma_origin   [ 0.0,  0.0,  0.0 ]
}
molecule test {
    units Angstrom
    0 1
    --
    0 1
    C               -1.681475531171122    -1.162157153620633    -1.420344327587535
    C               -2.697475531171122    -0.198157153620633    -0.838344327587535
    O               -0.650475531171122    -0.426157153620633    -2.064344327587535
    H               -1.271475531171122    -1.790157153620633    -0.630344327587535
    H               -2.170475531171122    -1.809157153620633    -2.146344327587534
    H               -2.163475531171122     0.487842846379367    -0.182344327587535
    H               -0.034475531171122    -1.065157153620633    -2.449344327587535
    H               -3.469562531171122    -0.744580153620633    -0.276824327587535
    H               -3.113848531171122     0.396868846379367    -1.664524327587535
    C                0.745524468828878     0.876842846379367     2.433655672412466
    C                1.349524468828878     0.466842846379367     1.104655672412465
    O                2.401524468828878     0.956842846379367     0.703655672412465
    N                0.650524468828878    -0.379157153620633     0.376655672412466
    H                0.966524468828878    -0.560157153620633    -0.560344327587535
    H               -0.197475531171122    -0.777157153620633     0.744655672412466
    H                1.527524468828878     1.306842846379367     3.060655672412466
    H                0.355524468828878    -0.010157153620633     2.935655672412465
    H               -0.063785531171122     1.608737846379367     2.294585672412466

}
e, wfn = energy('scf', return_wfn=True)
gdma(wfn)
dmavals = variable('DMA DISTRIBUTED MULTIPOLES')
charges = np.array(dmavals)
print(charges)
np.save('SSI-109SER-137ASN-1-dimer.npy', np.array(charges))--------------------------------------------------------------------------

*** tstart() called on ds3
*** at Mon Apr 27 16:44:54 2020

   => Loading Basis Set <=

    Name: CC-PVDZ
    Role: ORBITAL
    Keyword: BASIS
    atoms 1-2, 10-11 entry C          line   138 file /theoryfs2/ds/metcalf/miniconda2/envs/tf2gpu/share/psi4/basis/cc-pvdz.gbs
    atoms 3, 12      entry O          line   198 file /theoryfs2/ds/metcalf/miniconda2/envs/tf2gpu/share/psi4/basis/cc-pvdz.gbs
    atoms 4-9, 14-18 entry H          line    22 file /theoryfs2/ds/metcalf/miniconda2/envs/tf2gpu/share/psi4/basis/cc-pvdz.gbs
    atoms 13         entry N          line   168 file /theoryfs2/ds/metcalf/miniconda2/envs/tf2gpu/share/psi4/basis/cc-pvdz.gbs

         ---------------------------------------------------------
                                   SCF
               by Justin Turney, Rob Parrish, Andy Simmonett
                          and Daniel G. A. Smith
                              RHF Reference
                        1 Threads,    500 MiB Core
         ---------------------------------------------------------

  ==> Geometry <==

    Molecular point group: c1
    Full point group: C1

    Geometry (in Angstrom), charge = 0, multiplicity = 1:

       Center              X                  Y                   Z               Mass
    ------------   -----------------  -----------------  -----------------  -----------------
         C           -1.681475531171    -1.162157153621    -1.420344327588    12.000000000000
         C           -2.697475531171    -0.198157153621    -0.838344327588    12.000000000000
         O           -0.650475531171    -0.426157153621    -2.064344327588    15.994914619570
         H           -1.271475531171    -1.790157153621    -0.630344327588     1.007825032230
         H           -2.170475531171    -1.809157153621    -2.146344327588     1.007825032230
         H           -2.163475531171     0.487842846379    -0.182344327588     1.007825032230
         H           -0.034475531171    -1.065157153621    -2.449344327588     1.007825032230
         H           -3.469562531171    -0.744580153621    -0.276824327588     1.007825032230
         H           -3.113848531171     0.396868846379    -1.664524327588     1.007825032230
         C            0.745524468829     0.876842846379     2.433655672412    12.000000000000
         C            1.349524468829     0.466842846379     1.104655672412    12.000000000000
         O            2.401524468829     0.956842846379     0.703655672412    15.994914619570
         N            0.650524468829    -0.379157153621     0.376655672412    14.003074004430
         H            0.966524468829    -0.560157153621    -0.560344327588     1.007825032230
         H           -0.197475531171    -0.777157153621     0.744655672412     1.007825032230
         H            1.527524468829     1.306842846379     3.060655672412     1.007825032230
         H            0.355524468829    -0.010157153621     2.935655672412     1.007825032230
         H           -0.063785531171     1.608737846379     2.294585672412     1.007825032230

  Running in c1 symmetry.

  Rotational constants: A =      0.14328  B =      0.03437  C =      0.02970 [cm^-1]
  Rotational constants: A =   4295.52728  B =   1030.49475  C =    890.28848 [MHz]
  Nuclear repulsion =  311.453980590423953

  Charge       = 0
  Multiplicity = 1
  Electrons    = 58
  Nalpha       = 29
  Nbeta        = 29

  ==> Algorithm <==

  SCF Algorithm Type is PK.
  DIIS enabled.
  MOM disabled.
  Fractional occupation disabled.
  Guess Type is SAD.
  Energy threshold   = 1.00e-06
  Density threshold  = 1.00e-10
  Integral threshold = 0.00e+00

  ==> Primary Basis <==

  Basis Set: CC-PVDZ
    Blend: CC-PVDZ
    Number of shells: 75
    Number of basis function: 153
    Number of Cartesian functions: 160
    Spherical Harmonics?: true
    Max angular momentum: 2

  ==> Pre-Iterations <==

   -------------------------------------------------------
    Irrep   Nso     Nmo     Nalpha   Nbeta   Ndocc  Nsocc
   -------------------------------------------------------
     A        153     153       0       0       0       0
   -------------------------------------------------------
    Total     153     153      29      29      29       0
   -------------------------------------------------------

  ==> Integral Setup <==

  Using integral reordering PK algorithm.
  Sizing the integral batches needed.
  Building batch lookup table.
   Calculation information:
      Number of atoms:                  18
      Number of AO shells:              75
      Number of primitives:            209
      Number of atomic orbitals:       160
      Number of basis functions:       153

      Integral cutoff                 1.00e-12
      Number of threads:                 1

	Batch   1 pq = [       0,    9405] index = [             0,44231715] size =     44231715
	Batch   2 pq = [    9405,   11781] index = [      44231715,69401871] size =     25170156
  Task number: 7
  Buffer size: 11059200
  Buffer per thread: 2
  We computed 3710796 shell quartets total.
  Whereas there are 4062675 unique shell quartets.

  ==> DiskJK: Disk-Based J/K Matrices <==

    J tasked:                  Yes
    K tasked:                  Yes
    wK tasked:                  No
    Memory [MiB]:              375
    Schwarz Cutoff:          1E-12

    OpenMP threads:              1

  Minimum eigenvalue in the overlap matrix is 4.4893977605E-03.
  Using Symmetric Orthogonalization.

  SCF Guess: Superposition of Atomic Densities via on-the-fly atomic UHF.

  ==> Iterations <==

                        Total Energy        Delta E     RMS |[F,P]|

   @RHF iter SAD:  -360.79469943266474   -3.60795e+02   0.00000e+00
   @RHF iter   1:  -361.82593947016102   -1.03124e+00   4.50489e-03 DIIS
   @RHF iter   2:  -362.01749159660250   -1.91552e-01   2.53341e-03 DIIS
   @RHF iter   3:  -362.07283339158693   -5.53418e-02   4.99037e-04 DIIS
   @RHF iter   4:  -362.07633599080145   -3.50260e-03   2.04366e-04 DIIS
   @RHF iter   5:  -362.07692652580153   -5.90535e-04   3.83148e-05 DIIS
   @RHF iter   6:  -362.07696162179309   -3.50960e-05   1.82879e-05 DIIS
   @RHF iter   7:  -362.07696887493336   -7.25314e-06   6.43305e-06 DIIS
   @RHF iter   8:  -362.07697028482374   -1.40989e-06   2.32201e-06 DIIS
   @RHF iter   9:  -362.07697046137707   -1.76553e-07   7.42855e-07 DIIS
   @RHF iter  10:  -362.07697047671604   -1.53390e-08   2.28688e-07 DIIS
   @RHF iter  11:  -362.07697047806738   -1.35134e-09   5.02573e-08 DIIS
   @RHF iter  12:  -362.07697047813332   -6.59384e-11   1.79721e-08 DIIS
   @RHF iter  13:  -362.07697047813787   -4.54747e-12   4.28780e-09 DIIS
   @RHF iter  14:  -362.07697047813889   -1.02318e-12   1.22450e-09 DIIS
   @RHF iter  15:  -362.07697047813781    1.08002e-12   3.89792e-10 DIIS
   @RHF iter  16:  -362.07697047814048   -2.67164e-12   1.65549e-10 DIIS
   @RHF iter  17:  -362.07697047813826    2.21689e-12   5.72372e-11 DIIS
  Energy and wave function converged.

  ==> Post-Iterations <==

    Orbital Energies [Eh]
    ---------------------

    Doubly Occupied:

       1A    -20.571181     2A    -20.493178     3A    -15.574884
       4A    -11.335854     5A    -11.293659     6A    -11.236389
       7A    -11.235961     8A     -1.374658     9A     -1.359156
      10A     -1.210126    11A     -1.029688    12A     -0.992785
      13A     -0.849632    14A     -0.793879    15A     -0.724544
      16A     -0.712538    17A     -0.665172    18A     -0.642317
      19A     -0.606318    20A     -0.585563    21A     -0.562291
      22A     -0.553544    23A     -0.550321    24A     -0.535758
      25A     -0.515114    26A     -0.498231    27A     -0.457528
      28A     -0.400247    29A     -0.390982

    Virtual:

      30A      0.154697    31A      0.177802    32A      0.195297
      33A      0.200447    34A      0.230636    35A      0.235209
      36A      0.249841    37A      0.257523    38A      0.267260
      39A      0.294973    40A      0.306668    41A      0.329782
      42A      0.366045    43A      0.374720    44A      0.409997
      45A      0.471110    46A      0.556494    47A      0.593435
      48A      0.613669    49A      0.642903    50A      0.655176
      51A      0.660390    52A      0.700570    53A      0.715295
      54A      0.729804    55A      0.744271    56A      0.768846
      57A      0.805475    58A      0.833577    59A      0.839823
      60A      0.849785    61A      0.868909    62A      0.870703
      63A      0.883257    64A      0.886804    65A      0.899060
      66A      0.910845    67A      0.929539    68A      0.945296
      69A      0.984088    70A      1.032440    71A      1.039818
      72A      1.078145    73A      1.118291    74A      1.123776
      75A      1.158331    76A      1.168415    77A      1.212753
      78A      1.256238    79A      1.290798    80A      1.354515
      81A      1.366178    82A      1.405499    83A      1.420843
      84A      1.438325    85A      1.454722    86A      1.468553
      87A      1.478411    88A      1.513983    89A      1.530304
      90A      1.591265    91A      1.635061    92A      1.653721
      93A      1.664758    94A      1.673090    95A      1.741222
      96A      1.748706    97A      1.810623    98A      1.857560
      99A      1.862674   100A      1.876905   101A      1.885371
     102A      1.890402   103A      1.897051   104A      1.924231
     105A      1.934220   106A      1.953258   107A      1.963767
     108A      1.982792   109A      1.986576   110A      1.992665
     111A      2.022614   112A      2.072562   113A      2.113471
     114A      2.120466   115A      2.178840   116A      2.194689
     117A      2.216163   118A      2.253422   119A      2.268946
     120A      2.277725   121A      2.292334   122A      2.427571
     123A      2.467444   124A      2.479765   125A      2.499437
     126A      2.508287   127A      2.529926   128A      2.564547
     129A      2.577208   130A      2.622668   131A      2.672612
     132A      2.736567   133A      2.745374   134A      2.754548
     135A      2.765763   136A      2.790245   137A      2.800693
     138A      2.870021   139A      2.875262   140A      2.939797
     141A      3.020574   142A      3.102208   143A      3.152544
     144A      3.311120   145A      3.354892   146A      3.393760
     147A      3.454504   148A      3.521450   149A      3.544442
     150A      3.600878   151A      3.877304   152A      3.917265
     153A      4.102141

    Final Occupation by Irrep:
              A
    DOCC [    29 ]

  @RHF Final Energy:  -362.07697047813826

   => Energetics <=

    Nuclear Repulsion Energy =            311.4539805904239529
    One-Electron Energy =               -1111.5589080309077872
    Two-Electron Energy =                 438.0279569623455700
    Total Energy =                       -362.0769704781382643

Computation Completed

Properties will be evaluated at   0.000000,   0.000000,   0.000000 [a0]

Properties computed using the SCF density matrix

  Nuclear Dipole Moment: [e a0]
     X:    -9.0260      Y:    -2.7677      Z:     1.0475

  Electronic Dipole Moment: [e a0]
     X:     7.3863      Y:     1.3455      Z:    -0.9395

  Dipole Moment: [e a0]
     X:    -1.6397      Y:    -1.4222      Z:     0.1080     Total:     2.1732

  Dipole Moment: [D]
     X:    -4.1677      Y:    -3.6149      Z:     0.2744     Total:     5.5238

*** tstop() called on ds3 at Mon Apr 27 16:45:37 2020
Module time:
	user time   =      29.75 seconds =       0.50 minutes
	system time =      14.34 seconds =       0.24 minutes
	total time  =         43 seconds =       0.72 minutes
Total time:
	user time   =      29.75 seconds =       0.50 minutes
	system time =      14.34 seconds =       0.24 minutes
	total time  =         43 seconds =       0.72 minutes
                                     G D M A

                                 by Anthony Stone

                           version 2.2.06, 22 June 2011

               Distributed Multipoles from Gaussian wavefunctions

Starting at 16:45:37 on 27 Apr 2020

Using SCF density matrix from file ./SSI/SSI-109SER-137ASN-1-dimer.test.27910.fchk

                         Distributed Multipole Analysis

Standard DMA

Positions and radii in angstrom
Multipole moments in atomic units, ea_0^k for rank k

C          x = -1.681476  y = -1.162157  z = -1.420344 angstrom
           Maximum rank =  0   Radius =  0.650 angstrom
                   Q00  =   0.068112

C          x = -2.697476  y = -0.198157  z = -0.838344 angstrom
           Maximum rank =  0   Radius =  0.650 angstrom
                   Q00  =  -0.229227

O          x = -0.650476  y = -0.426157  z = -2.064344 angstrom
           Maximum rank =  0   Radius =  0.650 angstrom
                   Q00  =  -0.560800

H          x = -1.271476  y = -1.790157  z = -0.630344 angstrom
           Maximum rank =  0   Radius =  0.325 angstrom
                   Q00  =   0.007530

H          x = -2.170476  y = -1.809157  z = -2.146344 angstrom
           Maximum rank =  0   Radius =  0.325 angstrom
                   Q00  =   0.062481

H          x = -2.163476  y =  0.487843  z = -0.182344 angstrom
           Maximum rank =  0   Radius =  0.325 angstrom
                   Q00  =   0.085415

H          x = -0.034476  y = -1.065157  z = -2.449344 angstrom
           Maximum rank =  0   Radius =  0.325 angstrom
                   Q00  =   0.387248

H          x = -3.469563  y = -0.744580  z = -0.276824 angstrom
           Maximum rank =  0   Radius =  0.325 angstrom
                   Q00  =   0.087697

H          x = -3.113849  y =  0.396869  z = -1.664524 angstrom
           Maximum rank =  0   Radius =  0.325 angstrom
                   Q00  =   0.101353

C          x =  0.745524  y =  0.876843  z =  2.433656 angstrom
           Maximum rank =  0   Radius =  0.650 angstrom
                   Q00  =  -0.271929

C          x =  1.349524  y =  0.466843  z =  1.104656 angstrom
           Maximum rank =  0   Radius =  0.650 angstrom
                   Q00  =   0.825717

O          x =  2.401524  y =  0.956843  z =  0.703656 angstrom
           Maximum rank =  0   Radius =  0.650 angstrom
                   Q00  =  -0.802989

N          x =  0.650524  y = -0.379157  z =  0.376656 angstrom
           Maximum rank =  0   Radius =  0.650 angstrom
                   Q00  =  -0.516946

H          x =  0.966524  y = -0.560157  z = -0.560344 angstrom
           Maximum rank =  0   Radius =  0.325 angstrom
                   Q00  =   0.223075

H          x = -0.197476  y = -0.777157  z =  0.744656 angstrom
           Maximum rank =  0   Radius =  0.325 angstrom
                   Q00  =   0.197801

H          x =  1.527524  y =  1.306843  z =  3.060656 angstrom
           Maximum rank =  0   Radius =  0.325 angstrom
                   Q00  =   0.126888

H          x =  0.355524  y = -0.010157  z =  2.935656 angstrom
           Maximum rank =  0   Radius =  0.325 angstrom
                   Q00  =   0.084798

H          x = -0.063786  y =  1.608738  z =  2.294586 angstrom
           Maximum rank =  0   Radius =  0.325 angstrom
                   Q00  =   0.123776

Total multipoles referred to origin at
           x =   0.000000,  y =    0.000000,  z =    0.000000 angstrom
                   Q00  =  -0.000000

Finished at 16:45:37 on 27 Apr 2020

  DMA results are available in the Python driver through the
	  variable('DMA DISTRIBUTED MULTIPOLES')
  and
	  variable('DMA TOTAL MULTIPOLES')
  commands.

    Psi4 stopped on: Monday, 27 April 2020 04:45PM
    Psi4 wall time for execution: 0:00:42.89

*** Psi4 exiting successfully. Buy a developer a beer!
