                               Psi4 1.3.2 release

  ==> Input File <==

--------------------------------------------------------------------------
import numpy as np
set {scf_type pk
basis cc-pvdz
d_convergence 10
gdma_switch   0
gdma_limit    0
gdma_origin   [ 0.0,  0.0,  0.0 ]
}
molecule test {
    units Angstrom
    0 1
    --
    0 1
    C                0.922333108983624     0.255214458595308     2.915274957805148
    C               -0.906666891016376     1.562214458595308    -0.149725042194852
    C                0.115333108983624     1.267214458595308     0.758274957805148
    C               -2.175666891016376     1.142214458595308     0.113274957805148
    C               -0.161666891016376     0.535214458595308     1.910274957805148
    C               -2.459666891016376     0.422214458595308     1.253274957805148
    C               -1.458666891016376     0.129214458595308     2.157274957805148
    H               -0.695666891016376     2.145214458595309    -1.034725042194852
    H                1.118333108983624     1.622214458595308     0.568274957805148
    H               -2.971666891016376     1.393214458595308    -0.574725042194852
    H               -3.476666891016376     0.145214458595308     1.479274957805148
    H                1.876333108983624     0.184214458595308     2.388274957805148
    H                0.738333108983624    -0.708785541404692     3.383274957805148
    H               -1.698666891016376    -0.401785541404692     3.067274957805148
    H                0.996614108983624     1.025161458595308     3.697364957805148
    C                1.003333108983624    -0.952785541404692    -2.068725042194852
    C                1.008333108983624    -1.866785541404692    -0.836725042194852
    C                2.296333108983624    -0.112785541404692    -2.063725042194852
    C                0.985333108983624    -1.806785541404692    -3.332725042194852
    H                0.144333108983624    -0.286785541404692    -2.050725042194852
    H                1.437333108983624    -1.313785541404692     0.000274957805148
    H                1.650333108983624    -2.725785541404692    -1.018725042194852
    H                3.170333108983624    -0.760785541404692    -2.143725042194852
    H                2.274333108983624     0.577214458595308    -2.904725042194852
    H                2.362333108983624     0.472214458595308    -1.146725042194852
    H                0.037333108983624    -2.307785541404692    -3.487725042194852
    H                1.143333108983624    -1.160785541404692    -4.196725042194852
    H                1.787333108983624    -2.545785541404692    -3.311725042194852
    H                0.004629108983624    -2.191387541404691    -0.524936042194852

}
e, wfn = energy('scf', return_wfn=True)
gdma(wfn)
dmavals = variable('DMA DISTRIBUTED MULTIPOLES')
charges = np.array(dmavals)
print(charges)
np.save('SSI-074PHE-080LEU-1-dimer.npy', np.array(charges))--------------------------------------------------------------------------

*** tstart() called on ds3
*** at Mon Apr 27 22:12:53 2020

   => Loading Basis Set <=

    Name: CC-PVDZ
    Role: ORBITAL
    Keyword: BASIS
    atoms 1-7, 16-19  entry C          line   138 file /theoryfs2/ds/metcalf/miniconda2/envs/tf2gpu/share/psi4/basis/cc-pvdz.gbs
    atoms 8-15, 20-29 entry H          line    22 file /theoryfs2/ds/metcalf/miniconda2/envs/tf2gpu/share/psi4/basis/cc-pvdz.gbs

         ---------------------------------------------------------
                                   SCF
               by Justin Turney, Rob Parrish, Andy Simmonett
                          and Daniel G. A. Smith
                              RHF Reference
                        1 Threads,    500 MiB Core
         ---------------------------------------------------------

  ==> Geometry <==

    Molecular point group: c1
    Full point group: C1

    Geometry (in Angstrom), charge = 0, multiplicity = 1:

       Center              X                  Y                   Z               Mass
    ------------   -----------------  -----------------  -----------------  -----------------
         C            0.922333108984     0.255214458595     2.915274957805    12.000000000000
         C           -0.906666891016     1.562214458595    -0.149725042195    12.000000000000
         C            0.115333108984     1.267214458595     0.758274957805    12.000000000000
         C           -2.175666891016     1.142214458595     0.113274957805    12.000000000000
         C           -0.161666891016     0.535214458595     1.910274957805    12.000000000000
         C           -2.459666891016     0.422214458595     1.253274957805    12.000000000000
         C           -1.458666891016     0.129214458595     2.157274957805    12.000000000000
         H           -0.695666891016     2.145214458595    -1.034725042195     1.007825032230
         H            1.118333108984     1.622214458595     0.568274957805     1.007825032230
         H           -2.971666891016     1.393214458595    -0.574725042195     1.007825032230
         H           -3.476666891016     0.145214458595     1.479274957805     1.007825032230
         H            1.876333108984     0.184214458595     2.388274957805     1.007825032230
         H            0.738333108984    -0.708785541405     3.383274957805     1.007825032230
         H           -1.698666891016    -0.401785541405     3.067274957805     1.007825032230
         H            0.996614108984     1.025161458595     3.697364957805     1.007825032230
         C            1.003333108984    -0.952785541405    -2.068725042195    12.000000000000
         C            1.008333108984    -1.866785541405    -0.836725042195    12.000000000000
         C            2.296333108984    -0.112785541405    -2.063725042195    12.000000000000
         C            0.985333108984    -1.806785541405    -3.332725042195    12.000000000000
         H            0.144333108984    -0.286785541405    -2.050725042195     1.007825032230
         H            1.437333108984    -1.313785541405     0.000274957805     1.007825032230
         H            1.650333108984    -2.725785541405    -1.018725042195     1.007825032230
         H            3.170333108984    -0.760785541405    -2.143725042195     1.007825032230
         H            2.274333108984     0.577214458595    -2.904725042195     1.007825032230
         H            2.362333108984     0.472214458595    -1.146725042195     1.007825032230
         H            0.037333108984    -2.307785541405    -3.487725042195     1.007825032230
         H            1.143333108984    -1.160785541405    -4.196725042195     1.007825032230
         H            1.787333108984    -2.545785541405    -3.311725042195     1.007825032230
         H            0.004629108984    -2.191387541405    -0.524936042195     1.007825032230

  Running in c1 symmetry.

  Rotational constants: A =      0.05027  B =      0.01891  C =      0.01678 [cm^-1]
  Rotational constants: A =   1506.96166  B =    567.02577  C =    502.90222 [MHz]
  Nuclear repulsion =  594.394446367751812

  Charge       = 0
  Multiplicity = 1
  Electrons    = 84
  Nalpha       = 42
  Nbeta        = 42

  ==> Algorithm <==

  SCF Algorithm Type is PK.
  DIIS enabled.
  MOM disabled.
  Fractional occupation disabled.
  Guess Type is SAD.
  Energy threshold   = 1.00e-06
  Density threshold  = 1.00e-10
  Integral threshold = 0.00e+00

  ==> Primary Basis <==

  Basis Set: CC-PVDZ
    Blend: CC-PVDZ
    Number of shells: 120
    Number of basis function: 244
    Number of Cartesian functions: 255
    Spherical Harmonics?: true
    Max angular momentum: 2

  ==> Pre-Iterations <==

   -------------------------------------------------------
    Irrep   Nso     Nmo     Nalpha   Nbeta   Ndocc  Nsocc
   -------------------------------------------------------
     A        244     244       0       0       0       0
   -------------------------------------------------------
    Total     244     244      42      42      42       0
   -------------------------------------------------------

  ==> Integral Setup <==

  Using integral reordering PK algorithm.
  Sizing the integral batches needed.
  Building batch lookup table.
   Calculation information:
      Number of atoms:                  29
      Number of AO shells:             120
      Number of primitives:            332
      Number of atomic orbitals:       255
      Number of basis functions:       244

      Integral cutoff                 1.00e-12
      Number of threads:                 1

	Batch   1 pq = [       0,    9405] index = [             0,44231715] size =     44231715
	Batch   2 pq = [    9405,   13301] index = [      44231715,88464951] size =     44233236
	Batch   3 pq = [   13301,   16290] index = [      88464951,132690195] size =     44225244
	Batch   4 pq = [   16290,   18810] index = [     132690195,176917455] size =     44227260
	Batch   5 pq = [   18810,   21030] index = [     176917455,221140965] size =     44223510
	Batch   6 pq = [   21030,   23037] index = [     221140965,265363203] size =     44222238
	Batch   7 pq = [   23037,   24883] index = [     265363203,309594286] size =     44231083
	Batch   8 pq = [   24883,   26601] index = [     309594286,353819901] size =     44225615
	Batch   9 pq = [   26601,   28214] index = [     353819901,398029005] size =     44209104
	Batch  10 pq = [   28214,   29740] index = [     398029005,442248670] size =     44219665
	Batch  11 pq = [   29740,   29890] index = [     442248670,446720995] size =      4472325
  Task number: 41
  Buffer size: 11059200
  Buffer per thread: 2
  We computed 28125292 shell quartets total.
  Whereas there are 26357430 unique shell quartets.
     6.71 percent of shell quartets recomputed by reordering.

  ==> DiskJK: Disk-Based J/K Matrices <==

    J tasked:                  Yes
    K tasked:                  Yes
    wK tasked:                  No
    Memory [MiB]:              375
    Schwarz Cutoff:          1E-12

    OpenMP threads:              1

  Minimum eigenvalue in the overlap matrix is 2.9262231628E-04.
  Using Symmetric Orthogonalization.

  SCF Guess: Superposition of Atomic Densities via on-the-fly atomic UHF.

  ==> Iterations <==

                        Total Energy        Delta E     RMS |[F,P]|

   @RHF iter SAD:  -426.08557162126812   -4.26086e+02   0.00000e+00
   @RHF iter   1:  -426.76246337387192   -6.76892e-01   2.68561e-03 DIIS
   @RHF iter   2:  -427.01514132438018   -2.52678e-01   1.15421e-03 DIIS
   @RHF iter   3:  -427.05774629248793   -4.26050e-02   2.47818e-04 DIIS
   @RHF iter   4:  -427.06108463886721   -3.33835e-03   5.62514e-05 DIIS
   @RHF iter   5:  -427.06120854467480   -1.23906e-04   1.26716e-05 DIIS
   @RHF iter   6:  -427.06121570806584   -7.16339e-06   3.41576e-06 DIIS
   @RHF iter   7:  -427.06121621958613   -5.11520e-07   1.25349e-06 DIIS
   @RHF iter   8:  -427.06121629145116   -7.18650e-08   2.82775e-07 DIIS
   @RHF iter   9:  -427.06121630084675   -9.39559e-09   1.17359e-07 DIIS
   @RHF iter  10:  -427.06121630286270   -2.01595e-09   5.26343e-08 DIIS
   @RHF iter  11:  -427.06121630339709   -5.34385e-10   2.22738e-08 DIIS
   @RHF iter  12:  -427.06121630350083   -1.03739e-10   9.21115e-09 DIIS
   @RHF iter  13:  -427.06121630351146   -1.06297e-11   3.36025e-09 DIIS
   @RHF iter  14:  -427.06121630351487   -3.41061e-12   9.44572e-10 DIIS
   @RHF iter  15:  -427.06121630351271    2.16005e-12   2.74828e-10 DIIS
   @RHF iter  16:  -427.06121630350867    4.03588e-12   9.26759e-11 DIIS
  Energy and wave function converged.

  ==> Post-Iterations <==

    Orbital Energies [Eh]
    ---------------------

    Doubly Occupied:

       1A    -11.238734     2A    -11.233337     3A    -11.232320
       4A    -11.230810     5A    -11.229055     6A    -11.228115
       7A    -11.226750     8A    -11.217163     9A    -11.210363
      10A    -11.207069    11A    -11.204646    12A     -1.159986
      13A     -1.075796    14A     -1.049422    15A     -1.014941
      16A     -0.933208    17A     -0.921342    18A     -0.917519
      19A     -0.829533    20A     -0.796450    21A     -0.761241
      22A     -0.694870    23A     -0.635632    24A     -0.630116
      25A     -0.627912    26A     -0.588810    27A     -0.583252
      28A     -0.579982    29A     -0.572994    30A     -0.563151
      31A     -0.536695    32A     -0.534567    33A     -0.526827
      34A     -0.498163    35A     -0.492109    36A     -0.487417
      37A     -0.480042    38A     -0.461588    39A     -0.449029
      40A     -0.445901    41A     -0.333836    42A     -0.325353

    Virtual:

      43A      0.132703    44A      0.142789    45A      0.170062
      46A      0.194609    47A      0.198124    48A      0.213112
      49A      0.228333    50A      0.238012    51A      0.242326
      52A      0.250285    53A      0.254953    54A      0.261847
      55A      0.273765    56A      0.283250    57A      0.286251
      58A      0.302971    59A      0.308711    60A      0.310811
      61A      0.333242    62A      0.351356    63A      0.362177
      64A      0.377916    65A      0.394151    66A      0.416479
      67A      0.423145    68A      0.459702    69A      0.467759
      70A      0.483431    71A      0.491990    72A      0.560232
      73A      0.564180    74A      0.576801    75A      0.600611
      76A      0.612192    77A      0.618805    78A      0.630418
      79A      0.674539    80A      0.681393    81A      0.693165
      82A      0.701302    83A      0.722449    84A      0.731842
      85A      0.739553    86A      0.744190    87A      0.752705
      88A      0.765380    89A      0.775734    90A      0.780863
      91A      0.795339    92A      0.802896    93A      0.834821
      94A      0.838822    95A      0.844894    96A      0.855466
      97A      0.863262    98A      0.868936    99A      0.874452
     100A      0.882169   101A      0.892294   102A      0.899778
     103A      0.902829   104A      0.907695   105A      0.912537
     106A      0.915858   107A      0.925638   108A      0.934448
     109A      0.946205   110A      0.948114   111A      0.954292
     112A      0.961946   113A      0.966818   114A      0.982109
     115A      0.994009   116A      1.008914   117A      1.034466
     118A      1.047192   119A      1.063556   120A      1.083888
     121A      1.119149   122A      1.129029   123A      1.139234
     124A      1.154061   125A      1.161392   126A      1.176613
     127A      1.184970   128A      1.199852   129A      1.246763
     130A      1.253672   131A      1.261043   132A      1.266057
     133A      1.304930   134A      1.318289   135A      1.329862
     136A      1.336852   137A      1.393115   138A      1.404926
     139A      1.415351   140A      1.430148   141A      1.504911
     142A      1.511901   143A      1.553225   144A      1.558359
     145A      1.589215   146A      1.608273   147A      1.651907
     148A      1.659354   149A      1.674060   150A      1.693267
     151A      1.696851   152A      1.705416   153A      1.710444
     154A      1.735128   155A      1.749503   156A      1.755530
     157A      1.771079   158A      1.782858   159A      1.794663
     160A      1.815320   161A      1.846826   162A      1.858068
     163A      1.866112   164A      1.873291   165A      1.900730
     166A      1.911764   167A      1.919486   168A      1.924804
     169A      1.931531   170A      1.935101   171A      1.944609
     172A      1.953143   173A      1.955031   174A      1.967734
     175A      1.969480   176A      1.977011   177A      1.982301
     178A      1.989549   179A      1.994150   180A      2.007577
     181A      2.023862   182A      2.047498   183A      2.064667
     184A      2.078036   185A      2.084722   186A      2.097353
     187A      2.098330   188A      2.110378   189A      2.121668
     190A      2.151956   191A      2.152501   192A      2.160076
     193A      2.168184   194A      2.178870   195A      2.183969
     196A      2.199308   197A      2.235373   198A      2.262103
     199A      2.277437   200A      2.289458   201A      2.297931
     202A      2.301408   203A      2.318907   204A      2.322797
     205A      2.337177   206A      2.340240   207A      2.358524
     208A      2.368207   209A      2.422004   210A      2.473278
     211A      2.488947   212A      2.498240   213A      2.505412
     214A      2.554902   215A      2.566960   216A      2.587537
     217A      2.629282   218A      2.655997   219A      2.684071
     220A      2.732957   221A      2.752052   222A      2.773465
     223A      2.777287   224A      2.786026   225A      2.797172
     226A      2.800576   227A      2.813543   228A      2.817737
     229A      2.822185   230A      2.851709   231A      2.866986
     232A      2.870351   233A      2.885463   234A      2.899666
     235A      2.995154   236A      3.014808   237A      3.025158
     238A      3.041029   239A      3.052373   240A      3.135786
     241A      3.168699   242A      3.225076   243A      3.320506
     244A      4.008118

    Final Occupation by Irrep:
              A
    DOCC [    42 ]

  @RHF Final Energy:  -427.06121630350867

   => Energetics <=

    Nuclear Repulsion Energy =            594.3944463677518115
    One-Electron Energy =               -1754.9792274822893887
    Two-Electron Energy =                 733.5235648110290185
    Total Energy =                       -427.0612163035086724

Computation Completed

Properties will be evaluated at   0.000000,   0.000000,   0.000000 [a0]

Properties computed using the SCF density matrix

  Nuclear Dipole Moment: [e a0]
     X:     9.2796      Y:    -6.4112      Z:    -7.3227

  Electronic Dipole Moment: [e a0]
     X:    -9.3200      Y:     6.4855      Z:     7.5004

  Dipole Moment: [e a0]
     X:    -0.0404      Y:     0.0743      Z:     0.1777     Total:     0.1968

  Dipole Moment: [D]
     X:    -0.1028      Y:     0.1890      Z:     0.4515     Total:     0.5002

*** tstop() called on ds3 at Mon Apr 27 22:17:07 2020
Module time:
	user time   =     190.42 seconds =       3.17 minutes
	system time =      63.84 seconds =       1.06 minutes
	total time  =        254 seconds =       4.23 minutes
Total time:
	user time   =     190.42 seconds =       3.17 minutes
	system time =      63.84 seconds =       1.06 minutes
	total time  =        254 seconds =       4.23 minutes
                                     G D M A

                                 by Anthony Stone

                           version 2.2.06, 22 June 2011

               Distributed Multipoles from Gaussian wavefunctions

Starting at 22:17:8 on 27 Apr 2020

Using SCF density matrix from file ./SSI/SSI-074PHE-080LEU-1-dimer.test.1820.fchk

                         Distributed Multipole Analysis

Standard DMA

Positions and radii in angstrom
Multipole moments in atomic units, ea_0^k for rank k

C          x =  0.922333  y =  0.255214  z =  2.915275 angstrom
           Maximum rank =  0   Radius =  0.650 angstrom
                   Q00  =  -0.202082

C          x = -0.906667  y =  1.562214  z = -0.149725 angstrom
           Maximum rank =  0   Radius =  0.650 angstrom
                   Q00  =  -0.077597

C          x =  0.115333  y =  1.267214  z =  0.758275 angstrom
           Maximum rank =  0   Radius =  0.650 angstrom
                   Q00  =  -0.053157

C          x = -2.175667  y =  1.142214  z =  0.113275 angstrom
           Maximum rank =  0   Radius =  0.650 angstrom
                   Q00  =  -0.010681

C          x = -0.161667  y =  0.535214  z =  1.910275 angstrom
           Maximum rank =  0   Radius =  0.650 angstrom
                   Q00  =  -0.095377

C          x = -2.459667  y =  0.422214  z =  1.253275 angstrom
           Maximum rank =  0   Radius =  0.650 angstrom
                   Q00  =  -0.075697

C          x = -1.458667  y =  0.129214  z =  2.157275 angstrom
           Maximum rank =  0   Radius =  0.650 angstrom
                   Q00  =  -0.080300

H          x = -0.695667  y =  2.145214  z = -1.034725 angstrom
           Maximum rank =  0   Radius =  0.325 angstrom
                   Q00  =   0.064391

H          x =  1.118333  y =  1.622214  z =  0.568275 angstrom
           Maximum rank =  0   Radius =  0.325 angstrom
                   Q00  =   0.058213

H          x = -2.971667  y =  1.393214  z = -0.574725 angstrom
           Maximum rank =  0   Radius =  0.325 angstrom
                   Q00  =   0.055102

H          x = -3.476667  y =  0.145214  z =  1.479275 angstrom
           Maximum rank =  0   Radius =  0.325 angstrom
                   Q00  =   0.062228

H          x =  1.876333  y =  0.184214  z =  2.388275 angstrom
           Maximum rank =  0   Radius =  0.325 angstrom
                   Q00  =   0.095874

H          x =  0.738333  y = -0.708786  z =  3.383275 angstrom
           Maximum rank =  0   Radius =  0.325 angstrom
                   Q00  =   0.099420

H          x = -1.698667  y = -0.401786  z =  3.067275 angstrom
           Maximum rank =  0   Radius =  0.325 angstrom
                   Q00  =   0.054571

H          x =  0.996614  y =  1.025161  z =  3.697365 angstrom
           Maximum rank =  0   Radius =  0.325 angstrom
                   Q00  =   0.105599

C          x =  1.003333  y = -0.952786  z = -2.068725 angstrom
           Maximum rank =  0   Radius =  0.650 angstrom
                   Q00  =   0.003147

C          x =  1.008333  y = -1.866786  z = -0.836725 angstrom
           Maximum rank =  0   Radius =  0.650 angstrom
                   Q00  =  -0.229459

C          x =  2.296333  y = -0.112786  z = -2.063725 angstrom
           Maximum rank =  0   Radius =  0.650 angstrom
                   Q00  =  -0.251775

C          x =  0.985333  y = -1.806786  z = -3.332725 angstrom
           Maximum rank =  0   Radius =  0.650 angstrom
                   Q00  =  -0.244016

H          x =  0.144333  y = -0.286786  z = -2.050725 angstrom
           Maximum rank =  0   Radius =  0.325 angstrom
                   Q00  =   0.033266

H          x =  1.437333  y = -1.313786  z =  0.000275 angstrom
           Maximum rank =  0   Radius =  0.325 angstrom
                   Q00  =   0.072095

H          x =  1.650333  y = -2.725786  z = -1.018725 angstrom
           Maximum rank =  0   Radius =  0.325 angstrom
                   Q00  =   0.070088

H          x =  3.170333  y = -0.760786  z = -2.143725 angstrom
           Maximum rank =  0   Radius =  0.325 angstrom
                   Q00  =   0.076142

H          x =  2.274333  y =  0.577214  z = -2.904725 angstrom
           Maximum rank =  0   Radius =  0.325 angstrom
                   Q00  =   0.076865

H          x =  2.362333  y =  0.472214  z = -1.146725 angstrom
           Maximum rank =  0   Radius =  0.325 angstrom
                   Q00  =   0.076413

H          x =  0.037333  y = -2.307786  z = -3.487725 angstrom
           Maximum rank =  0   Radius =  0.325 angstrom
                   Q00  =   0.082460

H          x =  1.143333  y = -1.160786  z = -4.196725 angstrom
           Maximum rank =  0   Radius =  0.325 angstrom
                   Q00  =   0.070922

H          x =  1.787333  y = -2.545786  z = -3.311725 angstrom
           Maximum rank =  0   Radius =  0.325 angstrom
                   Q00  =   0.074531

H          x =  0.004629  y = -2.191388  z = -0.524936 angstrom
           Maximum rank =  0   Radius =  0.325 angstrom
                   Q00  =   0.088814

Total multipoles referred to origin at
           x =   0.000000,  y =    0.000000,  z =    0.000000 angstrom
                   Q00  =  -0.000000

Finished at 22:17:8 on 27 Apr 2020

  DMA results are available in the Python driver through the
	  variable('DMA DISTRIBUTED MULTIPOLES')
  and
	  variable('DMA TOTAL MULTIPOLES')
  commands.

    Psi4 stopped on: Monday, 27 April 2020 10:17PM
    Psi4 wall time for execution: 0:04:14.19

*** Psi4 exiting successfully. Buy a developer a beer!
