                               Psi4 1.3.2 release

  ==> Input File <==

--------------------------------------------------------------------------
import numpy as np
set {scf_type pk
basis cc-pvdz
d_convergence 10
gdma_switch   0
gdma_limit    0
gdma_origin   [ 0.0,  0.0,  0.0 ]
}
molecule test {
    units Angstrom
    0 1
    --
    0 1
    C                0.076932963303618    -1.668552861754580    -0.409202116371851
    C                0.564932963303618    -2.588552861754580     0.707797883628149
    C                1.207932963303618    -0.910552861754581    -1.082202116371851
    H               -0.478067036696382    -2.246552861754581    -1.146202116371851
    H               -0.610067036696382    -0.941552861754581     0.016797883628149
    H                1.062932963303618    -1.978552861754580     1.464797883628149
    H                1.299932963303618    -3.283552861754581     0.296797883628149
    H                0.786932963303618    -0.005552861754581    -1.524202116371851
    H                1.945932963303618    -0.595552861754581    -0.343202116371851
    H               -0.236051036696382    -3.168152861754580     1.189967883628149
    H                1.633080963303618    -1.498232861754580    -1.909172116371851
    C               -0.834067036696382     1.995447138245420    -0.161202116371851
    C               -1.013067036696382     3.051447138245419     0.917797883628149
    H               -1.799067036696382     1.578447138245419    -0.455202116371851
    H               -0.350067036696382     2.435447138245419    -1.034202116371851
    H               -0.194067036696382     1.211447138245419     0.236797883628149
    H               -0.023067036696382     3.391447138245420     1.226797883628149
    H               -1.523061036696382     2.615277138245420     1.789387883628149
    H               -1.547028036696382     3.923557138245420     0.512447883628149

}
e, wfn = energy('scf', return_wfn=True)
gdma(wfn)
dmavals = variable('DMA DISTRIBUTED MULTIPOLES')
charges = np.array(dmavals)
print(charges)
np.save('SSI-015ARG-164ALA-1-dimer.npy', np.array(charges))--------------------------------------------------------------------------

*** tstart() called on ds3
*** at Tue Apr 28 09:02:54 2020

   => Loading Basis Set <=

    Name: CC-PVDZ
    Role: ORBITAL
    Keyword: BASIS
    atoms 1-3, 12-13  entry C          line   138 file /theoryfs2/ds/metcalf/miniconda2/envs/tf2gpu/share/psi4/basis/cc-pvdz.gbs
    atoms 4-11, 14-19 entry H          line    22 file /theoryfs2/ds/metcalf/miniconda2/envs/tf2gpu/share/psi4/basis/cc-pvdz.gbs

         ---------------------------------------------------------
                                   SCF
               by Justin Turney, Rob Parrish, Andy Simmonett
                          and Daniel G. A. Smith
                              RHF Reference
                        1 Threads,    500 MiB Core
         ---------------------------------------------------------

  ==> Geometry <==

    Molecular point group: c1
    Full point group: C1

    Geometry (in Angstrom), charge = 0, multiplicity = 1:

       Center              X                  Y                   Z               Mass
    ------------   -----------------  -----------------  -----------------  -----------------
         C            0.076932963304    -1.668552861755    -0.409202116372    12.000000000000
         C            0.564932963304    -2.588552861755     0.707797883628    12.000000000000
         C            1.207932963304    -0.910552861755    -1.082202116372    12.000000000000
         H           -0.478067036696    -2.246552861755    -1.146202116372     1.007825032230
         H           -0.610067036696    -0.941552861755     0.016797883628     1.007825032230
         H            1.062932963304    -1.978552861755     1.464797883628     1.007825032230
         H            1.299932963304    -3.283552861755     0.296797883628     1.007825032230
         H            0.786932963304    -0.005552861755    -1.524202116372     1.007825032230
         H            1.945932963304    -0.595552861755    -0.343202116372     1.007825032230
         H           -0.236051036696    -3.168152861755     1.189967883628     1.007825032230
         H            1.633080963304    -1.498232861755    -1.909172116372     1.007825032230
         C           -0.834067036696     1.995447138245    -0.161202116372    12.000000000000
         C           -1.013067036696     3.051447138245     0.917797883628    12.000000000000
         H           -1.799067036696     1.578447138245    -0.455202116372     1.007825032230
         H           -0.350067036696     2.435447138245    -1.034202116372     1.007825032230
         H           -0.194067036696     1.211447138245     0.236797883628     1.007825032230
         H           -0.023067036696     3.391447138245     1.226797883628     1.007825032230
         H           -1.523061036696     2.615277138245     1.789387883628     1.007825032230
         H           -1.547028036696     3.923557138245     0.512447883628     1.007825032230

  Running in c1 symmetry.

  Rotational constants: A =      0.24236  B =      0.04021  C =      0.03709 [cm^-1]
  Rotational constants: A =   7265.87947  B =   1205.47890  C =   1111.97116 [MHz]
  Nuclear repulsion =  179.422672979387755

  Charge       = 0
  Multiplicity = 1
  Electrons    = 44
  Nalpha       = 22
  Nbeta        = 22

  ==> Algorithm <==

  SCF Algorithm Type is PK.
  DIIS enabled.
  MOM disabled.
  Fractional occupation disabled.
  Guess Type is SAD.
  Energy threshold   = 1.00e-06
  Density threshold  = 1.00e-10
  Integral threshold = 0.00e+00

  ==> Primary Basis <==

  Basis Set: CC-PVDZ
    Blend: CC-PVDZ
    Number of shells: 72
    Number of basis function: 140
    Number of Cartesian functions: 145
    Spherical Harmonics?: true
    Max angular momentum: 2

  ==> Pre-Iterations <==

   -------------------------------------------------------
    Irrep   Nso     Nmo     Nalpha   Nbeta   Ndocc  Nsocc
   -------------------------------------------------------
     A        140     140       0       0       0       0
   -------------------------------------------------------
    Total     140     140      22      22      22       0
   -------------------------------------------------------

  ==> Integral Setup <==

  Using integral reordering PK algorithm.
  Sizing the integral batches needed.
  Building batch lookup table.
   Calculation information:
      Number of atoms:                  19
      Number of AO shells:              72
      Number of primitives:            180
      Number of atomic orbitals:       145
      Number of basis functions:       140

      Integral cutoff                 1.00e-12
      Number of threads:                 1

	Batch   1 pq = [       0,    9405] index = [             0,44231715] size =     44231715
	Batch   2 pq = [    9405,    9870] index = [      44231715,48713385] size =      4481670
  Task number: 5
  Buffer size: 11059200
  Buffer per thread: 2
  We computed 2864252 shell quartets total.
  Whereas there are 3454506 unique shell quartets.

  ==> DiskJK: Disk-Based J/K Matrices <==

    J tasked:                  Yes
    K tasked:                  Yes
    wK tasked:                  No
    Memory [MiB]:              375
    Schwarz Cutoff:          1E-12

    OpenMP threads:              1

  Minimum eigenvalue in the overlap matrix is 5.4019244268E-03.
  Using Symmetric Orthogonalization.

  SCF Guess: Superposition of Atomic Densities via on-the-fly atomic UHF.

  ==> Iterations <==

                        Total Energy        Delta E     RMS |[F,P]|

   @RHF iter SAD:  -196.42786060309561   -1.96428e+02   0.00000e+00
   @RHF iter   1:  -197.30649676984581   -8.78636e-01   3.81834e-03 DIIS
   @RHF iter   2:  -197.46768131319854   -1.61185e-01   1.64614e-03 DIIS
   @RHF iter   3:  -197.49629682434670   -2.86155e-02   3.28744e-04 DIIS
   @RHF iter   4:  -197.49856157985826   -2.26476e-03   4.99800e-05 DIIS
   @RHF iter   5:  -197.49860312526096   -4.15454e-05   1.51882e-05 DIIS
   @RHF iter   6:  -197.49860668427101   -3.55901e-06   2.53290e-06 DIIS
   @RHF iter   7:  -197.49860679883233   -1.14561e-07   4.65734e-07 DIIS
   @RHF iter   8:  -197.49860680316172   -4.32939e-09   1.17424e-07 DIIS
   @RHF iter   9:  -197.49860680341305   -2.51333e-10   3.53232e-08 DIIS
   @RHF iter  10:  -197.49860680344202   -2.89617e-11   7.17565e-09 DIIS
   @RHF iter  11:  -197.49860680344182    1.98952e-13   1.40315e-09 DIIS
   @RHF iter  12:  -197.49860680344247   -6.53699e-13   2.99671e-10 DIIS
   @RHF iter  13:  -197.49860680344244    2.84217e-14   8.58933e-11 DIIS
  Energy and wave function converged.

  ==> Post-Iterations <==

    Orbital Energies [Eh]
    ---------------------

    Doubly Occupied:

       1A    -11.219151     2A    -11.216461     3A    -11.216295
       4A    -11.215334     5A    -11.214359     6A     -1.055066
       7A     -1.021721     8A     -0.923872     9A     -0.835755
      10A     -0.795694    11A     -0.629575    12A     -0.602844
      13A     -0.600192    14A     -0.594439    15A     -0.543525
      16A     -0.534932    17A     -0.499574    18A     -0.489053
      19A     -0.483667    20A     -0.472499    21A     -0.470605
      22A     -0.459704

    Virtual:

      23A      0.174089    24A      0.196417    25A      0.215974
      26A      0.226621    27A      0.233598    28A      0.242987
      29A      0.262980    30A      0.269118    31A      0.274458
      32A      0.280703    33A      0.295209    34A      0.310719
      35A      0.313247    36A      0.333111    37A      0.380844
      38A      0.412980    39A      0.429846    40A      0.577132
      41A      0.591867    42A      0.601746    43A      0.606386
      44A      0.613050    45A      0.619313    46A      0.640199
      47A      0.664320    48A      0.705713    49A      0.777285
      50A      0.787743    51A      0.828116    52A      0.847366
      53A      0.874359    54A      0.879253    55A      0.883880
      56A      0.892607    57A      0.894313    58A      0.896784
      59A      0.899986    60A      0.903394    61A      0.916257
      62A      0.919614    63A      0.929757    64A      0.943905
      65A      0.948963    66A      0.971595    67A      0.997306
      68A      1.025020    69A      1.116273    70A      1.126976
      71A      1.143375    72A      1.161656    73A      1.217722
      74A      1.244582    75A      1.381151    76A      1.468972
      77A      1.473102    78A      1.488111    79A      1.494404
      80A      1.539545    81A      1.586008    82A      1.642685
      83A      1.657674    84A      1.676983    85A      1.689790
      86A      1.697189    87A      1.716251    88A      1.845241
      89A      1.858494    90A      1.866007    91A      1.874801
      92A      1.889670    93A      1.900948    94A      1.915743
      95A      1.929874    96A      1.941236    97A      1.947894
      98A      1.955146    99A      1.962787   100A      1.972126
     101A      1.974497   102A      1.978567   103A      2.004556
     104A      2.010265   105A      2.020998   106A      2.030475
     107A      2.070711   108A      2.105264   109A      2.122710
     110A      2.141686   111A      2.196938   112A      2.269836
     113A      2.298954   114A      2.307783   115A      2.318743
     116A      2.332548   117A      2.368146   118A      2.456223
     119A      2.461785   120A      2.484216   121A      2.541813
     122A      2.562865   123A      2.570370   124A      2.580231
     125A      2.617680   126A      2.658370   127A      2.759369
     128A      2.765303   129A      2.771230   130A      2.788079
     131A      2.799512   132A      2.839389   133A      2.844743
     134A      2.858492   135A      2.904825   136A      2.942595
     137A      2.959355   138A      2.974717   139A      2.981105
     140A      3.065141

    Final Occupation by Irrep:
              A
    DOCC [    22 ]

  @RHF Final Energy:  -197.49860680344244

   => Energetics <=

    Nuclear Repulsion Energy =            179.4226729793877553
    One-Electron Energy =                -619.6539223659752906
    Two-Electron Energy =                 242.7326425831450933
    Total Energy =                       -197.4986068034424420

Computation Completed

Properties will be evaluated at   0.000000,   0.000000,   0.000000 [a0]

Properties computed using the SCF density matrix

  Nuclear Dipole Moment: [e a0]
     X:    -0.0297      Y:     1.3480      Z:     0.3015

  Electronic Dipole Moment: [e a0]
     X:     0.0023      Y:    -1.3134      Z:    -0.3268

  Dipole Moment: [e a0]
     X:    -0.0274      Y:     0.0346      Z:    -0.0253     Total:     0.0509

  Dipole Moment: [D]
     X:    -0.0697      Y:     0.0880      Z:    -0.0642     Total:     0.1294

*** tstop() called on ds3 at Tue Apr 28 09:03:19 2020
Module time:
	user time   =      15.34 seconds =       0.26 minutes
	system time =       6.18 seconds =       0.10 minutes
	total time  =         25 seconds =       0.42 minutes
Total time:
	user time   =      15.34 seconds =       0.26 minutes
	system time =       6.18 seconds =       0.10 minutes
	total time  =         25 seconds =       0.42 minutes
                                     G D M A

                                 by Anthony Stone

                           version 2.2.06, 22 June 2011

               Distributed Multipoles from Gaussian wavefunctions

Starting at 9:3:19 on 28 Apr 2020

Using SCF density matrix from file ./SSI/SSI-015ARG-164ALA-1-dimer.test.9374.fchk

                         Distributed Multipole Analysis

Standard DMA

Positions and radii in angstrom
Multipole moments in atomic units, ea_0^k for rank k

C          x =  0.076933  y = -1.668553  z = -0.409202 angstrom
           Maximum rank =  0   Radius =  0.650 angstrom
                   Q00  =  -0.064517

C          x =  0.564933  y = -2.588553  z =  0.707798 angstrom
           Maximum rank =  0   Radius =  0.650 angstrom
                   Q00  =  -0.247254

C          x =  1.207933  y = -0.910553  z = -1.082202 angstrom
           Maximum rank =  0   Radius =  0.650 angstrom
                   Q00  =  -0.260293

H          x = -0.478067  y = -2.246553  z = -1.146202 angstrom
           Maximum rank =  0   Radius =  0.325 angstrom
                   Q00  =   0.049180

H          x = -0.610067  y = -0.941553  z =  0.016798 angstrom
           Maximum rank =  0   Radius =  0.325 angstrom
                   Q00  =   0.047075

H          x =  1.062933  y = -1.978553  z =  1.464798 angstrom
           Maximum rank =  0   Radius =  0.325 angstrom
                   Q00  =   0.073290

H          x =  1.299933  y = -3.283553  z =  0.296798 angstrom
           Maximum rank =  0   Radius =  0.325 angstrom
                   Q00  =   0.073233

H          x =  0.786933  y = -0.005553  z = -1.524202 angstrom
           Maximum rank =  0   Radius =  0.325 angstrom
                   Q00  =   0.088463

H          x =  1.945933  y = -0.595553  z = -0.343202 angstrom
           Maximum rank =  0   Radius =  0.325 angstrom
                   Q00  =   0.075667

H          x = -0.236051  y = -3.168153  z =  1.189968 angstrom
           Maximum rank =  0   Radius =  0.325 angstrom
                   Q00  =   0.084784

H          x =  1.633081  y = -1.498233  z = -1.909172 angstrom
           Maximum rank =  0   Radius =  0.325 angstrom
                   Q00  =   0.081153

C          x = -0.834067  y =  1.995447  z = -0.161202 angstrom
           Maximum rank =  0   Radius =  0.650 angstrom
                   Q00  =  -0.233929

C          x = -1.013067  y =  3.051447  z =  0.917798 angstrom
           Maximum rank =  0   Radius =  0.650 angstrom
                   Q00  =  -0.234492

H          x = -1.799067  y =  1.578447  z = -0.455202 angstrom
           Maximum rank =  0   Radius =  0.325 angstrom
                   Q00  =   0.079043

H          x = -0.350067  y =  2.435447  z = -1.034202 angstrom
           Maximum rank =  0   Radius =  0.325 angstrom
                   Q00  =   0.077966

H          x = -0.194067  y =  1.211447  z =  0.236798 angstrom
           Maximum rank =  0   Radius =  0.325 angstrom
                   Q00  =   0.077033

H          x = -0.023067  y =  3.391447  z =  1.226798 angstrom
           Maximum rank =  0   Radius =  0.325 angstrom
                   Q00  =   0.075691

H          x = -1.523061  y =  2.615277  z =  1.789388 angstrom
           Maximum rank =  0   Radius =  0.325 angstrom
                   Q00  =   0.079520

H          x = -1.547028  y =  3.923557  z =  0.512448 angstrom
           Maximum rank =  0   Radius =  0.325 angstrom
                   Q00  =   0.078385

Total multipoles referred to origin at
           x =   0.000000,  y =    0.000000,  z =    0.000000 angstrom
                   Q00  =  -0.000000

Finished at 9:3:19 on 28 Apr 2020

  DMA results are available in the Python driver through the
	  variable('DMA DISTRIBUTED MULTIPOLES')
  and
	  variable('DMA TOTAL MULTIPOLES')
  commands.

    Psi4 stopped on: Tuesday, 28 April 2020 09:03AM
    Psi4 wall time for execution: 0:00:25.10

*** Psi4 exiting successfully. Buy a developer a beer!
