                               Psi4 1.3.2 release

  ==> Input File <==

--------------------------------------------------------------------------
import numpy as np
set {scf_type pk
basis cc-pvdz
d_convergence 10
gdma_switch   0
gdma_limit    0
gdma_origin   [ 0.0,  0.0,  0.0 ]
}
molecule test {
    units Angstrom
    0 1
    --
    0 1
    C                0.832152729251896     0.801920013096582     0.769192042788231
    C                3.103152729251895    -0.129079986903418    -0.504807957211769
    S                2.229152729251896    -0.263079986903418     1.083192042788231
    H                0.277152729251896     0.415920013096582    -0.075807957211769
    H                0.187152729251896     0.827920013096582     1.647192042788231
    H                1.180152729251896     1.811920013096582     0.546192042788231
    H                4.014152729251896    -0.693079986903418    -0.381807957211769
    H                3.375152729251896     0.912920013096582    -0.677807957211769
    H                2.542112729251896    -0.501187986903418    -1.374735957211769
    C               -2.592847270748104     0.366920013096582    -0.816807957211769
    C               -2.944847270748105    -0.518079986903418     0.380192042788231
    C               -3.307847270748105     0.002920013096582    -2.113807957211769
    H               -2.821847270748104     1.405920013096582    -0.564807957211769
    H               -1.525847270748104     0.299920013096582    -1.001807957211770
    H               -2.388847270748105    -0.142079986903418     1.245192042788231
    H               -3.101847270748104    -1.033079986903418    -2.381807957211770
    H               -4.381847270748104     0.138920013096582    -2.011807957211769
    H               -2.629347270748104    -1.556972686903418     0.203663042788231
    H               -4.019657270748104    -0.452070486903418     0.604768042788231
    H               -2.958557270748104     0.664613013096582    -2.920132957211770

}
e, wfn = energy('scf', return_wfn=True)
gdma(wfn)
dmavals = variable('DMA DISTRIBUTED MULTIPOLES')
charges = np.array(dmavals)
print(charges)
np.save('SSI-127MET-131LYS-1-dimer.npy', np.array(charges))--------------------------------------------------------------------------

*** tstart() called on ds3
*** at Tue Apr 28 04:01:20 2020

   => Loading Basis Set <=

    Name: CC-PVDZ
    Role: ORBITAL
    Keyword: BASIS
    atoms 1-2, 10-12 entry C          line   138 file /theoryfs2/ds/metcalf/miniconda2/envs/tf2gpu/share/psi4/basis/cc-pvdz.gbs
    atoms 3          entry S          line   598 file /theoryfs2/ds/metcalf/miniconda2/envs/tf2gpu/share/psi4/basis/cc-pvdz.gbs
    atoms 4-9, 13-20 entry H          line    22 file /theoryfs2/ds/metcalf/miniconda2/envs/tf2gpu/share/psi4/basis/cc-pvdz.gbs

         ---------------------------------------------------------
                                   SCF
               by Justin Turney, Rob Parrish, Andy Simmonett
                          and Daniel G. A. Smith
                              RHF Reference
                        1 Threads,    500 MiB Core
         ---------------------------------------------------------

  ==> Geometry <==

    Molecular point group: c1
    Full point group: C1

    Geometry (in Angstrom), charge = 0, multiplicity = 1:

       Center              X                  Y                   Z               Mass
    ------------   -----------------  -----------------  -----------------  -----------------
         C            0.832152729252     0.801920013097     0.769192042788    12.000000000000
         C            3.103152729252    -0.129079986903    -0.504807957212    12.000000000000
         S            2.229152729252    -0.263079986903     1.083192042788    31.972071174400
         H            0.277152729252     0.415920013097    -0.075807957212     1.007825032230
         H            0.187152729252     0.827920013097     1.647192042788     1.007825032230
         H            1.180152729252     1.811920013097     0.546192042788     1.007825032230
         H            4.014152729252    -0.693079986903    -0.381807957212     1.007825032230
         H            3.375152729252     0.912920013097    -0.677807957212     1.007825032230
         H            2.542112729252    -0.501187986903    -1.374735957212     1.007825032230
         C           -2.592847270748     0.366920013097    -0.816807957212    12.000000000000
         C           -2.944847270748    -0.518079986903     0.380192042788    12.000000000000
         C           -3.307847270748     0.002920013097    -2.113807957212    12.000000000000
         H           -2.821847270748     1.405920013097    -0.564807957212     1.007825032230
         H           -1.525847270748     0.299920013097    -1.001807957212     1.007825032230
         H           -2.388847270748    -0.142079986903     1.245192042788     1.007825032230
         H           -3.101847270748    -1.033079986903    -2.381807957212     1.007825032230
         H           -4.381847270748     0.138920013097    -2.011807957212     1.007825032230
         H           -2.629347270748    -1.556972686903     0.203663042788     1.007825032230
         H           -4.019657270748    -0.452070486903     0.604768042788     1.007825032230
         H           -2.958557270748     0.664613013097    -2.920132957212     1.007825032230

  Running in c1 symmetry.

  Rotational constants: A =      0.14707  B =      0.02136  C =      0.01982 [cm^-1]
  Rotational constants: A =   4409.02508  B =    640.46248  C =    594.26994 [MHz]
  Nuclear repulsion =  282.654218678393420

  Charge       = 0
  Multiplicity = 1
  Electrons    = 60
  Nalpha       = 30
  Nbeta        = 30

  ==> Algorithm <==

  SCF Algorithm Type is PK.
  DIIS enabled.
  MOM disabled.
  Fractional occupation disabled.
  Guess Type is SAD.
  Energy threshold   = 1.00e-06
  Density threshold  = 1.00e-10
  Integral threshold = 0.00e+00

  ==> Primary Basis <==

  Basis Set: CC-PVDZ
    Blend: CC-PVDZ
    Number of shells: 80
    Number of basis function: 158
    Number of Cartesian functions: 164
    Spherical Harmonics?: true
    Max angular momentum: 2

  ==> Pre-Iterations <==

   -------------------------------------------------------
    Irrep   Nso     Nmo     Nalpha   Nbeta   Ndocc  Nsocc
   -------------------------------------------------------
     A        158     158       0       0       0       0
   -------------------------------------------------------
    Total     158     158      30      30      30       0
   -------------------------------------------------------

  ==> Integral Setup <==

  Using integral reordering PK algorithm.
  Sizing the integral batches needed.
  Building batch lookup table.
   Calculation information:
      Number of atoms:                  20
      Number of AO shells:              80
      Number of primitives:            230
      Number of atomic orbitals:       164
      Number of basis functions:       158

      Integral cutoff                 1.00e-12
      Number of threads:                 1

	Batch   1 pq = [       0,    9405] index = [             0,44231715] size =     44231715
	Batch   2 pq = [    9405,   12561] index = [      44231715,78895641] size =     34663926
  Task number: 8
  Buffer size: 11059200
  Buffer per thread: 2
  We computed 4212458 shell quartets total.
  Whereas there are 5250420 unique shell quartets.

  ==> DiskJK: Disk-Based J/K Matrices <==

    J tasked:                  Yes
    K tasked:                  Yes
    wK tasked:                  No
    Memory [MiB]:              375
    Schwarz Cutoff:          1E-12

    OpenMP threads:              1

  Minimum eigenvalue in the overlap matrix is 5.2926430753E-03.
  Using Symmetric Orthogonalization.

  SCF Guess: Superposition of Atomic Densities via on-the-fly atomic UHF.

  ==> Iterations <==

                        Total Energy        Delta E     RMS |[F,P]|

   @RHF iter SAD:  -593.92274456835275   -5.93923e+02   0.00000e+00
   @RHF iter   1:  -594.85020368021935   -9.27459e-01   3.16218e-03 DIIS
   @RHF iter   2:  -595.00039181357477   -1.50188e-01   1.29053e-03 DIIS
   @RHF iter   3:  -595.02342575650448   -2.30339e-02   3.00501e-04 DIIS
   @RHF iter   4:  -595.02570253054228   -2.27677e-03   5.02745e-05 DIIS
   @RHF iter   5:  -595.02575544752392   -5.29170e-05   1.25592e-05 DIIS
   @RHF iter   6:  -595.02575879338713   -3.34586e-06   2.71732e-06 DIIS
   @RHF iter   7:  -595.02575896673272   -1.73346e-07   5.83127e-07 DIIS
   @RHF iter   8:  -595.02575897942643   -1.26937e-08   1.76693e-07 DIIS
   @RHF iter   9:  -595.02575898064913   -1.22270e-09   6.58090e-08 DIIS
   @RHF iter  10:  -595.02575898082546   -1.76328e-10   2.18964e-08 DIIS
   @RHF iter  11:  -595.02575898085229   -2.68301e-11   6.81549e-09 DIIS
   @RHF iter  12:  -595.02575898085536   -3.06954e-12   2.48494e-09 DIIS
   @RHF iter  13:  -595.02575898085615   -7.95808e-13   6.57598e-10 DIIS
   @RHF iter  14:  -595.02575898085536    7.95808e-13   1.84881e-10 DIIS
   @RHF iter  15:  -595.02575898085468    6.82121e-13   5.54458e-11 DIIS
  Energy and wave function converged.

  ==> Post-Iterations <==

    Orbital Energies [Eh]
    ---------------------

    Doubly Occupied:

       1A    -91.934970     2A    -11.256495     3A    -11.252087
       4A    -11.222365     5A    -11.220694     6A    -11.217860
       7A     -8.938759     8A     -6.620853     9A     -6.619227
      10A     -6.616978    11A     -1.062794    12A     -1.055906
      13A     -0.952665    14A     -0.928361    15A     -0.805744
      16A     -0.797494    17A     -0.631508    18A     -0.603257
      19A     -0.602793    20A     -0.593367    21A     -0.577909
      22A     -0.561466    23A     -0.551623    24A     -0.538039
      25A     -0.494228    26A     -0.472618    27A     -0.471487
      28A     -0.471231    29A     -0.427470    30A     -0.330948

    Virtual:

      31A      0.164592    32A      0.182113    33A      0.197722
      34A      0.213376    35A      0.229401    36A      0.232983
      37A      0.238675    38A      0.247127    39A      0.261778
      40A      0.265944    41A      0.276544    42A      0.287106
      43A      0.296026    44A      0.300399    45A      0.327630
      46A      0.361642    47A      0.399569    48A      0.422645
      49A      0.512982    50A      0.554611    51A      0.567895
      52A      0.577555    53A      0.604728    54A      0.610335
      55A      0.616482    56A      0.618883    57A      0.652098
      58A      0.697457    59A      0.716802    60A      0.729352
      61A      0.776420    62A      0.779186    63A      0.804484
      64A      0.810546    65A      0.812284    66A      0.839252
      67A      0.854290    68A      0.865058    69A      0.872021
      70A      0.879500    71A      0.885388    72A      0.892639
      73A      0.899808    74A      0.901235    75A      0.903444
      76A      0.906115    77A      0.912308    78A      0.923235
      79A      0.940623    80A      0.948076    81A      0.964563
      82A      0.995952    83A      1.005534    84A      1.029464
      85A      1.124528    86A      1.126101    87A      1.175195
      88A      1.232387    89A      1.266301    90A      1.297810
      91A      1.315925    92A      1.364318    93A      1.389195
      94A      1.401559    95A      1.460946    96A      1.469562
      97A      1.479024    98A      1.506409    99A      1.520930
     100A      1.633562   101A      1.670197   102A      1.673109
     103A      1.678001   104A      1.678994   105A      1.689593
     106A      1.852221   107A      1.862149   108A      1.870149
     109A      1.877444   110A      1.887189   111A      1.893663
     112A      1.912295   113A      1.914772   114A      1.927039
     115A      1.929596   116A      1.948301   117A      1.968137
     118A      1.968746   119A      1.972880   120A      1.980576
     121A      1.985698   122A      1.996449   123A      2.023061
     124A      2.033936   125A      2.046193   126A      2.060541
     127A      2.079697   128A      2.127464   129A      2.147336
     130A      2.221296   131A      2.236583   132A      2.292288
     133A      2.298619   134A      2.335580   135A      2.344478
     136A      2.405882   137A      2.447270   138A      2.455478
     139A      2.461711   140A      2.486942   141A      2.530000
     142A      2.578890   143A      2.611852   144A      2.617425
     145A      2.733497   146A      2.749570   147A      2.756307
     148A      2.763545   149A      2.777621   150A      2.785156
     151A      2.801646   152A      2.809497   153A      2.821940
     154A      2.864969   155A      2.909665   156A      2.965091
     157A      2.983329   158A      3.059805

    Final Occupation by Irrep:
              A
    DOCC [    30 ]

  @RHF Final Energy:  -595.02575898085468

   => Energetics <=

    Nuclear Repulsion Energy =            282.6542186783934199
    One-Electron Energy =               -1375.6975624295164380
    Two-Electron Energy =                 498.0175847702683996
    Total Energy =                       -595.0257589808546754

Computation Completed

Properties will be evaluated at   0.000000,   0.000000,   0.000000 [a0]

Properties computed using the SCF density matrix

  Nuclear Dipole Moment: [e a0]
     X:   -11.4270      Y:     1.9614      Z:    -6.6682

  Electronic Dipole Moment: [e a0]
     X:    11.2794      Y:    -1.5952      Z:     6.1380

  Dipole Moment: [e a0]
     X:    -0.1475      Y:     0.3661      Z:    -0.5303     Total:     0.6611

  Dipole Moment: [D]
     X:    -0.3750      Y:     0.9306      Z:    -1.3478     Total:     1.6802

*** tstop() called on ds3 at Tue Apr 28 04:02:37 2020
Module time:
	user time   =      27.25 seconds =       0.45 minutes
	system time =       9.67 seconds =       0.16 minutes
	total time  =         77 seconds =       1.28 minutes
Total time:
	user time   =      27.25 seconds =       0.45 minutes
	system time =       9.67 seconds =       0.16 minutes
	total time  =         77 seconds =       1.28 minutes
                                     G D M A

                                 by Anthony Stone

                           version 2.2.06, 22 June 2011

               Distributed Multipoles from Gaussian wavefunctions

Starting at 4:2:37 on 28 Apr 2020

Using SCF density matrix from file ./SSI/SSI-127MET-131LYS-1-dimer.test.27179.fchk

                         Distributed Multipole Analysis

Standard DMA

Positions and radii in angstrom
Multipole moments in atomic units, ea_0^k for rank k

C          x =  0.832153  y =  0.801920  z =  0.769192 angstrom
           Maximum rank =  0   Radius =  0.650 angstrom
                   Q00  =  -0.342010

C          x =  3.103153  y = -0.129080  z = -0.504808 angstrom
           Maximum rank =  0   Radius =  0.650 angstrom
                   Q00  =  -0.371594

S          x =  2.229153  y = -0.263080  z =  1.083192 angstrom
           Maximum rank =  0   Radius =  0.650 angstrom
                   Q00  =   0.123808

H          x =  0.277153  y =  0.415920  z = -0.075808 angstrom
           Maximum rank =  0   Radius =  0.325 angstrom
                   Q00  =   0.084909

H          x =  0.187153  y =  0.827920  z =  1.647192 angstrom
           Maximum rank =  0   Radius =  0.325 angstrom
                   Q00  =   0.120220

H          x =  1.180153  y =  1.811920  z =  0.546192 angstrom
           Maximum rank =  0   Radius =  0.325 angstrom
                   Q00  =   0.083333

H          x =  4.014153  y = -0.693080  z = -0.381808 angstrom
           Maximum rank =  0   Radius =  0.325 angstrom
                   Q00  =   0.120974

H          x =  3.375153  y =  0.912920  z = -0.677808 angstrom
           Maximum rank =  0   Radius =  0.325 angstrom
                   Q00  =   0.086121

H          x =  2.542113  y = -0.501188  z = -1.374736 angstrom
           Maximum rank =  0   Radius =  0.325 angstrom
                   Q00  =   0.091770

C          x = -2.592847  y =  0.366920  z = -0.816808 angstrom
           Maximum rank =  0   Radius =  0.650 angstrom
                   Q00  =  -0.056844

C          x = -2.944847  y = -0.518080  z =  0.380192 angstrom
           Maximum rank =  0   Radius =  0.650 angstrom
                   Q00  =  -0.256562

C          x = -3.307847  y =  0.002920  z = -2.113808 angstrom
           Maximum rank =  0   Radius =  0.650 angstrom
                   Q00  =  -0.246849

H          x = -2.821847  y =  1.405920  z = -0.564808 angstrom
           Maximum rank =  0   Radius =  0.325 angstrom
                   Q00  =   0.045603

H          x = -1.525847  y =  0.299920  z = -1.001808 angstrom
           Maximum rank =  0   Radius =  0.325 angstrom
                   Q00  =   0.037813

H          x = -2.388847  y = -0.142080  z =  1.245192 angstrom
           Maximum rank =  0   Radius =  0.325 angstrom
                   Q00  =   0.081170

H          x = -3.101847  y = -1.033080  z = -2.381808 angstrom
           Maximum rank =  0   Radius =  0.325 angstrom
                   Q00  =   0.077930

H          x = -4.381847  y =  0.138920  z = -2.011808 angstrom
           Maximum rank =  0   Radius =  0.325 angstrom
                   Q00  =   0.078052

H          x = -2.629347  y = -1.556973  z =  0.203663 angstrom
           Maximum rank =  0   Radius =  0.325 angstrom
                   Q00  =   0.080394

H          x = -4.019657  y = -0.452070  z =  0.604768 angstrom
           Maximum rank =  0   Radius =  0.325 angstrom
                   Q00  =   0.080508

H          x = -2.958557  y =  0.664613  z = -2.920133 angstrom
           Maximum rank =  0   Radius =  0.325 angstrom
                   Q00  =   0.081255

Total multipoles referred to origin at
           x =   0.000000,  y =    0.000000,  z =    0.000000 angstrom
                   Q00  =   0.000000

Finished at 4:2:37 on 28 Apr 2020

  DMA results are available in the Python driver through the
	  variable('DMA DISTRIBUTED MULTIPOLES')
  and
	  variable('DMA TOTAL MULTIPOLES')
  commands.

    Psi4 stopped on: Tuesday, 28 April 2020 04:02AM
    Psi4 wall time for execution: 0:01:17.10

*** Psi4 exiting successfully. Buy a developer a beer!
