                               Psi4 1.3.2 release

  ==> Input File <==

--------------------------------------------------------------------------
import numpy as np
set {scf_type pk
basis cc-pvdz
d_convergence 10
gdma_switch   0
gdma_limit    0
gdma_origin   [ 0.0,  0.0,  0.0 ]
}
molecule test {
    units Angstrom
    0 1
    --
    0 1
    C               -2.437294985909092     0.206674987699509     0.268972042578272
    C               -3.973294985909093    -2.121325012300491     0.521972042578272
    S               -2.285294985909093    -1.584325012300491     0.102972042578272
    H               -2.827294985909092     0.456674987699509     1.255972042578272
    H               -1.458294985909093     0.668674987699509     0.144972042578272
    H               -3.110294985909092     0.602674987699509    -0.486027957421728
    H               -4.425294985909093    -1.375325012300491     1.169972042578272
    H               -3.891294985909093    -3.047325012300491     1.089972042578272
    H               -4.625984985909093    -2.325245012300491    -0.339657957421728
    C                2.001705014090907     1.851674987699509     2.072972042578273
    C                1.082705014090908    -0.495325012300491    -0.797027957421728
    C                1.165705014090907     0.070674987699509     0.478972042578272
    C                1.741705014090907     0.102674987699509    -1.869027957421728
    C                1.907705014090908     1.234674987699509     0.692972042578272
    C                2.483705014090908     1.263674987699509    -1.664027957421728
    C                2.566705014090908     1.822674987699509    -0.387027957421728
    H                0.505705014090907    -1.396325012300491    -0.953027957421728
    H                0.640705014090907    -0.393325012300491     1.301972042578272
    H                1.669705014090907    -0.325325012300491    -2.859027957421727
    H                2.975705014090907     1.741674987699509    -2.496027957421727
    H                0.994705014090907     2.025674987699509     2.445972042578272
    H                2.509705014090907     2.814674987699509     1.996972042578272
    H                3.145705014090907     2.721674987699509    -0.233027957421728
    H                2.531975014090908     1.225834987699509     2.805872042578272

}
e, wfn = energy('scf', return_wfn=True)
gdma(wfn)
dmavals = variable('DMA DISTRIBUTED MULTIPOLES')
charges = np.array(dmavals)
print(charges)
np.save('SSI-038MET-146PHE-1-dimer.npy', np.array(charges))--------------------------------------------------------------------------

*** tstart() called on ds3
*** at Tue Apr 28 12:51:09 2020

   => Loading Basis Set <=

    Name: CC-PVDZ
    Role: ORBITAL
    Keyword: BASIS
    atoms 1-2, 10-16 entry C          line   138 file /theoryfs2/ds/metcalf/miniconda2/envs/tf2gpu/share/psi4/basis/cc-pvdz.gbs
    atoms 3          entry S          line   598 file /theoryfs2/ds/metcalf/miniconda2/envs/tf2gpu/share/psi4/basis/cc-pvdz.gbs
    atoms 4-9, 17-24 entry H          line    22 file /theoryfs2/ds/metcalf/miniconda2/envs/tf2gpu/share/psi4/basis/cc-pvdz.gbs

         ---------------------------------------------------------
                                   SCF
               by Justin Turney, Rob Parrish, Andy Simmonett
                          and Daniel G. A. Smith
                              RHF Reference
                        1 Threads,    500 MiB Core
         ---------------------------------------------------------

  ==> Geometry <==

    Molecular point group: c1
    Full point group: C1

    Geometry (in Angstrom), charge = 0, multiplicity = 1:

       Center              X                  Y                   Z               Mass
    ------------   -----------------  -----------------  -----------------  -----------------
         C           -2.437294985909     0.206674987700     0.268972042578    12.000000000000
         C           -3.973294985909    -2.121325012300     0.521972042578    12.000000000000
         S           -2.285294985909    -1.584325012300     0.102972042578    31.972071174400
         H           -2.827294985909     0.456674987700     1.255972042578     1.007825032230
         H           -1.458294985909     0.668674987700     0.144972042578     1.007825032230
         H           -3.110294985909     0.602674987700    -0.486027957422     1.007825032230
         H           -4.425294985909    -1.375325012300     1.169972042578     1.007825032230
         H           -3.891294985909    -3.047325012300     1.089972042578     1.007825032230
         H           -4.625984985909    -2.325245012300    -0.339657957422     1.007825032230
         C            2.001705014091     1.851674987700     2.072972042578    12.000000000000
         C            1.082705014091    -0.495325012300    -0.797027957422    12.000000000000
         C            1.165705014091     0.070674987700     0.478972042578    12.000000000000
         C            1.741705014091     0.102674987700    -1.869027957422    12.000000000000
         C            1.907705014091     1.234674987700     0.692972042578    12.000000000000
         C            2.483705014091     1.263674987700    -1.664027957422    12.000000000000
         C            2.566705014091     1.822674987700    -0.387027957422    12.000000000000
         H            0.505705014091    -1.396325012300    -0.953027957422     1.007825032230
         H            0.640705014091    -0.393325012300     1.301972042578     1.007825032230
         H            1.669705014091    -0.325325012300    -2.859027957422     1.007825032230
         H            2.975705014091     1.741674987700    -2.496027957422     1.007825032230
         H            0.994705014091     2.025674987700     2.445972042578     1.007825032230
         H            2.509705014091     2.814674987700     1.996972042578     1.007825032230
         H            3.145705014091     2.721674987700    -0.233027957422     1.007825032230
         H            2.531975014091     1.225834987700     2.805872042578     1.007825032230

  Running in c1 symmetry.

  Rotational constants: A =      0.06628  B =      0.01484  C =      0.01304 [cm^-1]
  Rotational constants: A =   1986.90877  B =    444.87930  C =    391.05336 [MHz]
  Nuclear repulsion =  554.659741907038665

  Charge       = 0
  Multiplicity = 1
  Electrons    = 84
  Nalpha       = 42
  Nbeta        = 42

  ==> Algorithm <==

  SCF Algorithm Type is PK.
  DIIS enabled.
  MOM disabled.
  Fractional occupation disabled.
  Guess Type is SAD.
  Energy threshold   = 1.00e-06
  Density threshold  = 1.00e-10
  Integral threshold = 0.00e+00

  ==> Primary Basis <==

  Basis Set: CC-PVDZ
    Blend: CC-PVDZ
    Number of shells: 104
    Number of basis function: 214
    Number of Cartesian functions: 224
    Spherical Harmonics?: true
    Max angular momentum: 2

  ==> Pre-Iterations <==

   -------------------------------------------------------
    Irrep   Nso     Nmo     Nalpha   Nbeta   Ndocc  Nsocc
   -------------------------------------------------------
     A        214     214       0       0       0       0
   -------------------------------------------------------
    Total     214     214      42      42      42       0
   -------------------------------------------------------

  ==> Integral Setup <==

  Using integral reordering PK algorithm.
  Sizing the integral batches needed.
  Building batch lookup table.
   Calculation information:
      Number of atoms:                  24
      Number of AO shells:             104
      Number of primitives:            318
      Number of atomic orbitals:       224
      Number of basis functions:       214

      Integral cutoff                 1.00e-12
      Number of threads:                 1

	Batch   1 pq = [       0,    9405] index = [             0,44231715] size =     44231715
	Batch   2 pq = [    9405,   13301] index = [      44231715,88464951] size =     44233236
	Batch   3 pq = [   13301,   16290] index = [      88464951,132690195] size =     44225244
	Batch   4 pq = [   16290,   18810] index = [     132690195,176917455] size =     44227260
	Batch   5 pq = [   18810,   21030] index = [     176917455,221140965] size =     44223510
	Batch   6 pq = [   21030,   23005] index = [     221140965,264626515] size =     43485550
  Task number: 24
  Buffer size: 11059200
  Buffer per thread: 2
  We computed 12411503 shell quartets total.
  Whereas there are 14908530 unique shell quartets.

  ==> DiskJK: Disk-Based J/K Matrices <==

    J tasked:                  Yes
    K tasked:                  Yes
    wK tasked:                  No
    Memory [MiB]:              375
    Schwarz Cutoff:          1E-12

    OpenMP threads:              1

  Minimum eigenvalue in the overlap matrix is 3.1289157980E-04.
  Using Symmetric Orthogonalization.

  SCF Guess: Superposition of Atomic Densities via on-the-fly atomic UHF.

  ==> Iterations <==

                        Total Energy        Delta E     RMS |[F,P]|

   @RHF iter SAD:  -745.35376199526524   -7.45354e+02   0.00000e+00
   @RHF iter   1:  -746.30904671434962   -9.55285e-01   2.47883e-03 DIIS
   @RHF iter   2:  -746.48892080208691   -1.79874e-01   9.58807e-04 DIIS
   @RHF iter   3:  -746.51268570359491   -2.37649e-02   2.42029e-04 DIIS
   @RHF iter   4:  -746.51515018141947   -2.46448e-03   4.93212e-05 DIIS
   @RHF iter   5:  -746.51523051833044   -8.03369e-05   1.51559e-05 DIIS
   @RHF iter   6:  -746.51523726426171   -6.74593e-06   4.40551e-06 DIIS
   @RHF iter   7:  -746.51523794780780   -6.83546e-07   1.30405e-06 DIIS
   @RHF iter   8:  -746.51523801315489   -6.53471e-08   3.28696e-07 DIIS
   @RHF iter   9:  -746.51523802139423   -8.23934e-09   1.17520e-07 DIIS
   @RHF iter  10:  -746.51523802269685   -1.30262e-09   5.16438e-08 DIIS
   @RHF iter  11:  -746.51523802302802   -3.31170e-10   2.29817e-08 DIIS
   @RHF iter  12:  -746.51523802310658   -7.85576e-11   8.92308e-09 DIIS
   @RHF iter  13:  -746.51523802312374   -1.71667e-11   3.03498e-09 DIIS
   @RHF iter  14:  -746.51523802312499   -1.25056e-12   1.09912e-09 DIIS
   @RHF iter  15:  -746.51523802312465    3.41061e-13   3.81383e-10 DIIS
   @RHF iter  16:  -746.51523802312158    3.06954e-12   1.62076e-10 DIIS
   @RHF iter  17:  -746.51523802312192   -3.41061e-13   7.62872e-11 DIIS
  Energy and wave function converged.

  ==> Post-Iterations <==

    Orbital Energies [Eh]
    ---------------------

    Doubly Occupied:

       1A    -91.936520     2A    -11.256969     3A    -11.250798
       4A    -11.240083     5A    -11.233672     6A    -11.232056
       7A    -11.229359     8A    -11.229258     9A    -11.228798
      10A    -11.228046    11A     -8.939912    12A     -6.621967
      13A     -6.620418    14A     -6.618215    15A     -1.148327
      16A     -1.057202    17A     -1.040642    18A     -1.007463
      19A     -0.949381    20A     -0.929204    21A     -0.822221
      22A     -0.806259    23A     -0.792343    24A     -0.687898
      25A     -0.628318    26A     -0.627037    27A     -0.604656
      28A     -0.593114    29A     -0.579317    30A     -0.573836
      31A     -0.567849    32A     -0.560813    33A     -0.559879
      34A     -0.535339    35A     -0.497049    36A     -0.483000
      37A     -0.481835    38A     -0.478667    39A     -0.425114
      40A     -0.332030    41A     -0.328019    42A     -0.320168

    Virtual:

      43A      0.135032    44A      0.143265    45A      0.177606
      46A      0.180947    47A      0.199208    48A      0.205321
      49A      0.224350    50A      0.231636    51A      0.240242
      52A      0.251780    53A      0.259146    54A      0.262573
      55A      0.264683    56A      0.269767    57A      0.289658
      58A      0.304079    59A      0.314338    60A      0.316881
      61A      0.366880    62A      0.378240    63A      0.452258
      64A      0.464688    65A      0.476228    66A      0.506141
      67A      0.526462    68A      0.565207    69A      0.569535
      70A      0.588752    71A      0.603074    72A      0.610679
      73A      0.631794    74A      0.637470    75A      0.678518
      76A      0.685549    77A      0.702972    78A      0.715104
      79A      0.729542    80A      0.732858    81A      0.738769
      82A      0.745531    83A      0.747400    84A      0.758722
      85A      0.764329    86A      0.774033    87A      0.790081
      88A      0.802717    89A      0.816042    90A      0.831683
      91A      0.840509    92A      0.853323    93A      0.863318
      94A      0.870263    95A      0.875735    96A      0.879442
      97A      0.885371    98A      0.895491    99A      0.897469
     100A      0.899458   101A      0.906686   102A      0.911596
     103A      0.920222   104A      0.929406   105A      0.943703
     106A      0.951369   107A      0.963876   108A      0.987938
     109A      1.000051   110A      1.010197   111A      1.023840
     112A      1.062996   113A      1.127580   114A      1.139356
     115A      1.153865   116A      1.159639   117A      1.180651
     118A      1.199210   119A      1.230163   120A      1.244531
     121A      1.257053   122A      1.264703   123A      1.267246
     124A      1.295986   125A      1.305016   126A      1.309395
     127A      1.319418   128A      1.325476   129A      1.343922
     130A      1.360957   131A      1.397776   132A      1.420587
     133A      1.461055   134A      1.515379   135A      1.528381
     136A      1.537224   137A      1.556696   138A      1.611028
     139A      1.673999   140A      1.677265   141A      1.683282
     142A      1.689661   143A      1.743602   144A      1.745854
     145A      1.766126   146A      1.795040   147A      1.817026
     148A      1.857169   149A      1.868135   150A      1.878896
     151A      1.889512   152A      1.898111   153A      1.898924
     154A      1.905570   155A      1.910366   156A      1.920684
     157A      1.928007   158A      1.935426   159A      1.945227
     160A      1.957615   161A      1.965257   162A      1.978573
     163A      1.984138   164A      1.995666   165A      2.009062
     166A      2.020465   167A      2.025482   168A      2.039650
     169A      2.055153   170A      2.075214   171A      2.084329
     172A      2.115320   173A      2.131729   174A      2.156063
     175A      2.167769   176A      2.182601   177A      2.199092
     178A      2.235518   179A      2.242187   180A      2.248888
     181A      2.270432   182A      2.287995   183A      2.308082
     184A      2.323809   185A      2.360136   186A      2.411039
     187A      2.423386   188A      2.431121   189A      2.445603
     190A      2.456996   191A      2.483303   192A      2.524370
     193A      2.531470   194A      2.628431   195A      2.723845
     196A      2.735219   197A      2.754824   198A      2.766353
     199A      2.772782   200A      2.777764   201A      2.786108
     202A      2.794209   203A      2.811372   204A      2.818285
     205A      2.843167   206A      2.855993   207A      2.873781
     208A      2.979740   209A      3.013453   210A      3.044357
     211A      3.158850   212A      3.196293   213A      3.299277
     214A      3.960097

    Final Occupation by Irrep:
              A
    DOCC [    42 ]

  @RHF Final Energy:  -746.51523802312192

   => Energetics <=

    Nuclear Repulsion Energy =            554.6597419070386650
    One-Electron Energy =               -2121.7838606232844541
    Two-Electron Energy =                 820.6088806931239787
    Total Energy =                       -746.5152380231219240

Computation Completed

Properties will be evaluated at   0.000000,   0.000000,   0.000000 [a0]

Properties computed using the SCF density matrix

  Nuclear Dipole Moment: [e a0]
     X:    -5.0894      Y:     3.1406      Z:     4.5446

  Electronic Dipole Moment: [e a0]
     X:     4.5492      Y:    -2.7496      Z:    -4.2679

  Dipole Moment: [e a0]
     X:    -0.5402      Y:     0.3910      Z:     0.2768     Total:     0.7220

  Dipole Moment: [D]
     X:    -1.3731      Y:     0.9939      Z:     0.7035     Total:     1.8352

*** tstop() called on ds3 at Tue Apr 28 12:54:06 2020
Module time:
	user time   =     101.80 seconds =       1.70 minutes
	system time =      39.99 seconds =       0.67 minutes
	total time  =        177 seconds =       2.95 minutes
Total time:
	user time   =     101.80 seconds =       1.70 minutes
	system time =      39.99 seconds =       0.67 minutes
	total time  =        177 seconds =       2.95 minutes
                                     G D M A

                                 by Anthony Stone

                           version 2.2.06, 22 June 2011

               Distributed Multipoles from Gaussian wavefunctions

Starting at 12:54:6 on 28 Apr 2020

Using SCF density matrix from file ./SSI/SSI-038MET-146PHE-1-dimer.test.15514.fchk

                         Distributed Multipole Analysis

Standard DMA

Positions and radii in angstrom
Multipole moments in atomic units, ea_0^k for rank k

C          x = -2.437295  y =  0.206675  z =  0.268972 angstrom
           Maximum rank =  0   Radius =  0.650 angstrom
                   Q00  =  -0.351910

C          x = -3.973295  y = -2.121325  z =  0.521972 angstrom
           Maximum rank =  0   Radius =  0.650 angstrom
                   Q00  =  -0.357575

S          x = -2.285295  y = -1.584325  z =  0.102972 angstrom
           Maximum rank =  0   Radius =  0.650 angstrom
                   Q00  =   0.090504

H          x = -2.827295  y =  0.456675  z =  1.255972 angstrom
           Maximum rank =  0   Radius =  0.325 angstrom
                   Q00  =   0.082627

H          x = -1.458295  y =  0.668675  z =  0.144972 angstrom
           Maximum rank =  0   Radius =  0.325 angstrom
                   Q00  =   0.136631

H          x = -3.110295  y =  0.602675  z = -0.486028 angstrom
           Maximum rank =  0   Radius =  0.325 angstrom
                   Q00  =   0.088693

H          x = -4.425295  y = -1.375325  z =  1.169972 angstrom
           Maximum rank =  0   Radius =  0.325 angstrom
                   Q00  =   0.097877

H          x = -3.891295  y = -3.047325  z =  1.089972 angstrom
           Maximum rank =  0   Radius =  0.325 angstrom
                   Q00  =   0.110604

H          x = -4.625985  y = -2.325245  z = -0.339658 angstrom
           Maximum rank =  0   Radius =  0.325 angstrom
                   Q00  =   0.098473

C          x =  2.001705  y =  1.851675  z =  2.072972 angstrom
           Maximum rank =  0   Radius =  0.650 angstrom
                   Q00  =  -0.205877

C          x =  1.082705  y = -0.495325  z = -0.797028 angstrom
           Maximum rank =  0   Radius =  0.650 angstrom
                   Q00  =  -0.080050

C          x =  1.165705  y =  0.070675  z =  0.478972 angstrom
           Maximum rank =  0   Radius =  0.650 angstrom
                   Q00  =  -0.063982

C          x =  1.741705  y =  0.102675  z = -1.869028 angstrom
           Maximum rank =  0   Radius =  0.650 angstrom
                   Q00  =  -0.078049

C          x =  1.907705  y =  1.234675  z =  0.692972 angstrom
           Maximum rank =  0   Radius =  0.650 angstrom
                   Q00  =  -0.102489

C          x =  2.483705  y =  1.263675  z = -1.664028 angstrom
           Maximum rank =  0   Radius =  0.650 angstrom
                   Q00  =  -0.077928

C          x =  2.566705  y =  1.822675  z = -0.387028 angstrom
           Maximum rank =  0   Radius =  0.650 angstrom
                   Q00  =  -0.012394

H          x =  0.505705  y = -1.396325  z = -0.953028 angstrom
           Maximum rank =  0   Radius =  0.325 angstrom
                   Q00  =   0.080425

H          x =  0.640705  y = -0.393325  z =  1.301972 angstrom
           Maximum rank =  0   Radius =  0.325 angstrom
                   Q00  =   0.058490

H          x =  1.669705  y = -0.325325  z = -2.859028 angstrom
           Maximum rank =  0   Radius =  0.325 angstrom
                   Q00  =   0.062635

H          x =  2.975705  y =  1.741675  z = -2.496028 angstrom
           Maximum rank =  0   Radius =  0.325 angstrom
                   Q00  =   0.064767

H          x =  0.994705  y =  2.025675  z =  2.445972 angstrom
           Maximum rank =  0   Radius =  0.325 angstrom
                   Q00  =   0.099387

H          x =  2.509705  y =  2.814675  z =  1.996972 angstrom
           Maximum rank =  0   Radius =  0.325 angstrom
                   Q00  =   0.096552

H          x =  3.145705  y =  2.721675  z = -0.233028 angstrom
           Maximum rank =  0   Radius =  0.325 angstrom
                   Q00  =   0.057772

H          x =  2.531975  y =  1.225835  z =  2.805872 angstrom
           Maximum rank =  0   Radius =  0.325 angstrom
                   Q00  =   0.104819

Total multipoles referred to origin at
           x =   0.000000,  y =    0.000000,  z =    0.000000 angstrom
                   Q00  =  -0.000000

Finished at 12:54:6 on 28 Apr 2020

  DMA results are available in the Python driver through the
	  variable('DMA DISTRIBUTED MULTIPOLES')
  and
	  variable('DMA TOTAL MULTIPOLES')
  commands.

    Psi4 stopped on: Tuesday, 28 April 2020 12:54PM
    Psi4 wall time for execution: 0:02:57.14

*** Psi4 exiting successfully. Buy a developer a beer!
