                               Psi4 1.3.2 release

  ==> Input File <==

--------------------------------------------------------------------------
import numpy as np
set {scf_type pk
basis cc-pvdz
d_convergence 10
gdma_switch   0
gdma_limit    0
gdma_origin   [ 0.0,  0.0,  0.0 ]
}
molecule test {
    units Angstrom
    0 1
    --
    0 1
    C               -2.091096742510332    -0.439070477993901     0.689866126650114
    C               -3.153096742510332    -0.962070477993901     1.656866126650114
    C               -0.696096742510331    -0.654070477993901     1.193866126650114
    C               -0.252096742510331     0.044929522006099     2.307866126650114
    C                0.147903257489669    -1.578070477993901     0.592866126650114
    C                1.023903257489668    -0.165070477993901     2.810866126650113
    C                1.427903257489669    -1.790070477993901     1.091866126650114
    C                1.867903257489668    -1.086070477993901     2.207866126650114
    H               -2.215096742510331    -0.927070477993901    -0.276133873349886
    H               -2.233096742510332     0.627929522006099     0.535866126650113
    H               -2.945096742510331    -0.511070477993901     2.624866126650113
    H               -0.898096742510331     0.765929522006099     2.788866126650114
    H               -0.184096742510331    -2.128070477993901    -0.274133873349886
    H                1.358903257489668     0.380929522006099     3.680866126650113
    H                2.038903257489668    -2.499070477993901     0.582866126650114
    H                2.862903257489669    -1.243070477993901     2.594866126650114
    H               -3.066383742510331    -2.054654477993901     1.750365126650114
    H               -4.163934242510331    -0.628023477993901     1.380063126650114
    C                1.668903257489668     1.766929522006099    -0.381133873349886
    C               -0.523096742510331     1.690929522006099    -1.765133873349886
    C                0.753903257489669     1.324929522006099    -1.483133873349886
    C                0.108903257489669     0.210929522006099    -3.263133873349887
    N               -0.898096742510331     0.983929522006099    -2.882133873349886
    N                1.132903257489668     0.397929522006099    -2.435133873349887
    H               -1.123096742510332     2.396929522006099    -1.212133873349886
    H               -1.828096742510331     0.978929522006099    -3.299133873349887
    H                1.948903257489669     0.883929522006099     0.188866126650114
    H                1.129903257489669     2.440929522006099     0.286866126650114
    H                0.092903257489669    -0.465070477993901    -4.111133873349887
    H                2.582468257489669     2.258295522006099    -0.747136453349887

}
e, wfn = energy('scf', return_wfn=True)
gdma(wfn)
dmavals = variable('DMA DISTRIBUTED MULTIPOLES')
charges = np.array(dmavals)
print(charges)
np.save('SSI-041PHE-054HIE-1-dimer.npy', np.array(charges))--------------------------------------------------------------------------

*** tstart() called on ds3
*** at Mon Apr 27 08:20:37 2020

   => Loading Basis Set <=

    Name: CC-PVDZ
    Role: ORBITAL
    Keyword: BASIS
    atoms 1-8, 19-22  entry C          line   138 file /theoryfs2/ds/metcalf/miniconda2/envs/tf2gpu/share/psi4/basis/cc-pvdz.gbs
    atoms 9-18, 25-30 entry H          line    22 file /theoryfs2/ds/metcalf/miniconda2/envs/tf2gpu/share/psi4/basis/cc-pvdz.gbs
    atoms 23-24       entry N          line   168 file /theoryfs2/ds/metcalf/miniconda2/envs/tf2gpu/share/psi4/basis/cc-pvdz.gbs

         ---------------------------------------------------------
                                   SCF
               by Justin Turney, Rob Parrish, Andy Simmonett
                          and Daniel G. A. Smith
                              RHF Reference
                        1 Threads,    500 MiB Core
         ---------------------------------------------------------

  ==> Geometry <==

    Molecular point group: c1
    Full point group: C1

    Geometry (in Angstrom), charge = 0, multiplicity = 1:

       Center              X                  Y                   Z               Mass
    ------------   -----------------  -----------------  -----------------  -----------------
         C           -2.091096742510    -0.439070477994     0.689866126650    12.000000000000
         C           -3.153096742510    -0.962070477994     1.656866126650    12.000000000000
         C           -0.696096742510    -0.654070477994     1.193866126650    12.000000000000
         C           -0.252096742510     0.044929522006     2.307866126650    12.000000000000
         C            0.147903257490    -1.578070477994     0.592866126650    12.000000000000
         C            1.023903257490    -0.165070477994     2.810866126650    12.000000000000
         C            1.427903257490    -1.790070477994     1.091866126650    12.000000000000
         C            1.867903257490    -1.086070477994     2.207866126650    12.000000000000
         H           -2.215096742510    -0.927070477994    -0.276133873350     1.007825032230
         H           -2.233096742510     0.627929522006     0.535866126650     1.007825032230
         H           -2.945096742510    -0.511070477994     2.624866126650     1.007825032230
         H           -0.898096742510     0.765929522006     2.788866126650     1.007825032230
         H           -0.184096742510    -2.128070477994    -0.274133873350     1.007825032230
         H            1.358903257490     0.380929522006     3.680866126650     1.007825032230
         H            2.038903257490    -2.499070477994     0.582866126650     1.007825032230
         H            2.862903257490    -1.243070477994     2.594866126650     1.007825032230
         H           -3.066383742510    -2.054654477994     1.750365126650     1.007825032230
         H           -4.163934242510    -0.628023477994     1.380063126650     1.007825032230
         C            1.668903257490     1.766929522006    -0.381133873350    12.000000000000
         C           -0.523096742510     1.690929522006    -1.765133873350    12.000000000000
         C            0.753903257490     1.324929522006    -1.483133873350    12.000000000000
         C            0.108903257490     0.210929522006    -3.263133873350    12.000000000000
         N           -0.898096742510     0.983929522006    -2.882133873350    14.003074004430
         N            1.132903257490     0.397929522006    -2.435133873350    14.003074004430
         H           -1.123096742510     2.396929522006    -1.212133873350     1.007825032230
         H           -1.828096742510     0.978929522006    -3.299133873350     1.007825032230
         H            1.948903257490     0.883929522006     0.188866126650     1.007825032230
         H            1.129903257490     2.440929522006     0.286866126650     1.007825032230
         H            0.092903257490    -0.465070477994    -4.111133873350     1.007825032230
         H            2.582468257490     2.258295522006    -0.747136453350     1.007825032230

  Running in c1 symmetry.

  Rotational constants: A =      0.03011  B =      0.01681  C =      0.01337 [cm^-1]
  Rotational constants: A =    902.80295  B =    503.95733  C =    400.71609 [MHz]
  Nuclear repulsion =  858.416427677433148

  Charge       = 0
  Multiplicity = 1
  Electrons    = 102
  Nalpha       = 51
  Nbeta        = 51

  ==> Algorithm <==

  SCF Algorithm Type is PK.
  DIIS enabled.
  MOM disabled.
  Fractional occupation disabled.
  Guess Type is SAD.
  Energy threshold   = 1.00e-06
  Density threshold  = 1.00e-10
  Integral threshold = 0.00e+00

  ==> Primary Basis <==

  Basis Set: CC-PVDZ
    Blend: CC-PVDZ
    Number of shells: 132
    Number of basis function: 276
    Number of Cartesian functions: 290
    Spherical Harmonics?: true
    Max angular momentum: 2

  ==> Pre-Iterations <==

   -------------------------------------------------------
    Irrep   Nso     Nmo     Nalpha   Nbeta   Ndocc  Nsocc
   -------------------------------------------------------
     A        276     276       0       0       0       0
   -------------------------------------------------------
    Total     276     276      51      51      51       0
   -------------------------------------------------------

  ==> Integral Setup <==

  Using integral reordering PK algorithm.
  Sizing the integral batches needed.
  Building batch lookup table.
   Calculation information:
      Number of atoms:                  30
      Number of AO shells:             132
      Number of primitives:            388
      Number of atomic orbitals:       290
      Number of basis functions:       276

      Integral cutoff                 1.00e-12
      Number of threads:                 1

	Batch   1 pq = [       0,    9405] index = [             0,44231715] size =     44231715
	Batch   2 pq = [    9405,   13301] index = [      44231715,88464951] size =     44233236
	Batch   3 pq = [   13301,   16290] index = [      88464951,132690195] size =     44225244
	Batch   4 pq = [   16290,   18810] index = [     132690195,176917455] size =     44227260
	Batch   5 pq = [   18810,   21030] index = [     176917455,221140965] size =     44223510
	Batch   6 pq = [   21030,   23037] index = [     221140965,265363203] size =     44222238
	Batch   7 pq = [   23037,   24883] index = [     265363203,309594286] size =     44231083
	Batch   8 pq = [   24883,   26601] index = [     309594286,353819901] size =     44225615
	Batch   9 pq = [   26601,   28214] index = [     353819901,398029005] size =     44209104
	Batch  10 pq = [   28214,   29740] index = [     398029005,442248670] size =     44219665
	Batch  11 pq = [   29740,   31191] index = [     442248670,486454836] size =     44206166
	Batch  12 pq = [   31191,   32578] index = [     486454836,530679331] size =     44224495
	Batch  13 pq = [   32578,   33908] index = [     530679331,574893186] size =     44213855
	Batch  14 pq = [   33908,   35188] index = [     574893186,619115266] size =     44222080
	Batch  15 pq = [   35188,   36423] index = [     619115266,663335676] size =     44220410
	Batch  16 pq = [   36423,   37617] index = [     663335676,707538153] size =     44202477
	Batch  17 pq = [   37617,   38226] index = [     707538153,730632651] size =     23094498
  Task number: 67
  Buffer size: 11059200
  Buffer per thread: 2
  We computed 47293308 shell quartets total.
  Whereas there are 38531031 unique shell quartets.
    22.74 percent of shell quartets recomputed by reordering.

  ==> DiskJK: Disk-Based J/K Matrices <==

    J tasked:                  Yes
    K tasked:                  Yes
    wK tasked:                  No
    Memory [MiB]:              375
    Schwarz Cutoff:          1E-12

    OpenMP threads:              1

  Minimum eigenvalue in the overlap matrix is 3.0178140259E-04.
  Using Symmetric Orthogonalization.

  SCF Guess: Superposition of Atomic Densities via on-the-fly atomic UHF.

  ==> Iterations <==

                        Total Energy        Delta E     RMS |[F,P]|

   @RHF iter SAD:  -571.85128248887918   -5.71851e+02   0.00000e+00
   @RHF iter   1:  -572.34971964868498   -4.98437e-01   2.47205e-03 DIIS
   @RHF iter   2:  -572.60343344352998   -2.53714e-01   1.22734e-03 DIIS
   @RHF iter   3:  -572.65895799969394   -5.55246e-02   3.31528e-04 DIIS
   @RHF iter   4:  -572.66406698879803   -5.10899e-03   1.34921e-04 DIIS
   @RHF iter   5:  -572.66483226770106   -7.65279e-04   1.88568e-05 DIIS
   @RHF iter   6:  -572.66485854599341   -2.62783e-05   8.20590e-06 DIIS
   @RHF iter   7:  -572.66486272145971   -4.17547e-06   2.76254e-06 DIIS
   @RHF iter   8:  -572.66486354771769   -8.26258e-07   1.26177e-06 DIIS
   @RHF iter   9:  -572.66486374061844   -1.92901e-07   5.28465e-07 DIIS
   @RHF iter  10:  -572.66486377520755   -3.45891e-08   1.65360e-07 DIIS
   @RHF iter  11:  -572.66486377910405   -3.89650e-09   6.35163e-08 DIIS
   @RHF iter  12:  -572.66486377961030   -5.06247e-10   2.83400e-08 DIIS
   @RHF iter  13:  -572.66486377970239   -9.20863e-11   9.55598e-09 DIIS
   @RHF iter  14:  -572.66486377971216   -9.77707e-12   4.05948e-09 DIIS
   @RHF iter  15:  -572.66486377971364   -1.47793e-12   1.53801e-09 DIIS
   @RHF iter  16:  -572.66486377971546   -1.81899e-12   7.09005e-10 DIIS
   @RHF iter  17:  -572.66486377970944    6.02540e-12   3.15934e-10 DIIS
   @RHF iter  18:  -572.66486377971455   -5.11591e-12   1.06633e-10 DIIS
   @RHF iter  19:  -572.66486377971410    4.54747e-13   5.36038e-11 DIIS
  Energy and wave function converged.

  ==> Post-Iterations <==

    Orbital Energies [Eh]
    ---------------------

    Doubly Occupied:

       1A    -15.617519     2A    -15.523476     3A    -11.289197
       4A    -11.243901     5A    -11.235373     6A    -11.230708
       7A    -11.230075     8A    -11.227194     9A    -11.225760
      10A    -11.225003    11A    -11.224831    12A    -11.222501
      13A    -11.221788    14A    -11.211023    15A     -1.338199
      16A     -1.152661    17A     -1.147971    18A     -1.062284
      19A     -1.024477    20A     -1.008632    21A     -0.978422
      22A     -0.932882    23A     -0.860399    24A     -0.820485
      25A     -0.812702    26A     -0.783805    27A     -0.757555
      28A     -0.735496    29A     -0.688591    30A     -0.637473
      31A     -0.629912    32A     -0.604834    33A     -0.599838
      34A     -0.594120    35A     -0.590457    36A     -0.584924
      37A     -0.571827    38A     -0.546205    39A     -0.537087
      40A     -0.531587    41A     -0.513114    42A     -0.513071
      43A     -0.497398    44A     -0.474994    45A     -0.471836
      46A     -0.465833    47A     -0.406316    48A     -0.373307
      49A     -0.326941    50A     -0.320272    51A     -0.301939

    Virtual:

      52A      0.137939    53A      0.146447    54A      0.168370
      55A      0.182981    56A      0.194179    57A      0.202345
      58A      0.207350    59A      0.221398    60A      0.226425
      61A      0.231613    62A      0.243617    63A      0.249907
      64A      0.253884    65A      0.263526    66A      0.267205
      67A      0.285363    68A      0.301638    69A      0.308453
      70A      0.327313    71A      0.336455    72A      0.353550
      73A      0.378754    74A      0.395743    75A      0.398950
      76A      0.405025    77A      0.429384    78A      0.457113
      79A      0.471627    80A      0.479757    81A      0.494085
      82A      0.498078    83A      0.508265    84A      0.569297
      85A      0.581362    86A      0.598673    87A      0.607442
      88A      0.616686    89A      0.623013    90A      0.632737
      91A      0.653227    92A      0.666183    93A      0.687890
      94A      0.695793    95A      0.708497    96A      0.718910
      97A      0.729942    98A      0.740797    99A      0.745551
     100A      0.749923   101A      0.757613   102A      0.770806
     103A      0.778166   104A      0.789134   105A      0.792974
     106A      0.811343   107A      0.817560   108A      0.834904
     109A      0.840152   110A      0.847894   111A      0.863034
     112A      0.877755   113A      0.882374   114A      0.891120
     115A      0.896223   116A      0.899937   117A      0.908564
     118A      0.910569   119A      0.918684   120A      0.926747
     121A      0.933353   122A      0.938209   123A      0.949941
     124A      0.958157   125A      0.969039   126A      0.975632
     127A      0.985289   128A      0.989375   129A      1.010874
     130A      1.012237   131A      1.042316   132A      1.048377
     133A      1.064900   134A      1.077655   135A      1.101243
     136A      1.108428   137A      1.119109   138A      1.126522
     139A      1.136276   140A      1.153852   141A      1.157781
     142A      1.162061   143A      1.175025   144A      1.198932
     145A      1.202115   146A      1.233908   147A      1.251332
     148A      1.261904   149A      1.265415   150A      1.280222
     151A      1.305798   152A      1.311249   153A      1.322611
     154A      1.324115   155A      1.325658   156A      1.335097
     157A      1.348512   158A      1.363973   159A      1.406698
     160A      1.429050   161A      1.441329   162A      1.453911
     163A      1.459523   164A      1.498469   165A      1.517118
     166A      1.531282   167A      1.552899   168A      1.579850
     169A      1.610301   170A      1.619575   171A      1.622981
     172A      1.669498   173A      1.678700   174A      1.689368
     175A      1.691077   176A      1.721427   177A      1.749085
     178A      1.763821   179A      1.775491   180A      1.777033
     181A      1.788816   182A      1.825804   183A      1.829388
     184A      1.845823   185A      1.861516   186A      1.875020
     187A      1.881747   188A      1.890005   189A      1.899766
     190A      1.913524   191A      1.925250   192A      1.927682
     193A      1.936869   194A      1.943935   195A      1.947433
     196A      1.954942   197A      1.960363   198A      1.967966
     199A      1.974782   200A      1.982893   201A      1.985655
     202A      1.994120   203A      2.007286   204A      2.023548
     205A      2.028940   206A      2.034416   207A      2.041010
     208A      2.065145   209A      2.081881   210A      2.093243
     211A      2.114649   212A      2.120859   213A      2.122889
     214A      2.134762   215A      2.139291   216A      2.164175
     217A      2.170879   218A      2.183453   219A      2.185851
     220A      2.202037   221A      2.204003   222A      2.233046
     223A      2.241812   224A      2.255093   225A      2.263892
     226A      2.284056   227A      2.314309   228A      2.332988
     229A      2.336583   230A      2.360498   231A      2.376325
     232A      2.402973   233A      2.432530   234A      2.457964
     235A      2.462179   236A      2.466600   237A      2.496159
     238A      2.499566   239A      2.512156   240A      2.542315
     241A      2.551632   242A      2.562985   243A      2.607502
     244A      2.619198   245A      2.649691   246A      2.704207
     247A      2.750358   248A      2.754620   249A      2.769429
     250A      2.772685   251A      2.785384   252A      2.794623
     253A      2.806472   254A      2.820708   255A      2.828735
     256A      2.839316   257A      2.850428   258A      2.872934
     259A      2.887405   260A      2.912171   261A      2.913472
     262A      2.922429   263A      2.974926   264A      2.975732
     265A      3.025644   266A      3.049077   267A      3.075173
     268A      3.086742   269A      3.173126   270A      3.198384
     271A      3.231903   272A      3.250581   273A      3.325967
     274A      3.484894   275A      3.804876   276A      4.000657

    Final Occupation by Irrep:
              A
    DOCC [    51 ]

  @RHF Final Energy:  -572.66486377971410

   => Energetics <=

    Nuclear Repulsion Energy =            858.4164276774331483
    One-Electron Energy =               -2479.9101905668053405
    Two-Electron Energy =                1048.8288991096580958
    Total Energy =                       -572.6648637797140964

Computation Completed

Properties will be evaluated at   0.000000,   0.000000,   0.000000 [a0]

Properties computed using the SCF density matrix

  Nuclear Dipole Moment: [e a0]
     X:    -6.2275      Y:     0.2563      Z:     6.1039

  Electronic Dipole Moment: [e a0]
     X:     4.9075      Y:    -0.0188      Z:    -6.4191

  Dipole Moment: [e a0]
     X:    -1.3200      Y:     0.2375      Z:    -0.3152     Total:     1.3777

  Dipole Moment: [D]
     X:    -3.3550      Y:     0.6037      Z:    -0.8011     Total:     3.5018

*** tstop() called on ds3 at Mon Apr 27 08:41:05 2020
Module time:
	user time   =     383.39 seconds =       6.39 minutes
	system time =     129.48 seconds =       2.16 minutes
	total time  =       1228 seconds =      20.47 minutes
Total time:
	user time   =     383.39 seconds =       6.39 minutes
	system time =     129.48 seconds =       2.16 minutes
	total time  =       1228 seconds =      20.47 minutes
                                     G D M A

                                 by Anthony Stone

                           version 2.2.06, 22 June 2011

               Distributed Multipoles from Gaussian wavefunctions

Starting at 8:41:5 on 27 Apr 2020

Using SCF density matrix from file ./SSI/SSI-041PHE-054HIE-1-dimer.test.842.fchk

                         Distributed Multipole Analysis

Standard DMA

Positions and radii in angstrom
Multipole moments in atomic units, ea_0^k for rank k

C          x = -2.091097  y = -0.439070  z =  0.689866 angstrom
           Maximum rank =  0   Radius =  0.650 angstrom
                   Q00  =  -0.044076

C          x = -3.153097  y = -0.962070  z =  1.656866 angstrom
           Maximum rank =  0   Radius =  0.650 angstrom
                   Q00  =  -0.233170

C          x = -0.696097  y = -0.654070  z =  1.193866 angstrom
           Maximum rank =  0   Radius =  0.650 angstrom
                   Q00  =  -0.085071

C          x = -0.252097  y =  0.044930  z =  2.307866 angstrom
           Maximum rank =  0   Radius =  0.650 angstrom
                   Q00  =  -0.028772

C          x =  0.147903  y = -1.578070  z =  0.592866 angstrom
           Maximum rank =  0   Radius =  0.650 angstrom
                   Q00  =  -0.027119

C          x =  1.023903  y = -0.165070  z =  2.810866 angstrom
           Maximum rank =  0   Radius =  0.650 angstrom
                   Q00  =  -0.076318

C          x =  1.427903  y = -1.790070  z =  1.091866 angstrom
           Maximum rank =  0   Radius =  0.650 angstrom
                   Q00  =  -0.075592

C          x =  1.867903  y = -1.086070  z =  2.207866 angstrom
           Maximum rank =  0   Radius =  0.650 angstrom
                   Q00  =  -0.093438

H          x = -2.215097  y = -0.927070  z = -0.276134 angstrom
           Maximum rank =  0   Radius =  0.325 angstrom
                   Q00  =   0.058996

H          x = -2.233097  y =  0.627930  z =  0.535866 angstrom
           Maximum rank =  0   Radius =  0.325 angstrom
                   Q00  =   0.062516

H          x = -2.945097  y = -0.511070  z =  2.624866 angstrom
           Maximum rank =  0   Radius =  0.325 angstrom
                   Q00  =   0.078523

H          x = -0.898097  y =  0.765930  z =  2.788866 angstrom
           Maximum rank =  0   Radius =  0.325 angstrom
                   Q00  =   0.051508

H          x = -0.184097  y = -2.128070  z = -0.274134 angstrom
           Maximum rank =  0   Radius =  0.325 angstrom
                   Q00  =   0.057958

H          x =  1.358903  y =  0.380930  z =  3.680866 angstrom
           Maximum rank =  0   Radius =  0.325 angstrom
                   Q00  =   0.061546

H          x =  2.038903  y = -2.499070  z =  0.582866 angstrom
           Maximum rank =  0   Radius =  0.325 angstrom
                   Q00  =   0.067425

H          x =  2.862903  y = -1.243070  z =  2.594866 angstrom
           Maximum rank =  0   Radius =  0.325 angstrom
                   Q00  =   0.060287

H          x = -3.066384  y = -2.054654  z =  1.750365 angstrom
           Maximum rank =  0   Radius =  0.325 angstrom
                   Q00  =   0.085570

H          x = -4.163934  y = -0.628023  z =  1.380063 angstrom
           Maximum rank =  0   Radius =  0.325 angstrom
                   Q00  =   0.080891

C          x =  1.668903  y =  1.766930  z = -0.381134 angstrom
           Maximum rank =  0   Radius =  0.650 angstrom
                   Q00  =  -0.195563

C          x = -0.523097  y =  1.690930  z = -1.765134 angstrom
           Maximum rank =  0   Radius =  0.650 angstrom
                   Q00  =  -0.009414

C          x =  0.753903  y =  1.324930  z = -1.483134 angstrom
           Maximum rank =  0   Radius =  0.650 angstrom
                   Q00  =   0.233593

C          x =  0.108903  y =  0.210930  z = -3.263134 angstrom
           Maximum rank =  0   Radius =  0.650 angstrom
                   Q00  =   0.456356

N          x = -0.898097  y =  0.983930  z = -2.882134 angstrom
           Maximum rank =  0   Radius =  0.650 angstrom
                   Q00  =  -0.477481

N          x =  1.132903  y =  0.397930  z = -2.435134 angstrom
           Maximum rank =  0   Radius =  0.650 angstrom
                   Q00  =  -0.766977

H          x = -1.123097  y =  2.396930  z = -1.212134 angstrom
           Maximum rank =  0   Radius =  0.325 angstrom
                   Q00  =   0.099964

H          x = -1.828097  y =  0.978930  z = -3.299134 angstrom
           Maximum rank =  0   Radius =  0.325 angstrom
                   Q00  =   0.217085

H          x =  1.948903  y =  0.883930  z =  0.188866 angstrom
           Maximum rank =  0   Radius =  0.325 angstrom
                   Q00  =   0.128721

H          x =  1.129903  y =  2.440930  z =  0.286866 angstrom
           Maximum rank =  0   Radius =  0.325 angstrom
                   Q00  =   0.087180

H          x =  0.092903  y = -0.465070  z = -4.111134 angstrom
           Maximum rank =  0   Radius =  0.325 angstrom
                   Q00  =   0.120796

H          x =  2.582468  y =  2.258296  z = -0.747136 angstrom
           Maximum rank =  0   Radius =  0.325 angstrom
                   Q00  =   0.104076

Total multipoles referred to origin at
           x =   0.000000,  y =    0.000000,  z =    0.000000 angstrom
                   Q00  =  -0.000000

Finished at 8:41:5 on 27 Apr 2020

  DMA results are available in the Python driver through the
	  variable('DMA DISTRIBUTED MULTIPOLES')
  and
	  variable('DMA TOTAL MULTIPOLES')
  commands.

    Psi4 stopped on: Monday, 27 April 2020 08:41AM
    Psi4 wall time for execution: 0:20:28.04

*** Psi4 exiting successfully. Buy a developer a beer!
