                               Psi4 1.3.2 release

  ==> Input File <==

--------------------------------------------------------------------------
import numpy as np
set {scf_type pk
basis cc-pvdz
d_convergence 10
gdma_switch   0
gdma_limit    0
gdma_origin   [ 0.0,  0.0,  0.0 ]
}
molecule test {
    units Angstrom
    0 1
    --
    0 1
    C               -2.792219526646021     1.099692049223043     1.523511249256260
    C               -2.853219526646021     0.179692049223043     2.733511249256261
    H               -3.023219526646021     2.124692049223043     1.800511249256260
    H               -1.771219526646021     1.087692049223043     1.151511249256260
    H               -3.478219526646021     0.775692049223043     0.753511249256260
    H               -2.172219526646021     0.562692049223043     3.490511249256260
    H               -3.867099526646022     0.150932049223043     3.159201249256260
    H               -2.516609526646021    -0.833017950776957     2.466821249256260
    C               -0.910219526646021     0.496692049223043    -1.485488750743740
    C               -0.591219526646021     1.017692049223043    -2.892488750743740
    C                0.278780473353979    -0.036307950776957    -0.729488750743740
    C                1.256780473353979     0.827692049223043    -0.249488750743740
    C                0.391780473353979    -1.398307950776957    -0.471488750743740
    C                2.343780473353979     0.332692049223043     0.460511249256260
    C                1.475780473353979    -1.897307950776957     0.240511249256260
    C                2.453780473353979    -1.030307950776957     0.709511249256260
    H               -1.315219526646021     1.339692049223043    -0.929488750743740
    H               -1.675219526646021    -0.270307950776957    -1.515488750743740
    H                0.165780473353979     1.793692049223043    -2.812488750743740
    H                1.176780473353979     1.889692049223043    -0.435488750743740
    H               -0.379219526646021    -2.058307950776956    -0.826488750743740
    H                3.116780473353979     1.007692049223043     0.790511249256260
    H                1.557780473353979    -2.959307950776957     0.434511249256260
    H                3.301780473353979    -1.416307950776957     1.258511249256260
    H               -1.509559526646021     1.428532049223043    -3.337308750743740
    H               -0.158569526646021     0.235182049223043    -3.533188750743740

}
e, wfn = energy('scf', return_wfn=True)
gdma(wfn)
dmavals = variable('DMA DISTRIBUTED MULTIPOLES')
charges = np.array(dmavals)
print(charges)
np.save('SSI-085LEU-094PHE-1-dimer.npy', np.array(charges))--------------------------------------------------------------------------

*** tstart() called on ds3
*** at Tue Apr 28 10:13:17 2020

   => Loading Basis Set <=

    Name: CC-PVDZ
    Role: ORBITAL
    Keyword: BASIS
    atoms 1-2, 9-16  entry C          line   138 file /theoryfs2/ds/metcalf/miniconda2/envs/tf2gpu/share/psi4/basis/cc-pvdz.gbs
    atoms 3-8, 17-26 entry H          line    22 file /theoryfs2/ds/metcalf/miniconda2/envs/tf2gpu/share/psi4/basis/cc-pvdz.gbs

         ---------------------------------------------------------
                                   SCF
               by Justin Turney, Rob Parrish, Andy Simmonett
                          and Daniel G. A. Smith
                              RHF Reference
                        1 Threads,    500 MiB Core
         ---------------------------------------------------------

  ==> Geometry <==

    Molecular point group: c1
    Full point group: C1

    Geometry (in Angstrom), charge = 0, multiplicity = 1:

       Center              X                  Y                   Z               Mass
    ------------   -----------------  -----------------  -----------------  -----------------
         C           -2.792219526646     1.099692049223     1.523511249256    12.000000000000
         C           -2.853219526646     0.179692049223     2.733511249256    12.000000000000
         H           -3.023219526646     2.124692049223     1.800511249256     1.007825032230
         H           -1.771219526646     1.087692049223     1.151511249256     1.007825032230
         H           -3.478219526646     0.775692049223     0.753511249256     1.007825032230
         H           -2.172219526646     0.562692049223     3.490511249256     1.007825032230
         H           -3.867099526646     0.150932049223     3.159201249256     1.007825032230
         H           -2.516609526646    -0.833017950777     2.466821249256     1.007825032230
         C           -0.910219526646     0.496692049223    -1.485488750744    12.000000000000
         C           -0.591219526646     1.017692049223    -2.892488750744    12.000000000000
         C            0.278780473354    -0.036307950777    -0.729488750744    12.000000000000
         C            1.256780473354     0.827692049223    -0.249488750744    12.000000000000
         C            0.391780473354    -1.398307950777    -0.471488750744    12.000000000000
         C            2.343780473354     0.332692049223     0.460511249256    12.000000000000
         C            1.475780473354    -1.897307950777     0.240511249256    12.000000000000
         C            2.453780473354    -1.030307950777     0.709511249256    12.000000000000
         H           -1.315219526646     1.339692049223    -0.929488750744     1.007825032230
         H           -1.675219526646    -0.270307950777    -1.515488750744     1.007825032230
         H            0.165780473354     1.793692049223    -2.812488750744     1.007825032230
         H            1.176780473354     1.889692049223    -0.435488750744     1.007825032230
         H           -0.379219526646    -2.058307950777    -0.826488750744     1.007825032230
         H            3.116780473354     1.007692049223     0.790511249256     1.007825032230
         H            1.557780473354    -2.959307950777     0.434511249256     1.007825032230
         H            3.301780473354    -1.416307950777     1.258511249256     1.007825032230
         H           -1.509559526646     1.428532049223    -3.337308750744     1.007825032230
         H           -0.158569526646     0.235182049223    -3.533188750744     1.007825032230

  Running in c1 symmetry.

  Rotational constants: A =      0.04070  B =      0.02616  C =      0.01944 [cm^-1]
  Rotational constants: A =   1220.18617  B =    784.27352  C =    582.77760 [MHz]
  Nuclear repulsion =  495.118109711636009

  Charge       = 0
  Multiplicity = 1
  Electrons    = 76
  Nalpha       = 38
  Nbeta        = 38

  ==> Algorithm <==

  SCF Algorithm Type is PK.
  DIIS enabled.
  MOM disabled.
  Fractional occupation disabled.
  Guess Type is SAD.
  Energy threshold   = 1.00e-06
  Density threshold  = 1.00e-10
  Integral threshold = 0.00e+00

  ==> Primary Basis <==

  Basis Set: CC-PVDZ
    Blend: CC-PVDZ
    Number of shells: 108
    Number of basis function: 220
    Number of Cartesian functions: 230
    Spherical Harmonics?: true
    Max angular momentum: 2

  ==> Pre-Iterations <==

   -------------------------------------------------------
    Irrep   Nso     Nmo     Nalpha   Nbeta   Ndocc  Nsocc
   -------------------------------------------------------
     A        220     220       0       0       0       0
   -------------------------------------------------------
    Total     220     220      38      38      38       0
   -------------------------------------------------------

  ==> Integral Setup <==

  Using integral reordering PK algorithm.
  Sizing the integral batches needed.
  Building batch lookup table.
   Calculation information:
      Number of atoms:                  26
      Number of AO shells:             108
      Number of primitives:            300
      Number of atomic orbitals:       230
      Number of basis functions:       220

      Integral cutoff                 1.00e-12
      Number of threads:                 1

	Batch   1 pq = [       0,    9405] index = [             0,44231715] size =     44231715
	Batch   2 pq = [    9405,   13301] index = [      44231715,88464951] size =     44233236
	Batch   3 pq = [   13301,   16290] index = [      88464951,132690195] size =     44225244
	Batch   4 pq = [   16290,   18810] index = [     132690195,176917455] size =     44227260
	Batch   5 pq = [   18810,   21030] index = [     176917455,221140965] size =     44223510
	Batch   6 pq = [   21030,   23037] index = [     221140965,265363203] size =     44222238
	Batch   7 pq = [   23037,   24310] index = [     265363203,295500205] size =     30137002
  Task number: 27
  Buffer size: 11059200
  Buffer per thread: 2
  We computed 15981617 shell quartets total.
  Whereas there are 17325441 unique shell quartets.

  ==> DiskJK: Disk-Based J/K Matrices <==

    J tasked:                  Yes
    K tasked:                  Yes
    wK tasked:                  No
    Memory [MiB]:              375
    Schwarz Cutoff:          1E-12

    OpenMP threads:              1

  Minimum eigenvalue in the overlap matrix is 3.0454885550E-04.
  Using Symmetric Orthogonalization.

  SCF Guess: Superposition of Atomic Densities via on-the-fly atomic UHF.

  ==> Iterations <==

                        Total Energy        Delta E     RMS |[F,P]|

   @RHF iter SAD:  -386.94557033696094   -3.86946e+02   0.00000e+00
   @RHF iter   1:  -387.77524605796356   -8.29676e-01   2.73513e-03 DIIS
   @RHF iter   2:  -387.99104622607143   -2.15800e-01   1.13815e-03 DIIS
   @RHF iter   3:  -388.02529077002964   -3.42445e-02   2.48147e-04 DIIS
   @RHF iter   4:  -388.02814047614800   -2.84971e-03   5.64373e-05 DIIS
   @RHF iter   5:  -388.02823784022013   -9.73641e-05   2.10182e-05 DIIS
   @RHF iter   6:  -388.02825178104371   -1.39408e-05   4.07210e-06 DIIS
   @RHF iter   7:  -388.02825247158546   -6.90542e-07   1.19939e-06 DIIS
   @RHF iter   8:  -388.02825253351227   -6.19268e-08   3.38903e-07 DIIS
   @RHF iter   9:  -388.02825254409544   -1.05832e-08   1.50414e-07 DIIS
   @RHF iter  10:  -388.02825254710444   -3.00901e-09   7.91025e-08 DIIS
   @RHF iter  11:  -388.02825254798199   -8.77549e-10   2.44878e-08 DIIS
   @RHF iter  12:  -388.02825254805367   -7.16796e-11   9.51451e-09 DIIS
   @RHF iter  13:  -388.02825254805873   -5.05906e-12   4.12179e-09 DIIS
   @RHF iter  14:  -388.02825254805987   -1.13687e-12   1.04428e-09 DIIS
   @RHF iter  15:  -388.02825254806055   -6.82121e-13   4.19666e-10 DIIS
   @RHF iter  16:  -388.02825254806015    3.97904e-13   1.63898e-10 DIIS
   @RHF iter  17:  -388.02825254805845    1.70530e-12   7.25450e-11 DIIS
  Energy and wave function converged.

  ==> Post-Iterations <==

    Orbital Energies [Eh]
    ---------------------

    Doubly Occupied:

       1A    -11.236536     2A    -11.235276     3A    -11.235083
       4A    -11.231109     5A    -11.230216     6A    -11.229360
       7A    -11.226669     8A    -11.223221     9A    -11.214081
      10A    -11.210227    11A     -1.155965    12A     -1.063079
      13A     -1.016771    14A     -1.013106    15A     -0.982173
      16A     -0.863272    17A     -0.833767    18A     -0.826347
      19A     -0.785994    20A     -0.692601    21A     -0.640508
      22A     -0.633874    23A     -0.598544    24A     -0.595403
      25A     -0.590605    26A     -0.587024    27A     -0.576387
      28A     -0.540760    29A     -0.522676    30A     -0.500768
      31A     -0.497974    32A     -0.484786    33A     -0.483220
      34A     -0.479001    35A     -0.472506    36A     -0.466735
      37A     -0.333117    38A     -0.322404

    Virtual:

      39A      0.134988    40A      0.140144    41A      0.176521
      42A      0.193359    43A      0.202210    44A      0.211408
      45A      0.230484    46A      0.238242    47A      0.242074
      48A      0.258657    49A      0.260603    50A      0.263311
      51A      0.280113    52A      0.282340    53A      0.292171
      54A      0.306964    55A      0.310575    56A      0.315778
      57A      0.350278    58A      0.389959    59A      0.406790
      60A      0.420280    61A      0.452103    62A      0.469855
      63A      0.495195    64A      0.496962    65A      0.570114
      66A      0.583330    67A      0.601715    68A      0.603272
      69A      0.607524    70A      0.618412    71A      0.637903
      72A      0.652985    73A      0.682494    74A      0.686044
      75A      0.697156    76A      0.717694    77A      0.734763
      78A      0.740211    79A      0.745527    80A      0.746248
      81A      0.760769    82A      0.767613    83A      0.775543
      84A      0.791494    85A      0.823493    86A      0.844458
      87A      0.861958    88A      0.867538    89A      0.877244
      90A      0.884758    91A      0.889431    92A      0.895531
      93A      0.897953    94A      0.903152    95A      0.905910
      96A      0.911084    97A      0.916809    98A      0.927750
      99A      0.939003   100A      0.945014   101A      0.954843
     102A      0.956735   103A      0.982559   104A      0.997360
     105A      1.000048   106A      1.024150   107A      1.068495
     108A      1.074917   109A      1.120683   110A      1.127777
     111A      1.144737   112A      1.146384   113A      1.153807
     114A      1.168096   115A      1.189552   116A      1.224329
     117A      1.244974   118A      1.247084   119A      1.253258
     120A      1.279640   121A      1.298684   122A      1.306937
     123A      1.313532   124A      1.326565   125A      1.395378
     126A      1.423364   127A      1.446837   128A      1.480613
     129A      1.487486   130A      1.508558   131A      1.529830
     132A      1.577592   133A      1.595756   134A      1.629962
     135A      1.679357   136A      1.683883   137A      1.688731
     138A      1.707170   139A      1.728168   140A      1.745194
     141A      1.763110   142A      1.770892   143A      1.836781
     144A      1.853624   145A      1.867784   146A      1.869448
     147A      1.877271   148A      1.890006   149A      1.894797
     150A      1.898588   151A      1.911105   152A      1.923051
     153A      1.931926   154A      1.932644   155A      1.942147
     156A      1.951275   157A      1.955677   158A      1.959353
     159A      1.962606   160A      1.966158   161A      1.968923
     162A      1.983242   163A      1.992129   164A      2.006038
     165A      2.024327   166A      2.028705   167A      2.046058
     168A      2.048707   169A      2.077720   170A      2.095942
     171A      2.113278   172A      2.118519   173A      2.124569
     174A      2.158490   175A      2.163598   176A      2.168634
     177A      2.175533   178A      2.191626   179A      2.244684
     180A      2.259120   181A      2.277923   182A      2.307133
     183A      2.310489   184A      2.320004   185A      2.324858
     186A      2.348585   187A      2.372850   188A      2.450568
     189A      2.467805   190A      2.479880   191A      2.487499
     192A      2.499302   193A      2.538130   194A      2.545988
     195A      2.572470   196A      2.587993   197A      2.594859
     198A      2.641354   199A      2.743708   200A      2.765529
     201A      2.768240   202A      2.775543   203A      2.789303
     204A      2.807066   205A      2.821102   206A      2.848270
     207A      2.863958   208A      2.876036   209A      2.882228
     210A      2.916763   211A      2.959703   212A      2.976867
     213A      2.983368   214A      3.004290   215A      3.033829
     216A      3.062647   217A      3.197038   218A      3.209042
     219A      3.317903   220A      3.982445

    Final Occupation by Irrep:
              A
    DOCC [    38 ]

  @RHF Final Energy:  -388.02825254805845

   => Energetics <=

    Nuclear Repulsion Energy =            495.1181097116360093
    One-Electron Energy =               -1504.6304401307797889
    Two-Electron Energy =                 621.4840778710853328
    Total Energy =                       -388.0282525480585036

Computation Completed

Properties will be evaluated at   0.000000,   0.000000,   0.000000 [a0]

Properties computed using the SCF density matrix

  Nuclear Dipole Moment: [e a0]
     X:   -11.7629      Y:     4.5551      Z:     1.7959

  Electronic Dipole Moment: [e a0]
     X:    11.7348      Y:    -4.5000      Z:    -1.8669

  Dipole Moment: [e a0]
     X:    -0.0281      Y:     0.0551      Z:    -0.0710     Total:     0.0941

  Dipole Moment: [D]
     X:    -0.0714      Y:     0.1400      Z:    -0.1804     Total:     0.2393

*** tstop() called on ds3 at Tue Apr 28 10:17:24 2020
Module time:
	user time   =     110.58 seconds =       1.84 minutes
	system time =      42.89 seconds =       0.71 minutes
	total time  =        247 seconds =       4.12 minutes
Total time:
	user time   =     110.58 seconds =       1.84 minutes
	system time =      42.89 seconds =       0.71 minutes
	total time  =        247 seconds =       4.12 minutes
                                     G D M A

                                 by Anthony Stone

                           version 2.2.06, 22 June 2011

               Distributed Multipoles from Gaussian wavefunctions

Starting at 10:17:24 on 28 Apr 2020

Using SCF density matrix from file ./SSI/SSI-085LEU-094PHE-1-dimer.test.4602.fchk

                         Distributed Multipole Analysis

Standard DMA

Positions and radii in angstrom
Multipole moments in atomic units, ea_0^k for rank k

C          x = -2.792220  y =  1.099692  z =  1.523511 angstrom
           Maximum rank =  0   Radius =  0.650 angstrom
                   Q00  =  -0.249515

C          x = -2.853220  y =  0.179692  z =  2.733511 angstrom
           Maximum rank =  0   Radius =  0.650 angstrom
                   Q00  =  -0.223132

H          x = -3.023220  y =  2.124692  z =  1.800511 angstrom
           Maximum rank =  0   Radius =  0.325 angstrom
                   Q00  =   0.076271

H          x = -1.771220  y =  1.087692  z =  1.151511 angstrom
           Maximum rank =  0   Radius =  0.325 angstrom
                   Q00  =   0.081567

H          x = -3.478220  y =  0.775692  z =  0.753511 angstrom
           Maximum rank =  0   Radius =  0.325 angstrom
                   Q00  =   0.076432

H          x = -2.172220  y =  0.562692  z =  3.490511 angstrom
           Maximum rank =  0   Radius =  0.325 angstrom
                   Q00  =   0.079075

H          x = -3.867100  y =  0.150932  z =  3.159201 angstrom
           Maximum rank =  0   Radius =  0.325 angstrom
                   Q00  =   0.074614

H          x = -2.516610  y = -0.833018  z =  2.466821 angstrom
           Maximum rank =  0   Radius =  0.325 angstrom
                   Q00  =   0.079822

C          x = -0.910220  y =  0.496692  z = -1.485489 angstrom
           Maximum rank =  0   Radius =  0.650 angstrom
                   Q00  =  -0.024019

C          x = -0.591220  y =  1.017692  z = -2.892489 angstrom
           Maximum rank =  0   Radius =  0.650 angstrom
                   Q00  =  -0.231040

C          x =  0.278780  y = -0.036308  z = -0.729489 angstrom
           Maximum rank =  0   Radius =  0.650 angstrom
                   Q00  =  -0.117944

C          x =  1.256780  y =  0.827692  z = -0.249489 angstrom
           Maximum rank =  0   Radius =  0.650 angstrom
                   Q00  =  -0.096810

C          x =  0.391780  y = -1.398308  z = -0.471489 angstrom
           Maximum rank =  0   Radius =  0.650 angstrom
                   Q00  =   0.020821

C          x =  2.343780  y =  0.332692  z =  0.460511 angstrom
           Maximum rank =  0   Radius =  0.650 angstrom
                   Q00  =  -0.066294

C          x =  1.475780  y = -1.897308  z =  0.240511 angstrom
           Maximum rank =  0   Radius =  0.650 angstrom
                   Q00  =  -0.085638

C          x =  2.453780  y = -1.030308  z =  0.709511 angstrom
           Maximum rank =  0   Radius =  0.650 angstrom
                   Q00  =  -0.079289

H          x = -1.315220  y =  1.339692  z = -0.929489 angstrom
           Maximum rank =  0   Radius =  0.325 angstrom
                   Q00  =   0.064656

H          x = -1.675220  y = -0.270308  z = -1.515489 angstrom
           Maximum rank =  0   Radius =  0.325 angstrom
                   Q00  =   0.067115

H          x =  0.165780  y =  1.793692  z = -2.812489 angstrom
           Maximum rank =  0   Radius =  0.325 angstrom
                   Q00  =   0.082521

H          x =  1.176780  y =  1.889692  z = -0.435489 angstrom
           Maximum rank =  0   Radius =  0.325 angstrom
                   Q00  =   0.056670

H          x = -0.379220  y = -2.058308  z = -0.826489 angstrom
           Maximum rank =  0   Radius =  0.325 angstrom
                   Q00  =   0.056456

H          x =  3.116780  y =  1.007692  z =  0.790511 angstrom
           Maximum rank =  0   Radius =  0.325 angstrom
                   Q00  =   0.064237

H          x =  1.557780  y = -2.959308  z =  0.434511 angstrom
           Maximum rank =  0   Radius =  0.325 angstrom
                   Q00  =   0.064446

H          x =  3.301780  y = -1.416308  z =  1.258511 angstrom
           Maximum rank =  0   Radius =  0.325 angstrom
                   Q00  =   0.061546

H          x = -1.509560  y =  1.428532  z = -3.337309 angstrom
           Maximum rank =  0   Radius =  0.325 angstrom
                   Q00  =   0.084932

H          x = -0.158570  y =  0.235182  z = -3.533189 angstrom
           Maximum rank =  0   Radius =  0.325 angstrom
                   Q00  =   0.082501

Total multipoles referred to origin at
           x =   0.000000,  y =    0.000000,  z =    0.000000 angstrom
                   Q00  =  -0.000000

Finished at 10:17:24 on 28 Apr 2020

  DMA results are available in the Python driver through the
	  variable('DMA DISTRIBUTED MULTIPOLES')
  and
	  variable('DMA TOTAL MULTIPOLES')
  commands.

    Psi4 stopped on: Tuesday, 28 April 2020 10:17AM
    Psi4 wall time for execution: 0:04:07.39

*** Psi4 exiting successfully. Buy a developer a beer!
