                               Psi4 1.3.2 release

  ==> Input File <==

--------------------------------------------------------------------------
import numpy as np
set {scf_type pk
basis cc-pvdz
d_convergence 10
gdma_switch   0
gdma_limit    0
gdma_origin   [ 0.0,  0.0,  0.0 ]
}
molecule test {
    units Angstrom
    1 1
    --
    1 1
    C               -0.231749316142756    -2.594360973817350    -0.714977898328965
    C                0.480250683857243    -3.722360973817350     0.062022101671035
    H               -1.311749316142756    -2.714360973817350    -0.651977898328965
    H                0.039250683857244    -1.637360973817350    -0.277977898328965
    H                0.080250683857244    -2.607360973817350    -1.757977898328965
    H                0.135250683857244    -3.682360973817350     1.093022101671035
    H                1.543250683857244    -3.482360973817350     0.050022101671035
    H                0.318050683857243    -4.735030973817349    -0.335711898328965
    C                0.925250683857243     1.422639026182650     1.872022101671035
    C               -0.287749316142756     1.231639026182650    -0.292977898328965
    N                0.769250683857243     0.975639026182650     0.483022101671035
    N               -1.328749316142756     1.913639026182650     0.165022101671035
    N               -0.283749316142757     0.838639026182650    -1.554977898328965
    H                1.519250683857243     0.411639026182650     0.075022101671035
    H               -1.331749316142757     2.286639026182650     1.104022101671035
    H               -2.196749316142756     1.998639026182650    -0.366977898328965
    H                0.525250683857243     0.315639026182650    -1.905977898328965
    H               -1.069749316142756     1.022639026182650    -2.150977898328966
    H               -0.040749316142757     1.585639026182650     2.351022101671035
    H                1.474250683857244     2.365639026182650     1.883022101671034
    H                1.482840683857244     0.683469026182650     2.465925101671035

}
e, wfn = energy('scf', return_wfn=True)
gdma(wfn)
dmavals = variable('DMA DISTRIBUTED MULTIPOLES')
charges = np.array(dmavals)
print(charges)
np.save('SSI-138ILE-156ARG-1-dimer.npy', np.array(charges))--------------------------------------------------------------------------

*** tstart() called on ds3
*** at Tue Apr 28 01:46:13 2020

   => Loading Basis Set <=

    Name: CC-PVDZ
    Role: ORBITAL
    Keyword: BASIS
    atoms 1-2, 9-10  entry C          line   138 file /theoryfs2/ds/metcalf/miniconda2/envs/tf2gpu/share/psi4/basis/cc-pvdz.gbs
    atoms 3-8, 14-21 entry H          line    22 file /theoryfs2/ds/metcalf/miniconda2/envs/tf2gpu/share/psi4/basis/cc-pvdz.gbs
    atoms 11-13      entry N          line   168 file /theoryfs2/ds/metcalf/miniconda2/envs/tf2gpu/share/psi4/basis/cc-pvdz.gbs

         ---------------------------------------------------------
                                   SCF
               by Justin Turney, Rob Parrish, Andy Simmonett
                          and Daniel G. A. Smith
                              RHF Reference
                        1 Threads,    500 MiB Core
         ---------------------------------------------------------

  ==> Geometry <==

    Molecular point group: c1
    Full point group: C1

    Geometry (in Angstrom), charge = 1, multiplicity = 1:

       Center              X                  Y                   Z               Mass
    ------------   -----------------  -----------------  -----------------  -----------------
         C           -0.231749316143    -2.594360973817    -0.714977898329    12.000000000000
         C            0.480250683857    -3.722360973817     0.062022101671    12.000000000000
         H           -1.311749316143    -2.714360973817    -0.651977898329     1.007825032230
         H            0.039250683857    -1.637360973817    -0.277977898329     1.007825032230
         H            0.080250683857    -2.607360973817    -1.757977898329     1.007825032230
         H            0.135250683857    -3.682360973817     1.093022101671     1.007825032230
         H            1.543250683857    -3.482360973817     0.050022101671     1.007825032230
         H            0.318050683857    -4.735030973817    -0.335711898329     1.007825032230
         C            0.925250683857     1.422639026183     1.872022101671    12.000000000000
         C           -0.287749316143     1.231639026183    -0.292977898329    12.000000000000
         N            0.769250683857     0.975639026183     0.483022101671    14.003074004430
         N           -1.328749316143     1.913639026183     0.165022101671    14.003074004430
         N           -0.283749316143     0.838639026183    -1.554977898329    14.003074004430
         H            1.519250683857     0.411639026183     0.075022101671     1.007825032230
         H           -1.331749316143     2.286639026183     1.104022101671     1.007825032230
         H           -2.196749316143     1.998639026183    -0.366977898329     1.007825032230
         H            0.525250683857     0.315639026183    -1.905977898329     1.007825032230
         H           -1.069749316143     1.022639026183    -2.150977898329     1.007825032230
         H           -0.040749316143     1.585639026183     2.351022101671     1.007825032230
         H            1.474250683857     2.365639026183     1.883022101671     1.007825032230
         H            1.482840683857     0.683469026183     2.465925101671     1.007825032230

  Running in c1 symmetry.

  Rotational constants: A =      0.09707  B =      0.03399  C =      0.02824 [cm^-1]
  Rotational constants: A =   2910.10686  B =   1019.09097  C =    846.52568 [MHz]
  Nuclear repulsion =  319.951877987376974

  Charge       = 1
  Multiplicity = 1
  Electrons    = 58
  Nalpha       = 29
  Nbeta        = 29

  ==> Algorithm <==

  SCF Algorithm Type is PK.
  DIIS enabled.
  MOM disabled.
  Fractional occupation disabled.
  Guess Type is SAD.
  Energy threshold   = 1.00e-06
  Density threshold  = 1.00e-10
  Integral threshold = 0.00e+00

  ==> Primary Basis <==

  Basis Set: CC-PVDZ
    Blend: CC-PVDZ
    Number of shells: 84
    Number of basis function: 168
    Number of Cartesian functions: 175
    Spherical Harmonics?: true
    Max angular momentum: 2

  ==> Pre-Iterations <==

   -------------------------------------------------------
    Irrep   Nso     Nmo     Nalpha   Nbeta   Ndocc  Nsocc
   -------------------------------------------------------
     A        168     168       0       0       0       0
   -------------------------------------------------------
    Total     168     168      29      29      29       0
   -------------------------------------------------------

  ==> Integral Setup <==

  Using integral reordering PK algorithm.
  Sizing the integral batches needed.
  Building batch lookup table.
   Calculation information:
      Number of atoms:                  21
      Number of AO shells:              84
      Number of primitives:            224
      Number of atomic orbitals:       175
      Number of basis functions:       168

      Integral cutoff                 1.00e-12
      Number of threads:                 1

	Batch   1 pq = [       0,    9405] index = [             0,44231715] size =     44231715
	Batch   2 pq = [    9405,   13301] index = [      44231715,88464951] size =     44233236
	Batch   3 pq = [   13301,   14196] index = [      88464951,100770306] size =     12305355
  Task number: 10
  Buffer size: 11059200
  Buffer per thread: 2
  We computed 5673078 shell quartets total.
  Whereas there are 6374235 unique shell quartets.

  ==> DiskJK: Disk-Based J/K Matrices <==

    J tasked:                  Yes
    K tasked:                  Yes
    wK tasked:                  No
    Memory [MiB]:              375
    Schwarz Cutoff:          1E-12

    OpenMP threads:              1

  Minimum eigenvalue in the overlap matrix is 3.4462254483E-03.
  Using Symmetric Orthogonalization.

  SCF Guess: Superposition of Atomic Densities via on-the-fly atomic UHF.

  ==> Iterations <==

                        Total Energy        Delta E     RMS |[F,P]|

   @RHF iter SAD:  -322.03900283682083   -3.22039e+02   0.00000e+00
   @RHF iter   1:  -322.61330378211773   -5.74301e-01   3.41047e-03 DIIS
   @RHF iter   2:  -322.78470590597436   -1.71402e-01   1.34841e-03 DIIS
   @RHF iter   3:  -322.81009892525969   -2.53930e-02   3.22626e-04 DIIS
   @RHF iter   4:  -322.81252975922644   -2.43083e-03   5.36274e-05 DIIS
   @RHF iter   5:  -322.81259734135443   -6.75821e-05   2.14612e-05 DIIS
   @RHF iter   6:  -322.81260696405400   -9.62270e-06   4.37621e-06 DIIS
   @RHF iter   7:  -322.81260762065688   -6.56603e-07   1.47993e-06 DIIS
   @RHF iter   8:  -322.81260767003789   -4.93810e-08   4.67239e-07 DIIS
   @RHF iter   9:  -322.81260767509809   -5.06020e-09   9.82623e-08 DIIS
   @RHF iter  10:  -322.81260767536298   -2.64890e-10   3.05854e-08 DIIS
   @RHF iter  11:  -322.81260767538760   -2.46132e-11   7.14491e-09 DIIS
   @RHF iter  12:  -322.81260767538868   -1.08002e-12   2.67600e-09 DIIS
   @RHF iter  13:  -322.81260767538834    3.41061e-13   9.98137e-10 DIIS
   @RHF iter  14:  -322.81260767538828    5.68434e-14   2.72281e-10 DIIS
   @RHF iter  15:  -322.81260767538907   -7.95808e-13   5.90870e-11 DIIS
  Energy and wave function converged.

  ==> Post-Iterations <==

    Orbital Energies [Eh]
    ---------------------

    Doubly Occupied:

       1A    -15.790832     2A    -15.789762     3A    -15.788276
       4A    -11.593511     5A    -11.443207     6A    -11.333648
       7A    -11.320059     8A     -1.541051     9A     -1.399429
      10A     -1.388327    11A     -1.140933    12A     -1.125252
      13A     -1.037889    14A     -0.971424    15A     -0.948187
      16A     -0.941936    17A     -0.858726    18A     -0.851197
      19A     -0.822914    20A     -0.794672    21A     -0.743078
      22A     -0.725661    23A     -0.707545    24A     -0.706438
      25A     -0.621537    26A     -0.604804    27A     -0.594784
      28A     -0.593337    29A     -0.583232

    Virtual:

      30A     -0.011967    31A      0.019528    32A      0.023138
      33A      0.030577    34A      0.057643    35A      0.081131
      36A      0.094377    37A      0.110662    38A      0.120630
      39A      0.141119    40A      0.144219    41A      0.159252
      42A      0.163289    43A      0.177305    44A      0.192173
      45A      0.202079    46A      0.272349    47A      0.285876
      48A      0.325356    49A      0.336526    50A      0.445288
      51A      0.450133    52A      0.476676    53A      0.481872
      54A      0.496527    55A      0.523159    56A      0.530835
      57A      0.538677    58A      0.546080    59A      0.549090
      60A      0.567065    61A      0.580747    62A      0.652155
      63A      0.673484    64A      0.686585    65A      0.698370
      66A      0.705997    67A      0.722064    68A      0.744159
      69A      0.748064    70A      0.771362    71A      0.786966
      72A      0.795122    73A      0.798279    74A      0.802630
      75A      0.813664    76A      0.836234    77A      0.847813
      78A      0.860501    79A      0.876503    80A      0.913890
      81A      0.919618    82A      0.949631    83A      1.014716
      84A      1.024592    85A      1.050355    86A      1.057504
      87A      1.098662    88A      1.139950    89A      1.149089
      90A      1.173223    91A      1.192935    92A      1.223232
      93A      1.233535    94A      1.281702    95A      1.338203
      96A      1.373148    97A      1.380759    98A      1.454917
      99A      1.486298   100A      1.494107   101A      1.528211
     102A      1.543211   103A      1.570506   104A      1.580226
     105A      1.590433   106A      1.612200   107A      1.651325
     108A      1.695342   109A      1.706834   110A      1.719013
     111A      1.734640   112A      1.750298   113A      1.751714
     114A      1.765350   115A      1.772418   116A      1.790814
     117A      1.796373   118A      1.809412   119A      1.840524
     120A      1.843447   121A      1.856789   122A      1.862460
     123A      1.874063   124A      1.883413   125A      1.887963
     126A      1.971689   127A      1.986752   128A      2.014717
     129A      2.019608   130A      2.041339   131A      2.118767
     132A      2.134054   133A      2.149023   134A      2.184728
     135A      2.205395   136A      2.225558   137A      2.246985
     138A      2.274685   139A      2.317180   140A      2.335718
     141A      2.347113   142A      2.358471   143A      2.375634
     144A      2.428639   145A      2.441393   146A      2.464073
     147A      2.478317   148A      2.505696   149A      2.573948
     150A      2.595640   151A      2.624182   152A      2.670669
     153A      2.688296   154A      2.709309   155A      2.732903
     156A      2.737631   157A      2.761121   158A      2.785467
     159A      2.809632   160A      2.834638   161A      2.849529
     162A      2.864628   163A      2.889765   164A      3.045656
     165A      3.065754   166A      3.102647   167A      3.537191
     168A      3.632759

    Final Occupation by Irrep:
              A
    DOCC [    29 ]

  @RHF Final Energy:  -322.81260767538907

   => Energetics <=

    Nuclear Repulsion Energy =            319.9518779873769745
    One-Electron Energy =               -1060.0056713596795817
    Two-Electron Energy =                 417.2411856969135329
    Total Energy =                       -322.8126076753890743

Computation Completed

Properties will be evaluated at   0.000000,   0.000000,   0.000000 [a0]

Properties computed using the SCF density matrix

  Nuclear Dipole Moment: [e a0]
     X:     1.0964      Y:    -7.6877      Z:     1.4787

  Electronic Dipole Moment: [e a0]
     X:    -1.5289      Y:     9.7547      Z:    -1.6702

  Dipole Moment: [e a0]
     X:    -0.4326      Y:     2.0671      Z:    -0.1915     Total:     2.1205

  Dipole Moment: [D]
     X:    -1.0995      Y:     5.2540      Z:    -0.4869     Total:     5.3898

*** tstop() called on ds3 at Tue Apr 28 01:46:57 2020
Module time:
	user time   =      32.24 seconds =       0.54 minutes
	system time =      13.07 seconds =       0.22 minutes
	total time  =         44 seconds =       0.73 minutes
Total time:
	user time   =      32.24 seconds =       0.54 minutes
	system time =      13.07 seconds =       0.22 minutes
	total time  =         44 seconds =       0.73 minutes
                                     G D M A

                                 by Anthony Stone

                           version 2.2.06, 22 June 2011

               Distributed Multipoles from Gaussian wavefunctions

Starting at 1:46:57 on 28 Apr 2020

Using SCF density matrix from file ./SSI/SSI-138ILE-156ARG-1-dimer.test.9187.fchk

                         Distributed Multipole Analysis

Standard DMA

Positions and radii in angstrom
Multipole moments in atomic units, ea_0^k for rank k

C          x = -0.231749  y = -2.594361  z = -0.714978 angstrom
           Maximum rank =  0   Radius =  0.650 angstrom
                   Q00  =  -0.247649

C          x =  0.480251  y = -3.722361  z =  0.062022 angstrom
           Maximum rank =  0   Radius =  0.650 angstrom
                   Q00  =  -0.227440

H          x = -1.311749  y = -2.714361  z = -0.651978 angstrom
           Maximum rank =  0   Radius =  0.325 angstrom
                   Q00  =   0.097902

H          x =  0.039251  y = -1.637361  z = -0.277978 angstrom
           Maximum rank =  0   Radius =  0.325 angstrom
                   Q00  =   0.018846

H          x =  0.080251  y = -2.607361  z = -1.757978 angstrom
           Maximum rank =  0   Radius =  0.325 angstrom
                   Q00  =   0.081901

H          x =  0.135251  y = -3.682361  z =  1.093022 angstrom
           Maximum rank =  0   Radius =  0.325 angstrom
                   Q00  =   0.084789

H          x =  1.543251  y = -3.482361  z =  0.050022 angstrom
           Maximum rank =  0   Radius =  0.325 angstrom
                   Q00  =   0.073338

H          x =  0.318051  y = -4.735031  z = -0.335712 angstrom
           Maximum rank =  0   Radius =  0.325 angstrom
                   Q00  =   0.111360

C          x =  0.925251  y =  1.422639  z =  1.872022 angstrom
           Maximum rank =  0   Radius =  0.650 angstrom
                   Q00  =  -0.121255

C          x = -0.287749  y =  1.231639  z = -0.292978 angstrom
           Maximum rank =  0   Radius =  0.650 angstrom
                   Q00  =   1.083196

N          x =  0.769251  y =  0.975639  z =  0.483022 angstrom
           Maximum rank =  0   Radius =  0.650 angstrom
                   Q00  =  -0.499274

N          x = -1.328749  y =  1.913639  z =  0.165022 angstrom
           Maximum rank =  0   Radius =  0.650 angstrom
                   Q00  =  -0.591024

N          x = -0.283749  y =  0.838639  z = -1.554978 angstrom
           Maximum rank =  0   Radius =  0.650 angstrom
                   Q00  =  -0.589124

H          x =  1.519251  y =  0.411639  z =  0.075022 angstrom
           Maximum rank =  0   Radius =  0.325 angstrom
                   Q00  =   0.241308

H          x = -1.331749  y =  2.286639  z =  1.104022 angstrom
           Maximum rank =  0   Radius =  0.325 angstrom
                   Q00  =   0.266012

H          x = -2.196749  y =  1.998639  z = -0.366978 angstrom
           Maximum rank =  0   Radius =  0.325 angstrom
                   Q00  =   0.272544

H          x =  0.525251  y =  0.315639  z = -1.905978 angstrom
           Maximum rank =  0   Radius =  0.325 angstrom
                   Q00  =   0.273709

H          x = -1.069749  y =  1.022639  z = -2.150978 angstrom
           Maximum rank =  0   Radius =  0.325 angstrom
                   Q00  =   0.270028

H          x = -0.040749  y =  1.585639  z =  2.351022 angstrom
           Maximum rank =  0   Radius =  0.325 angstrom
                   Q00  =   0.112373

H          x =  1.474251  y =  2.365639  z =  1.883022 angstrom
           Maximum rank =  0   Radius =  0.325 angstrom
                   Q00  =   0.129436

H          x =  1.482841  y =  0.683469  z =  2.465925 angstrom
           Maximum rank =  0   Radius =  0.325 angstrom
                   Q00  =   0.159025

Total multipoles referred to origin at
           x =   0.000000,  y =    0.000000,  z =    0.000000 angstrom
                   Q00  =   1.000000

Finished at 1:46:57 on 28 Apr 2020

  DMA results are available in the Python driver through the
	  variable('DMA DISTRIBUTED MULTIPOLES')
  and
	  variable('DMA TOTAL MULTIPOLES')
  commands.

    Psi4 stopped on: Tuesday, 28 April 2020 01:46AM
    Psi4 wall time for execution: 0:00:44.29

*** Psi4 exiting successfully. Buy a developer a beer!
