                               Psi4 1.3.2 release

  ==> Input File <==

--------------------------------------------------------------------------
import numpy as np
set {scf_type pk
basis cc-pvdz
d_convergence 10
gdma_switch   0
gdma_limit    0
gdma_origin   [ 0.0,  0.0,  0.0 ]
}
molecule test {
    units Angstrom
    -1 1
    --
    -1 1
    C                1.637693348975565    -0.799958040487471     0.707004609718380
    C                1.883693348975565    -2.220958040487471     0.267004609718380
    C                0.263693348975565    -0.659958040487471     1.249004609718380
    C               -0.069306651024435    -0.509958040487471     2.538004609718380
    C               -0.963306651024435    -0.691958040487471     0.504004609718380
    C               -2.021306651024435    -0.559958040487471     1.434004609718380
    C               -1.269306651024435    -0.816958040487471    -0.854995390281620
    C               -3.364306651024435    -0.537958040487471     1.058004609718380
    C               -2.633306651024435    -0.826958040487471    -1.251995390281620
    C               -3.652306651024435    -0.685958040487471    -0.290995390281620
    N               -1.438306651024435    -0.460958040487471     2.661004609718380
    H                2.374693348975565    -0.491958040487471     1.451004609718380
    H                1.742693348975565    -0.133958040487471    -0.139995390281620
    H                0.939693348975565    -2.642958040487471    -0.072995390281620
    H                0.636693348975565    -0.460958040487471     3.360004609718380
    H               -1.937306651024435    -0.366958040487471     3.542004609718380
    H               -0.486306651024435    -0.952958040487471    -1.584995390281620
    H               -4.137306651024435    -0.418958040487471     1.798004609718380
    H               -2.897306651024435    -0.946958040487471    -2.293995390281620
    H               -4.677306651024435    -0.669958040487471    -0.624995390281620
    H                2.254843348975565    -2.811908040487471     1.117304609718380
    H                2.576793348975565    -2.247248040487471    -0.586765390281620
    C                1.118693348975565     1.715041959512529    -2.229995390281620
    C                2.552693348975565     2.005041959512529    -1.786995390281620
    O                2.729693348975565     2.708041959512529    -0.767995390281620
    O                3.502693348975565     1.603041959512529    -2.502995390281620
    H                0.824693348975565     0.759041959512529    -1.814995390281620
    H                1.061693348975565     1.568041959512529    -3.306995390281620
    H                0.388563348975565     2.460631959512529    -1.882145390281620

}
e, wfn = energy('scf', return_wfn=True)
gdma(wfn)
dmavals = variable('DMA DISTRIBUTED MULTIPOLES')
charges = np.array(dmavals)
print(charges)
np.save('SSI-225TRP-252GLU-1-dimer.npy', np.array(charges))--------------------------------------------------------------------------

*** tstart() called on ds3
*** at Mon Apr 27 10:07:23 2020

   => Loading Basis Set <=

    Name: CC-PVDZ
    Role: ORBITAL
    Keyword: BASIS
    atoms 1-10, 23-24  entry C          line   138 file /theoryfs2/ds/metcalf/miniconda2/envs/tf2gpu/share/psi4/basis/cc-pvdz.gbs
    atoms 11           entry N          line   168 file /theoryfs2/ds/metcalf/miniconda2/envs/tf2gpu/share/psi4/basis/cc-pvdz.gbs
    atoms 12-22, 27-29 entry H          line    22 file /theoryfs2/ds/metcalf/miniconda2/envs/tf2gpu/share/psi4/basis/cc-pvdz.gbs
    atoms 25-26        entry O          line   198 file /theoryfs2/ds/metcalf/miniconda2/envs/tf2gpu/share/psi4/basis/cc-pvdz.gbs

         ---------------------------------------------------------
                                   SCF
               by Justin Turney, Rob Parrish, Andy Simmonett
                          and Daniel G. A. Smith
                              RHF Reference
                        1 Threads,    500 MiB Core
         ---------------------------------------------------------

  ==> Geometry <==

    Molecular point group: c1
    Full point group: C1

    Geometry (in Angstrom), charge = -1, multiplicity = 1:

       Center              X                  Y                   Z               Mass
    ------------   -----------------  -----------------  -----------------  -----------------
         C            1.637693348976    -0.799958040487     0.707004609718    12.000000000000
         C            1.883693348976    -2.220958040487     0.267004609718    12.000000000000
         C            0.263693348976    -0.659958040487     1.249004609718    12.000000000000
         C           -0.069306651024    -0.509958040487     2.538004609718    12.000000000000
         C           -0.963306651024    -0.691958040487     0.504004609718    12.000000000000
         C           -2.021306651024    -0.559958040487     1.434004609718    12.000000000000
         C           -1.269306651024    -0.816958040487    -0.854995390282    12.000000000000
         C           -3.364306651024    -0.537958040487     1.058004609718    12.000000000000
         C           -2.633306651024    -0.826958040487    -1.251995390282    12.000000000000
         C           -3.652306651024    -0.685958040487    -0.290995390282    12.000000000000
         N           -1.438306651024    -0.460958040487     2.661004609718    14.003074004430
         H            2.374693348976    -0.491958040487     1.451004609718     1.007825032230
         H            1.742693348976    -0.133958040487    -0.139995390282     1.007825032230
         H            0.939693348976    -2.642958040487    -0.072995390282     1.007825032230
         H            0.636693348976    -0.460958040487     3.360004609718     1.007825032230
         H           -1.937306651024    -0.366958040487     3.542004609718     1.007825032230
         H           -0.486306651024    -0.952958040487    -1.584995390282     1.007825032230
         H           -4.137306651024    -0.418958040487     1.798004609718     1.007825032230
         H           -2.897306651024    -0.946958040487    -2.293995390282     1.007825032230
         H           -4.677306651024    -0.669958040487    -0.624995390282     1.007825032230
         H            2.254843348976    -2.811908040487     1.117304609718     1.007825032230
         H            2.576793348976    -2.247248040487    -0.586765390282     1.007825032230
         C            1.118693348976     1.715041959513    -2.229995390282    12.000000000000
         C            2.552693348976     2.005041959513    -1.786995390282    12.000000000000
         O            2.729693348976     2.708041959513    -0.767995390282    15.994914619570
         O            3.502693348976     1.603041959513    -2.502995390282    15.994914619570
         H            0.824693348976     0.759041959513    -1.814995390282     1.007825032230
         H            1.061693348976     1.568041959513    -3.306995390282     1.007825032230
         H            0.388563348976     2.460631959513    -1.882145390282     1.007825032230

  Running in c1 symmetry.

  Rotational constants: A =      0.02817  B =      0.01084  C =      0.00942 [cm^-1]
  Rotational constants: A =    844.60951  B =    324.96507  C =    282.46282 [MHz]
  Nuclear repulsion =  926.101191441426636

  Charge       = -1
  Multiplicity = 1
  Electrons    = 110
  Nalpha       = 55
  Nbeta        = 55

  ==> Algorithm <==

  SCF Algorithm Type is PK.
  DIIS enabled.
  MOM disabled.
  Fractional occupation disabled.
  Guess Type is SAD.
  Energy threshold   = 1.00e-06
  Density threshold  = 1.00e-10
  Integral threshold = 0.00e+00

  ==> Primary Basis <==

  Basis Set: CC-PVDZ
    Blend: CC-PVDZ
    Number of shells: 132
    Number of basis function: 280
    Number of Cartesian functions: 295
    Spherical Harmonics?: true
    Max angular momentum: 2

  ==> Pre-Iterations <==

   -------------------------------------------------------
    Irrep   Nso     Nmo     Nalpha   Nbeta   Ndocc  Nsocc
   -------------------------------------------------------
     A        280     280       0       0       0       0
   -------------------------------------------------------
    Total     280     280      55      55      55       0
   -------------------------------------------------------

  ==> Integral Setup <==

  Using integral reordering PK algorithm.
  Sizing the integral batches needed.
  Building batch lookup table.
   Calculation information:
      Number of atoms:                  29
      Number of AO shells:             132
      Number of primitives:            400
      Number of atomic orbitals:       295
      Number of basis functions:       280

      Integral cutoff                 1.00e-12
      Number of threads:                 1

	Batch   1 pq = [       0,    9405] index = [             0,44231715] size =     44231715
	Batch   2 pq = [    9405,   13301] index = [      44231715,88464951] size =     44233236
	Batch   3 pq = [   13301,   16290] index = [      88464951,132690195] size =     44225244
	Batch   4 pq = [   16290,   18810] index = [     132690195,176917455] size =     44227260
	Batch   5 pq = [   18810,   21030] index = [     176917455,221140965] size =     44223510
	Batch   6 pq = [   21030,   23037] index = [     221140965,265363203] size =     44222238
	Batch   7 pq = [   23037,   24883] index = [     265363203,309594286] size =     44231083
	Batch   8 pq = [   24883,   26601] index = [     309594286,353819901] size =     44225615
	Batch   9 pq = [   26601,   28214] index = [     353819901,398029005] size =     44209104
	Batch  10 pq = [   28214,   29740] index = [     398029005,442248670] size =     44219665
	Batch  11 pq = [   29740,   31191] index = [     442248670,486454836] size =     44206166
	Batch  12 pq = [   31191,   32578] index = [     486454836,530679331] size =     44224495
	Batch  13 pq = [   32578,   33908] index = [     530679331,574893186] size =     44213855
	Batch  14 pq = [   33908,   35188] index = [     574893186,619115266] size =     44222080
	Batch  15 pq = [   35188,   36423] index = [     619115266,663335676] size =     44220410
	Batch  16 pq = [   36423,   37617] index = [     663335676,707538153] size =     44202477
	Batch  17 pq = [   37617,   38775] index = [     707538153,751769700] size =     44231547
	Batch  18 pq = [   38775,   39340] index = [     751769700,773837470] size =     22067770
  Task number: 70
  Buffer size: 11059200
  Buffer per thread: 2
  We computed 39898080 shell quartets total.
  Whereas there are 38531031 unique shell quartets.
     3.55 percent of shell quartets recomputed by reordering.

  ==> DiskJK: Disk-Based J/K Matrices <==

    J tasked:                  Yes
    K tasked:                  Yes
    wK tasked:                  No
    Memory [MiB]:              375
    Schwarz Cutoff:          1E-12

    OpenMP threads:              1

  Minimum eigenvalue in the overlap matrix is 2.3589868089E-04.
  Using Symmetric Orthogonalization.

  SCF Guess: Superposition of Atomic Densities via on-the-fly atomic UHF.

  ==> Iterations <==

                        Total Energy        Delta E     RMS |[F,P]|

   @RHF iter SAD:  -665.65435565613939   -6.65654e+02   0.00000e+00
   @RHF iter   1:  -666.38216110364419   -7.27805e-01   3.08012e-03 DIIS
   @RHF iter   2:  -666.70810786770210   -3.25947e-01   1.65941e-03 DIIS
   @RHF iter   3:  -666.79451426611638   -8.64064e-02   3.08169e-04 DIIS
   @RHF iter   4:  -666.79955389745351   -5.03963e-03   1.21842e-04 DIIS
   @RHF iter   5:  -666.80029692019639   -7.43023e-04   2.33850e-05 DIIS
   @RHF iter   6:  -666.80034326103635   -4.63408e-05   1.36435e-05 DIIS
   @RHF iter   7:  -666.80035764783736   -1.43868e-05   4.52195e-06 DIIS
   @RHF iter   8:  -666.80036190144779   -4.25361e-06   2.14012e-06 DIIS
   @RHF iter   9:  -666.80036292729767   -1.02585e-06   8.96739e-07 DIIS
   @RHF iter  10:  -666.80036311563890   -1.88341e-07   3.65823e-07 DIIS
   @RHF iter  11:  -666.80036314391862   -2.82797e-08   1.15584e-07 DIIS
   @RHF iter  12:  -666.80036314631570   -2.39709e-09   4.12603e-08 DIIS
   @RHF iter  13:  -666.80036314653421   -2.18506e-10   1.31820e-08 DIIS
   @RHF iter  14:  -666.80036314655524   -2.10321e-11   5.69873e-09 DIIS
   @RHF iter  15:  -666.80036314655695   -1.70530e-12   2.49706e-09 DIIS
   @RHF iter  16:  -666.80036314656354   -6.59384e-12   1.09782e-09 DIIS
   @RHF iter  17:  -666.80036314655831    5.22959e-12   4.62844e-10 DIIS
   @RHF iter  18:  -666.80036314655990   -1.59162e-12   2.09589e-10 DIIS
   @RHF iter  19:  -666.80036314655604    3.86535e-12   8.13300e-11 DIIS
  Energy and wave function converged.

  ==> Post-Iterations <==

    Orbital Energies [Eh]
    ---------------------

    Doubly Occupied:

       1A    -20.252474     2A    -20.251187     3A    -15.514955
       4A    -11.181765     5A    -11.169871     6A    -11.152967
       7A    -11.150447     8A    -11.149997     9A    -11.142190
      10A    -11.133114    11A    -11.119697    12A    -11.117102
      13A    -11.111557    14A    -11.111445    15A    -11.046950
      16A     -1.213621    17A     -1.141155    18A     -1.042030
      19A     -1.026851    20A     -0.997358    21A     -0.924837
      22A     -0.906683    23A     -0.882872    24A     -0.795095
      25A     -0.762224    26A     -0.751381    27A     -0.719303
      28A     -0.660489    29A     -0.631259    30A     -0.581219
      31A     -0.559618    32A     -0.527705    33A     -0.510006
      34A     -0.506021    35A     -0.497494    36A     -0.494096
      37A     -0.485037    38A     -0.458378    39A     -0.424995
      40A     -0.416912    41A     -0.413982    42A     -0.405272
      43A     -0.401578    44A     -0.397214    45A     -0.377906
      46A     -0.373986    47A     -0.366525    48A     -0.338132
      49A     -0.297981    50A     -0.284318    51A     -0.210837
      52A     -0.190577    53A     -0.177380    54A     -0.164534
      55A     -0.153193

    Virtual:

      56A      0.208685    57A      0.249728    58A      0.253837
      59A      0.273875    60A      0.281925    61A      0.305751
      62A      0.311451    63A      0.329570    64A      0.338360
      65A      0.348331    66A      0.361307    67A      0.373497
      68A      0.386167    69A      0.390673    70A      0.418744
      71A      0.439570    72A      0.448777    73A      0.463871
      74A      0.474288    75A      0.498392    76A      0.505084
      77A      0.519292    78A      0.529255    79A      0.551138
      80A      0.570017    81A      0.573826    82A      0.592825
      83A      0.597007    84A      0.629671    85A      0.676413
      86A      0.691251    87A      0.702960    88A      0.711299
      89A      0.722669    90A      0.734707    91A      0.749705
      92A      0.751505    93A      0.774446    94A      0.777351
      95A      0.791301    96A      0.809774    97A      0.813184
      98A      0.817208    99A      0.826233   100A      0.833965
     101A      0.842296   102A      0.856209   103A      0.866379
     104A      0.871333   105A      0.876380   106A      0.883502
     107A      0.908702   108A      0.928595   109A      0.949020
     110A      0.953167   111A      0.964266   112A      0.968047
     113A      0.978268   114A      0.981753   115A      0.990811
     116A      1.000729   117A      1.007412   118A      1.020838
     119A      1.034242   120A      1.039916   121A      1.041897
     122A      1.044899   123A      1.053190   124A      1.060702
     125A      1.067504   126A      1.075527   127A      1.084665
     128A      1.100642   129A      1.125539   130A      1.135427
     131A      1.140857   132A      1.158609   133A      1.162295
     134A      1.170503   135A      1.185652   136A      1.212458
     137A      1.223752   138A      1.246077   139A      1.250498
     140A      1.257603   141A      1.289144   142A      1.305401
     143A      1.314760   144A      1.319220   145A      1.329479
     146A      1.339582   147A      1.347409   148A      1.357353
     149A      1.378284   150A      1.390522   151A      1.399540
     152A      1.409970   153A      1.418698   154A      1.444407
     155A      1.450031   156A      1.462669   157A      1.474278
     158A      1.511584   159A      1.529432   160A      1.551131
     161A      1.558464   162A      1.576239   163A      1.592968
     164A      1.616055   165A      1.654446   166A      1.663895
     167A      1.667819   168A      1.676099   169A      1.687568
     170A      1.720313   171A      1.733891   172A      1.750021
     173A      1.755957   174A      1.771391   175A      1.781040
     176A      1.814767   177A      1.825978   178A      1.842953
     179A      1.845022   180A      1.850568   181A      1.867040
     182A      1.879857   183A      1.902892   184A      1.909902
     185A      1.931198   186A      1.955855   187A      1.964040
     188A      1.980569   189A      1.994072   190A      1.995917
     191A      2.016226   192A      2.022345   193A      2.033099
     194A      2.039706   195A      2.060158   196A      2.064981
     197A      2.069174   198A      2.078044   199A      2.082070
     200A      2.091914   201A      2.098751   202A      2.111470
     203A      2.121410   204A      2.139436   205A      2.144968
     206A      2.153535   207A      2.164277   208A      2.176257
     209A      2.178478   210A      2.187919   211A      2.200873
     212A      2.207568   213A      2.211587   214A      2.218350
     215A      2.241834   216A      2.245632   217A      2.257538
     218A      2.284812   219A      2.321193   220A      2.326353
     221A      2.353001   222A      2.380498   223A      2.393885
     224A      2.397926   225A      2.419351   226A      2.424626
     227A      2.440967   228A      2.444290   229A      2.454432
     230A      2.468446   231A      2.498562   232A      2.513802
     233A      2.542495   234A      2.544788   235A      2.590844
     236A      2.626970   237A      2.631702   238A      2.644198
     239A      2.692664   240A      2.704453   241A      2.722869
     242A      2.742117   243A      2.753780   244A      2.763938
     245A      2.785321   246A      2.795440   247A      2.826658
     248A      2.849719   249A      2.870930   250A      2.876757
     251A      2.886931   252A      2.911304   253A      2.928432
     254A      2.946428   255A      2.976677   256A      2.988634
     257A      2.995427   258A      3.031476   259A      3.062413
     260A      3.088775   261A      3.096487   262A      3.133233
     263A      3.157039   264A      3.186894   265A      3.232729
     266A      3.250295   267A      3.286982   268A      3.297900
     269A      3.302209   270A      3.371697   271A      3.400653
     272A      3.486796   273A      3.646003   274A      3.791999
     275A      3.826798   276A      3.833221   277A      4.016972
     278A      4.059207   279A      4.084982   280A      4.199309

    Final Occupation by Irrep:
              A
    DOCC [    55 ]

  @RHF Final Energy:  -666.80036314655604

   => Energetics <=

    Nuclear Repulsion Energy =            926.1011914414266357
    One-Electron Energy =               -2761.6515558841970233
    Two-Electron Energy =                1168.7500012962143501
    Total Energy =                       -666.8003631465560375

Computation Completed

Properties will be evaluated at   0.000000,   0.000000,   0.000000 [a0]

Properties computed using the SCF density matrix

  Nuclear Dipole Moment: [e a0]
     X:    -1.2176      Y:    -6.8750      Z:    -0.9980

  Electronic Dipole Moment: [e a0]
     X:    -4.2752      Y:     3.1235      Z:     4.5370

  Dipole Moment: [e a0]
     X:    -5.4927      Y:    -3.7515      Z:     3.5390     Total:     7.5345

  Dipole Moment: [D]
     X:   -13.9611      Y:    -9.5353      Z:     8.9953     Total:    19.1507

*** tstop() called on ds3 at Mon Apr 27 10:30:22 2020
Module time:
	user time   =     344.26 seconds =       5.74 minutes
	system time =     131.07 seconds =       2.18 minutes
	total time  =       1379 seconds =      22.98 minutes
Total time:
	user time   =     344.26 seconds =       5.74 minutes
	system time =     131.07 seconds =       2.18 minutes
	total time  =       1379 seconds =      22.98 minutes
                                     G D M A

                                 by Anthony Stone

                           version 2.2.06, 22 June 2011

               Distributed Multipoles from Gaussian wavefunctions

Starting at 10:30:22 on 27 Apr 2020

Using SCF density matrix from file ./SSI/SSI-225TRP-252GLU-1-dimer.test.2361.fchk

                         Distributed Multipole Analysis

Standard DMA

Positions and radii in angstrom
Multipole moments in atomic units, ea_0^k for rank k

C          x =  1.637693  y = -0.799958  z =  0.707005 angstrom
           Maximum rank =  0   Radius =  0.650 angstrom
                   Q00  =  -0.025701

C          x =  1.883693  y = -2.220958  z =  0.267005 angstrom
           Maximum rank =  0   Radius =  0.650 angstrom
                   Q00  =  -0.257049

C          x =  0.263693  y = -0.659958  z =  1.249005 angstrom
           Maximum rank =  0   Radius =  0.650 angstrom
                   Q00  =  -0.081270

C          x = -0.069307  y = -0.509958  z =  2.538005 angstrom
           Maximum rank =  0   Radius =  0.650 angstrom
                   Q00  =   0.046158

C          x = -0.963307  y = -0.691958  z =  0.504005 angstrom
           Maximum rank =  0   Radius =  0.650 angstrom
                   Q00  =  -0.063783

C          x = -2.021307  y = -0.559958  z =  1.434005 angstrom
           Maximum rank =  0   Radius =  0.650 angstrom
                   Q00  =   0.278713

C          x = -1.269307  y = -0.816958  z = -0.854995 angstrom
           Maximum rank =  0   Radius =  0.650 angstrom
                   Q00  =  -0.094209

C          x = -3.364307  y = -0.537958  z =  1.058005 angstrom
           Maximum rank =  0   Radius =  0.650 angstrom
                   Q00  =  -0.131725

C          x = -2.633307  y = -0.826958  z = -1.251995 angstrom
           Maximum rank =  0   Radius =  0.650 angstrom
                   Q00  =  -0.113680

C          x = -3.652307  y = -0.685958  z = -0.290995 angstrom
           Maximum rank =  0   Radius =  0.650 angstrom
                   Q00  =  -0.036045

N          x = -1.438307  y = -0.460958  z =  2.661005 angstrom
           Maximum rank =  0   Radius =  0.650 angstrom
                   Q00  =  -0.482953

H          x =  2.374693  y = -0.491958  z =  1.451005 angstrom
           Maximum rank =  0   Radius =  0.325 angstrom
                   Q00  =   0.069335

H          x =  1.742693  y = -0.133958  z = -0.139995 angstrom
           Maximum rank =  0   Radius =  0.325 angstrom
                   Q00  =   0.119543

H          x =  0.939693  y = -2.642958  z = -0.072995 angstrom
           Maximum rank =  0   Radius =  0.325 angstrom
                   Q00  =   0.069291

H          x =  0.636693  y = -0.460958  z =  3.360005 angstrom
           Maximum rank =  0   Radius =  0.325 angstrom
                   Q00  =   0.097355

H          x = -1.937307  y = -0.366958  z =  3.542005 angstrom
           Maximum rank =  0   Radius =  0.325 angstrom
                   Q00  =   0.198484

H          x = -0.486307  y = -0.952958  z = -1.584995 angstrom
           Maximum rank =  0   Radius =  0.325 angstrom
                   Q00  =   0.092991

H          x = -4.137307  y = -0.418958  z =  1.798005 angstrom
           Maximum rank =  0   Radius =  0.325 angstrom
                   Q00  =   0.057761

H          x = -2.897307  y = -0.946958  z = -2.293995 angstrom
           Maximum rank =  0   Radius =  0.325 angstrom
                   Q00  =   0.055348

H          x = -4.677307  y = -0.669958  z = -0.624995 angstrom
           Maximum rank =  0   Radius =  0.325 angstrom
                   Q00  =   0.048404

H          x =  2.254843  y = -2.811908  z =  1.117305 angstrom
           Maximum rank =  0   Radius =  0.325 angstrom
                   Q00  =   0.056248

H          x =  2.576793  y = -2.247248  z = -0.586765 angstrom
           Maximum rank =  0   Radius =  0.325 angstrom
                   Q00  =   0.093124

C          x =  1.118693  y =  1.715042  z = -2.229995 angstrom
           Maximum rank =  0   Radius =  0.650 angstrom
                   Q00  =  -0.258606

C          x =  2.552693  y =  2.005042  z = -1.786995 angstrom
           Maximum rank =  0   Radius =  0.650 angstrom
                   Q00  =   0.960298

O          x =  2.729693  y =  2.708042  z = -0.767995 angstrom
           Maximum rank =  0   Radius =  0.650 angstrom
                   Q00  =  -0.924572

O          x =  3.502693  y =  1.603042  z = -2.502995 angstrom
           Maximum rank =  0   Radius =  0.650 angstrom
                   Q00  =  -0.937841

H          x =  0.824693  y =  0.759042  z = -1.814995 angstrom
           Maximum rank =  0   Radius =  0.325 angstrom
                   Q00  =   0.046090

H          x =  1.061693  y =  1.568042  z = -3.306995 angstrom
           Maximum rank =  0   Radius =  0.325 angstrom
                   Q00  =   0.053661

H          x =  0.388563  y =  2.460632  z = -1.882145 angstrom
           Maximum rank =  0   Radius =  0.325 angstrom
                   Q00  =   0.064631

Total multipoles referred to origin at
           x =   0.000000,  y =    0.000000,  z =    0.000000 angstrom
                   Q00  =  -1.000000

Finished at 10:30:22 on 27 Apr 2020

  DMA results are available in the Python driver through the
	  variable('DMA DISTRIBUTED MULTIPOLES')
  and
	  variable('DMA TOTAL MULTIPOLES')
  commands.

    Psi4 stopped on: Monday, 27 April 2020 10:30AM
    Psi4 wall time for execution: 0:22:58.86

*** Psi4 exiting successfully. Buy a developer a beer!
