                               Psi4 1.3.2 release

  ==> Input File <==

--------------------------------------------------------------------------
import numpy as np
set {scf_type pk
basis cc-pvdz
d_convergence 10
gdma_switch   0
gdma_limit    0
gdma_origin   [ 0.0,  0.0,  0.0 ]
}
molecule test {
    units Angstrom
    0 1
    --
    0 1
    C                0.091771671263133    -2.010578389299106     0.476091499283775
    C                1.523771671263133    -2.092578389299106     0.996091499283775
    H                0.090771671263133    -1.630578389299106    -0.539908500716225
    H               -0.367228328736867    -2.997578389299106     0.479091499283775
    H               -0.502228328736867    -1.345578389299106     1.102091499283775
    H                2.090771671263133    -2.787578389299106     0.377091499283775
    H                1.982251671263133    -1.093838389299106     0.948021499283775
    H                1.490381671263133    -2.473618389299106     2.027441499283775
    C               -0.302228328736868     1.485421610700894    -0.635908500716225
    C               -1.306228328736867     2.622421610700894    -0.830908500716225
    H                0.145771671263133     1.552421610700894     0.355091499283775
    H               -0.821228328736868     0.532421610700894    -0.731908500716225
    H                0.477771671263133     1.518421610700894    -1.396908500716225
    H               -1.689228328736867     2.552421610700894    -1.848908500716225
    H               -0.824818328736867     3.601791610700894    -0.692748500716225
    H               -2.157368328736867     2.515491610700893    -0.142338500716225

}
e, wfn = energy('scf', return_wfn=True)
gdma(wfn)
dmavals = variable('DMA DISTRIBUTED MULTIPOLES')
charges = np.array(dmavals)
print(charges)
np.save('SSI-098LEU-144VAL-1-dimer.npy', np.array(charges))--------------------------------------------------------------------------

*** tstart() called on ds3
*** at Tue Apr 28 15:40:25 2020

   => Loading Basis Set <=

    Name: CC-PVDZ
    Role: ORBITAL
    Keyword: BASIS
    atoms 1-2, 9-10  entry C          line   138 file /theoryfs2/ds/metcalf/miniconda2/envs/tf2gpu/share/psi4/basis/cc-pvdz.gbs
    atoms 3-8, 11-16 entry H          line    22 file /theoryfs2/ds/metcalf/miniconda2/envs/tf2gpu/share/psi4/basis/cc-pvdz.gbs

         ---------------------------------------------------------
                                   SCF
               by Justin Turney, Rob Parrish, Andy Simmonett
                          and Daniel G. A. Smith
                              RHF Reference
                        1 Threads,    500 MiB Core
         ---------------------------------------------------------

  ==> Geometry <==

    Molecular point group: c1
    Full point group: C1

    Geometry (in Angstrom), charge = 0, multiplicity = 1:

       Center              X                  Y                   Z               Mass
    ------------   -----------------  -----------------  -----------------  -----------------
         C            0.091771671263    -2.010578389299     0.476091499284    12.000000000000
         C            1.523771671263    -2.092578389299     0.996091499284    12.000000000000
         H            0.090771671263    -1.630578389299    -0.539908500716     1.007825032230
         H           -0.367228328737    -2.997578389299     0.479091499284     1.007825032230
         H           -0.502228328737    -1.345578389299     1.102091499284     1.007825032230
         H            2.090771671263    -2.787578389299     0.377091499284     1.007825032230
         H            1.982251671263    -1.093838389299     0.948021499284     1.007825032230
         H            1.490381671263    -2.473618389299     2.027441499284     1.007825032230
         C           -0.302228328737     1.485421610701    -0.635908500716    12.000000000000
         C           -1.306228328737     2.622421610701    -0.830908500716    12.000000000000
         H            0.145771671263     1.552421610701     0.355091499284     1.007825032230
         H           -0.821228328737     0.532421610701    -0.731908500716     1.007825032230
         H            0.477771671263     1.518421610701    -1.396908500716     1.007825032230
         H           -1.689228328737     2.552421610701    -1.848908500716     1.007825032230
         H           -0.824818328737     3.601791610701    -0.692748500716     1.007825032230
         H           -2.157368328737     2.515491610701    -0.142338500716     1.007825032230

  Running in c1 symmetry.

  Rotational constants: A =      0.57876  B =      0.04694  C =      0.04513 [cm^-1]
  Rotational constants: A =  17350.66869  B =   1407.32426  C =   1352.94788 [MHz]
  Nuclear repulsion =  122.099188450234294

  Charge       = 0
  Multiplicity = 1
  Electrons    = 36
  Nalpha       = 18
  Nbeta        = 18

  ==> Algorithm <==

  SCF Algorithm Type is PK.
  DIIS enabled.
  MOM disabled.
  Fractional occupation disabled.
  Guess Type is SAD.
  Energy threshold   = 1.00e-06
  Density threshold  = 1.00e-10
  Integral threshold = 0.00e+00

  ==> Primary Basis <==

  Basis Set: CC-PVDZ
    Blend: CC-PVDZ
    Number of shells: 60
    Number of basis function: 116
    Number of Cartesian functions: 120
    Spherical Harmonics?: true
    Max angular momentum: 2

  ==> Pre-Iterations <==

   -------------------------------------------------------
    Irrep   Nso     Nmo     Nalpha   Nbeta   Ndocc  Nsocc
   -------------------------------------------------------
     A        116     116       0       0       0       0
   -------------------------------------------------------
    Total     116     116      18      18      18       0
   -------------------------------------------------------

  ==> Integral Setup <==

  Using integral reordering PK algorithm.
  Sizing the integral batches needed.
  Building batch lookup table.
   Calculation information:
      Number of atoms:                  16
      Number of AO shells:              60
      Number of primitives:            148
      Number of atomic orbitals:       120
      Number of basis functions:       116

      Integral cutoff                 1.00e-12
      Number of threads:                 1

	Batch   1 pq = [       0,    6786] index = [             0,23028291] size =     23028291
  Task number: 3
  Buffer size: 11059200
  Buffer per thread: 2
  We computed 1424426 shell quartets total.
  Whereas there are 1675365 unique shell quartets.

  ==> DiskJK: Disk-Based J/K Matrices <==

    J tasked:                  Yes
    K tasked:                  Yes
    wK tasked:                  No
    Memory [MiB]:              375
    Schwarz Cutoff:          1E-12

    OpenMP threads:              1

  Minimum eigenvalue in the overlap matrix is 6.9485773406E-03.
  Using Symmetric Orthogonalization.

  SCF Guess: Superposition of Atomic Densities via on-the-fly atomic UHF.

  ==> Iterations <==

                        Total Energy        Delta E     RMS |[F,P]|

   @RHF iter SAD:  -157.36045041048365   -1.57360e+02   0.00000e+00
   @RHF iter   1:  -158.30662901206136   -9.46179e-01   4.22153e-03 DIIS
   @RHF iter   2:  -158.44052945129482   -1.33900e-01   1.79685e-03 DIIS
   @RHF iter   3:  -158.46396693406626   -2.34375e-02   3.49914e-04 DIIS
   @RHF iter   4:  -158.46580215091191   -1.83522e-03   3.87051e-05 DIIS
   @RHF iter   5:  -158.46582589014906   -2.37392e-05   6.38197e-06 DIIS
   @RHF iter   6:  -158.46582650817129   -6.18022e-07   9.52348e-07 DIIS
   @RHF iter   7:  -158.46582651771027   -9.53898e-09   2.90324e-07 DIIS
   @RHF iter   8:  -158.46582651841956   -7.09292e-10   3.95801e-08 DIIS
   @RHF iter   9:  -158.46582651844210   -2.25384e-11   7.98818e-09 DIIS
   @RHF iter  10:  -158.46582651844312   -1.02318e-12   1.85379e-09 DIIS
   @RHF iter  11:  -158.46582651844329   -1.70530e-13   3.68202e-10 DIIS
   @RHF iter  12:  -158.46582651844346   -1.70530e-13   1.01381e-10 DIIS
   @RHF iter  13:  -158.46582651844344    2.84217e-14   2.42689e-11 DIIS
  Energy and wave function converged.

  ==> Post-Iterations <==

    Orbital Energies [Eh]
    ---------------------

    Doubly Occupied:

       1A    -11.219099     2A    -11.218605     3A    -11.216231
       4A    -11.214099     5A     -1.019945     6A     -1.017092
       7A     -0.838532     8A     -0.833078     9A     -0.602695
      10A     -0.599867    11A     -0.597218    12A     -0.594377
      13A     -0.502986    14A     -0.497284    15A     -0.491087
      16A     -0.486038    17A     -0.483128    18A     -0.478415

    Virtual:

      19A      0.173310    20A      0.194238    21A      0.232018
      22A      0.232480    23A      0.241198    24A      0.261117
      25A      0.263739    26A      0.279352    27A      0.283412
      28A      0.286942    29A      0.307877    30A      0.318521
      31A      0.392804    32A      0.402187    33A      0.566079
      34A      0.595573    35A      0.601170    36A      0.604699
      37A      0.611849    38A      0.643911    39A      0.671858
      40A      0.676796    41A      0.689954    42A      0.792474
      43A      0.845861    44A      0.856696    45A      0.886884
      46A      0.891572    47A      0.892812    48A      0.895181
      49A      0.903301    50A      0.907420    51A      0.915235
      52A      0.918807    53A      0.934707    54A      0.951398
      55A      0.977926    56A      0.983297    57A      1.123954
      58A      1.125112    59A      1.134617    60A      1.166974
      61A      1.229031    62A      1.243162    63A      1.467500
      64A      1.479262    65A      1.483747    66A      1.493036
      67A      1.567195    68A      1.585048    69A      1.675486
      70A      1.680796    71A      1.693719    72A      1.699590
      73A      1.850482    74A      1.859497    75A      1.866517
      76A      1.884875    77A      1.900460    78A      1.914457
      79A      1.936511    80A      1.942205    81A      1.947517
      82A      1.949331    83A      1.953786    84A      1.963487
      85A      1.967672    86A      1.969989    87A      1.981715
      88A      2.040988    89A      2.091903    90A      2.106680
      91A      2.120244    92A      2.124565    93A      2.282367
      94A      2.301323    95A      2.310475    96A      2.334450
      97A      2.448880    98A      2.453352    99A      2.465897
     100A      2.486113   101A      2.555550   102A      2.572134
     103A      2.575889   104A      2.580509   105A      2.759985
     106A      2.765937   107A      2.788502   108A      2.799328
     109A      2.843416   110A      2.848576   111A      2.852839
     112A      2.858680   113A      2.937464   114A      2.955905
     115A      2.967593   116A      2.971237

    Final Occupation by Irrep:
              A
    DOCC [    18 ]

  @RHF Final Energy:  -158.46582651844344

   => Energetics <=

    Nuclear Repulsion Energy =            122.0991884502342941
    One-Electron Energy =                -453.3104768006281802
    Two-Electron Energy =                 172.7454618319504505
    Total Energy =                       -158.4658265184434356

Computation Completed

Properties will be evaluated at   0.000000,   0.000000,   0.000000 [a0]

Properties computed using the SCF density matrix

  Nuclear Dipole Moment: [e a0]
     X:    -0.0791      Y:    -0.0523      Z:    -0.0599

  Electronic Dipole Moment: [e a0]
     X:     0.0693      Y:     0.0340      Z:     0.0420

  Dipole Moment: [e a0]
     X:    -0.0098      Y:    -0.0183      Z:    -0.0179     Total:     0.0274

  Dipole Moment: [D]
     X:    -0.0248      Y:    -0.0466      Z:    -0.0455     Total:     0.0697

*** tstop() called on ds3 at Tue Apr 28 15:40:38 2020
Module time:
	user time   =       7.32 seconds =       0.12 minutes
	system time =       2.59 seconds =       0.04 minutes
	total time  =         13 seconds =       0.22 minutes
Total time:
	user time   =       7.32 seconds =       0.12 minutes
	system time =       2.59 seconds =       0.04 minutes
	total time  =         13 seconds =       0.22 minutes
                                     G D M A

                                 by Anthony Stone

                           version 2.2.06, 22 June 2011

               Distributed Multipoles from Gaussian wavefunctions

Starting at 15:40:38 on 28 Apr 2020

Using SCF density matrix from file ./SSI/SSI-098LEU-144VAL-1-dimer.test.10617.fchk

                         Distributed Multipole Analysis

Standard DMA

Positions and radii in angstrom
Multipole moments in atomic units, ea_0^k for rank k

C          x =  0.091772  y = -2.010578  z =  0.476091 angstrom
           Maximum rank =  0   Radius =  0.650 angstrom
                   Q00  =  -0.236308

C          x =  1.523772  y = -2.092578  z =  0.996092 angstrom
           Maximum rank =  0   Radius =  0.650 angstrom
                   Q00  =  -0.232331

H          x =  0.090772  y = -1.630578  z = -0.539909 angstrom
           Maximum rank =  0   Radius =  0.325 angstrom
                   Q00  =   0.078371

H          x = -0.367228  y = -2.997578  z =  0.479091 angstrom
           Maximum rank =  0   Radius =  0.325 angstrom
                   Q00  =   0.076789

H          x = -0.502228  y = -1.345578  z =  1.102092 angstrom
           Maximum rank =  0   Radius =  0.325 angstrom
                   Q00  =   0.077931

H          x =  2.090772  y = -2.787578  z =  0.377091 angstrom
           Maximum rank =  0   Radius =  0.325 angstrom
                   Q00  =   0.079223

H          x =  1.982252  y = -1.093838  z =  0.948021 angstrom
           Maximum rank =  0   Radius =  0.325 angstrom
                   Q00  =   0.079621

H          x =  1.490382  y = -2.473618  z =  2.027442 angstrom
           Maximum rank =  0   Radius =  0.325 angstrom
                   Q00  =   0.076654

C          x = -0.302228  y =  1.485422  z = -0.635909 angstrom
           Maximum rank =  0   Radius =  0.650 angstrom
                   Q00  =  -0.239902

C          x = -1.306228  y =  2.622422  z = -0.830909 angstrom
           Maximum rank =  0   Radius =  0.650 angstrom
                   Q00  =  -0.235109

H          x =  0.145772  y =  1.552422  z =  0.355091 angstrom
           Maximum rank =  0   Radius =  0.325 angstrom
                   Q00  =   0.078258

H          x = -0.821228  y =  0.532422  z = -0.731909 angstrom
           Maximum rank =  0   Radius =  0.325 angstrom
                   Q00  =   0.081334

H          x =  0.477772  y =  1.518422  z = -1.396909 angstrom
           Maximum rank =  0   Radius =  0.325 angstrom
                   Q00  =   0.079270

H          x = -1.689228  y =  2.552422  z = -1.848909 angstrom
           Maximum rank =  0   Radius =  0.325 angstrom
                   Q00  =   0.077079

H          x = -0.824818  y =  3.601792  z = -0.692749 angstrom
           Maximum rank =  0   Radius =  0.325 angstrom
                   Q00  =   0.079458

H          x = -2.157368  y =  2.515492  z = -0.142339 angstrom
           Maximum rank =  0   Radius =  0.325 angstrom
                   Q00  =   0.079660

Total multipoles referred to origin at
           x =   0.000000,  y =    0.000000,  z =    0.000000 angstrom
                   Q00  =  -0.000000

Finished at 15:40:38 on 28 Apr 2020

  DMA results are available in the Python driver through the
	  variable('DMA DISTRIBUTED MULTIPOLES')
  and
	  variable('DMA TOTAL MULTIPOLES')
  commands.

    Psi4 stopped on: Tuesday, 28 April 2020 03:40PM
    Psi4 wall time for execution: 0:00:13.29

*** Psi4 exiting successfully. Buy a developer a beer!
