                               Psi4 1.3.2 release

  ==> Input File <==

--------------------------------------------------------------------------
import numpy as np
set {scf_type pk
basis cc-pvdz
d_convergence 10
gdma_switch   0
gdma_limit    0
gdma_origin   [ 0.0,  0.0,  0.0 ]
}
molecule test {
    units Angstrom
    0 1
    --
    0 1
    C               -0.957935975670521     1.242857954432420     0.298200277479770
    C               -2.351935975670521     1.757857954432420    -0.062799722520230
    C               -0.542935975670521     0.019857954432420    -0.467799722520230
    C               -0.045935975670521     0.132857954432420    -1.768799722520230
    C               -0.680935975670521    -1.244142045567580     0.102200277479770
    C                0.305064024329479    -1.008142045567580    -2.494799722520230
    C               -0.335935975670521    -2.388142045567580    -0.617799722520230
    C                0.160064024329479    -2.272142045567580    -1.917799722520230
    H               -0.227935975670521     2.031857954432420     0.105200277479770
    H               -0.930935975670521     1.022857954432420     1.365200277479770
    H               -3.092935975670521     1.010857954432420     0.209200277479770
    H                0.066064024329479     1.105857954432420    -2.224799722520230
    H               -1.053935975670521    -1.348142045567580     1.109200277479770
    H                0.682064024329479    -0.902142045567580    -3.500799722520230
    H               -0.472935975670521    -3.364142045567580    -0.174799722520230
    H                0.429064024329479    -3.161142045567580    -2.466799722520230
    H               -2.419355975670521     1.985107954432420    -1.136959722520230
    H               -2.550955975670521     2.686107954432420     0.492840277479770
    C                1.977064024329479     0.777857954432420     2.673200277479770
    C                2.221064024329479     2.151857954432420     3.284200277479770
    H                1.395064024329479     0.159857954432420     3.352200277479770
    H                1.436064024329479     0.887857954432420     1.735200277479770
    H                2.902064024329478     0.273857954432420     2.425200277479770
    H                3.023064024329478     2.640857954432420     2.731200277479770
    H                2.503814024329479     2.073117954432420     4.344320277479770
    H                1.316534024329479     2.773137954432420     3.207800277479770

}
e, wfn = energy('scf', return_wfn=True)
gdma(wfn)
dmavals = variable('DMA DISTRIBUTED MULTIPOLES')
charges = np.array(dmavals)
print(charges)
np.save('SSI-153PHE-163LEU-1-dimer.npy', np.array(charges))--------------------------------------------------------------------------

*** tstart() called on ds3
*** at Sun Apr 26 20:30:42 2020

   => Loading Basis Set <=

    Name: CC-PVDZ
    Role: ORBITAL
    Keyword: BASIS
    atoms 1-8, 19-20  entry C          line   138 file /theoryfs2/ds/metcalf/miniconda2/envs/tf2gpu/share/psi4/basis/cc-pvdz.gbs
    atoms 9-18, 21-26 entry H          line    22 file /theoryfs2/ds/metcalf/miniconda2/envs/tf2gpu/share/psi4/basis/cc-pvdz.gbs

         ---------------------------------------------------------
                                   SCF
               by Justin Turney, Rob Parrish, Andy Simmonett
                          and Daniel G. A. Smith
                              RHF Reference
                        1 Threads,    500 MiB Core
         ---------------------------------------------------------

  ==> Geometry <==

    Molecular point group: c1
    Full point group: C1

    Geometry (in Angstrom), charge = 0, multiplicity = 1:

       Center              X                  Y                   Z               Mass
    ------------   -----------------  -----------------  -----------------  -----------------
         C           -0.957935975671     1.242857954432     0.298200277480    12.000000000000
         C           -2.351935975671     1.757857954432    -0.062799722520    12.000000000000
         C           -0.542935975671     0.019857954432    -0.467799722520    12.000000000000
         C           -0.045935975671     0.132857954432    -1.768799722520    12.000000000000
         C           -0.680935975671    -1.244142045568     0.102200277480    12.000000000000
         C            0.305064024329    -1.008142045568    -2.494799722520    12.000000000000
         C           -0.335935975671    -2.388142045568    -0.617799722520    12.000000000000
         C            0.160064024329    -2.272142045568    -1.917799722520    12.000000000000
         H           -0.227935975671     2.031857954432     0.105200277480     1.007825032230
         H           -0.930935975671     1.022857954432     1.365200277480     1.007825032230
         H           -3.092935975671     1.010857954432     0.209200277480     1.007825032230
         H            0.066064024329     1.105857954432    -2.224799722520     1.007825032230
         H           -1.053935975671    -1.348142045568     1.109200277480     1.007825032230
         H            0.682064024329    -0.902142045568    -3.500799722520     1.007825032230
         H           -0.472935975671    -3.364142045568    -0.174799722520     1.007825032230
         H            0.429064024329    -3.161142045568    -2.466799722520     1.007825032230
         H           -2.419355975671     1.985107954432    -1.136959722520     1.007825032230
         H           -2.550955975671     2.686107954432     0.492840277480     1.007825032230
         C            1.977064024329     0.777857954432     2.673200277480    12.000000000000
         C            2.221064024329     2.151857954432     3.284200277480    12.000000000000
         H            1.395064024329     0.159857954432     3.352200277480     1.007825032230
         H            1.436064024329     0.887857954432     1.735200277480     1.007825032230
         H            2.902064024329     0.273857954432     2.425200277480     1.007825032230
         H            3.023064024329     2.640857954432     2.731200277480     1.007825032230
         H            2.503814024329     2.073117954432     4.344320277480     1.007825032230
         H            1.316534024329     2.773137954432     3.207800277480     1.007825032230

  Running in c1 symmetry.

  Rotational constants: A =      0.04845  B =      0.02108  C =      0.01739 [cm^-1]
  Rotational constants: A =   1452.58647  B =    632.04554  C =    521.47046 [MHz]
  Nuclear repulsion =  488.743530838134177

  Charge       = 0
  Multiplicity = 1
  Electrons    = 76
  Nalpha       = 38
  Nbeta        = 38

  ==> Algorithm <==

  SCF Algorithm Type is PK.
  DIIS enabled.
  MOM disabled.
  Fractional occupation disabled.
  Guess Type is SAD.
  Energy threshold   = 1.00e-06
  Density threshold  = 1.00e-10
  Integral threshold = 0.00e+00

  ==> Primary Basis <==

  Basis Set: CC-PVDZ
    Blend: CC-PVDZ
    Number of shells: 108
    Number of basis function: 220
    Number of Cartesian functions: 230
    Spherical Harmonics?: true
    Max angular momentum: 2

  ==> Pre-Iterations <==

   -------------------------------------------------------
    Irrep   Nso     Nmo     Nalpha   Nbeta   Ndocc  Nsocc
   -------------------------------------------------------
     A        220     220       0       0       0       0
   -------------------------------------------------------
    Total     220     220      38      38      38       0
   -------------------------------------------------------

  ==> Integral Setup <==

  Using integral reordering PK algorithm.
  Sizing the integral batches needed.
  Building batch lookup table.
   Calculation information:
      Number of atoms:                  26
      Number of AO shells:             108
      Number of primitives:            300
      Number of atomic orbitals:       230
      Number of basis functions:       220

      Integral cutoff                 1.00e-12
      Number of threads:                 1

	Batch   1 pq = [       0,    9405] index = [             0,44231715] size =     44231715
	Batch   2 pq = [    9405,   13301] index = [      44231715,88464951] size =     44233236
	Batch   3 pq = [   13301,   16290] index = [      88464951,132690195] size =     44225244
	Batch   4 pq = [   16290,   18810] index = [     132690195,176917455] size =     44227260
	Batch   5 pq = [   18810,   21030] index = [     176917455,221140965] size =     44223510
	Batch   6 pq = [   21030,   23037] index = [     221140965,265363203] size =     44222238
	Batch   7 pq = [   23037,   24310] index = [     265363203,295500205] size =     30137002
  Task number: 27
  Buffer size: 11059200
  Buffer per thread: 2
  We computed 15484913 shell quartets total.
  Whereas there are 17325441 unique shell quartets.

  ==> DiskJK: Disk-Based J/K Matrices <==

    J tasked:                  Yes
    K tasked:                  Yes
    wK tasked:                  No
    Memory [MiB]:              375
    Schwarz Cutoff:          1E-12

    OpenMP threads:              1

  Minimum eigenvalue in the overlap matrix is 3.1689090701E-04.
  Using Symmetric Orthogonalization.

  SCF Guess: Superposition of Atomic Densities via on-the-fly atomic UHF.

  ==> Iterations <==

                        Total Energy        Delta E     RMS |[F,P]|

   @RHF iter SAD:  -386.86089139358614   -3.86861e+02   0.00000e+00
   @RHF iter   1:  -387.77796457420260   -9.17073e-01   2.72109e-03 DIIS
   @RHF iter   2:  -387.99239996874229   -2.14435e-01   1.13031e-03 DIIS
   @RHF iter   3:  -388.02623310881000   -3.38331e-02   2.47391e-04 DIIS
   @RHF iter   4:  -388.02906783546803   -2.83473e-03   5.84937e-05 DIIS
   @RHF iter   5:  -388.02917082033377   -1.02985e-04   2.12588e-05 DIIS
   @RHF iter   6:  -388.02918520149871   -1.43812e-05   3.96590e-06 DIIS
   @RHF iter   7:  -388.02918586759228   -6.66094e-07   1.14086e-06 DIIS
   @RHF iter   8:  -388.02918592439840   -5.68061e-08   3.46391e-07 DIIS
   @RHF iter   9:  -388.02918593502193   -1.06235e-08   1.62126e-07 DIIS
   @RHF iter  10:  -388.02918593836858   -3.34666e-09   8.34171e-08 DIIS
   @RHF iter  11:  -388.02918593939984   -1.03125e-09   2.49625e-08 DIIS
   @RHF iter  12:  -388.02918593947760   -7.77618e-11   9.17063e-09 DIIS
   @RHF iter  13:  -388.02918593948129   -3.69482e-12   3.55804e-09 DIIS
   @RHF iter  14:  -388.02918593948249   -1.19371e-12   8.06753e-10 DIIS
   @RHF iter  15:  -388.02918593948482   -2.33058e-12   3.52378e-10 DIIS
   @RHF iter  16:  -388.02918593948641   -1.59162e-12   1.40790e-10 DIIS
   @RHF iter  17:  -388.02918593948345    2.95586e-12   6.69039e-11 DIIS
  Energy and wave function converged.

  ==> Post-Iterations <==

    Orbital Energies [Eh]
    ---------------------

    Doubly Occupied:

       1A    -11.237676     2A    -11.236839     3A    -11.235786
       4A    -11.232383     5A    -11.231632     6A    -11.230465
       7A    -11.228759     8A    -11.223535     9A    -11.217184
      10A    -11.210949    11A     -1.152196    12A     -1.062969
      13A     -1.016924    14A     -1.010616    15A     -0.981105
      16A     -0.862402    17A     -0.835622    18A     -0.824435
      19A     -0.785504    20A     -0.689995    21A     -0.639960
      22A     -0.635296    23A     -0.598951    24A     -0.594685
      25A     -0.589866    26A     -0.586140    27A     -0.576789
      28A     -0.542206    29A     -0.517972    30A     -0.501827
      31A     -0.500484    32A     -0.484753    33A     -0.481589
      34A     -0.478383    35A     -0.475147    36A     -0.467855
      37A     -0.331203    38A     -0.320836

    Virtual:

      39A      0.134802    40A      0.138552    41A      0.173383
      42A      0.189941    43A      0.203346    44A      0.207451
      45A      0.230741    46A      0.237684    47A      0.241628
      48A      0.248516    49A      0.256243    50A      0.262363
      51A      0.272246    52A      0.285801    53A      0.294025
      54A      0.306277    55A      0.310538    56A      0.323945
      57A      0.355670    58A      0.392759    59A      0.400336
      60A      0.422803    61A      0.450746    62A      0.466657
      63A      0.491322    64A      0.498644    65A      0.569979
      66A      0.586683    67A      0.590137    68A      0.602995
      69A      0.603109    70A      0.628274    71A      0.633565
      72A      0.669648    73A      0.681259    74A      0.688646
      75A      0.700179    76A      0.718655    77A      0.725565
      78A      0.739630    79A      0.742369    80A      0.745260
      81A      0.748596    82A      0.758916    83A      0.785154
      84A      0.793097    85A      0.826091    86A      0.843804
      87A      0.859642    88A      0.861847    89A      0.872336
      90A      0.881025    91A      0.888341    92A      0.890525
      93A      0.901676    94A      0.901936    95A      0.907348
      96A      0.908937    97A      0.917404    98A      0.922044
      99A      0.928599   100A      0.939706   101A      0.954053
     102A      0.963869   103A      0.969729   104A      0.992290
     105A      0.998301   106A      1.022094   107A      1.043473
     108A      1.087933   109A      1.116193   110A      1.119215
     111A      1.134004   112A      1.139903   113A      1.145117
     114A      1.158501   115A      1.187363   116A      1.217163
     117A      1.241097   118A      1.247788   119A      1.249559
     120A      1.290248   121A      1.297943   122A      1.300147
     123A      1.317919   124A      1.321456   125A      1.394568
     126A      1.430669   127A      1.434440   128A      1.481063
     129A      1.490200   130A      1.509253   131A      1.533374
     132A      1.595587   133A      1.609487   134A      1.621279
     135A      1.676141   136A      1.685015   137A      1.689410
     138A      1.706765   139A      1.735660   140A      1.738347
     141A      1.760904   142A      1.768919   143A      1.840489
     144A      1.854803   145A      1.858315   146A      1.867488
     147A      1.874593   148A      1.882948   149A      1.891088
     150A      1.895837   151A      1.898452   152A      1.915709
     153A      1.920303   154A      1.928646   155A      1.935327
     156A      1.941806   157A      1.945652   158A      1.949317
     159A      1.955104   160A      1.959635   161A      1.967053
     162A      1.971442   163A      1.982561   164A      1.991414
     165A      2.002197   166A      2.018230   167A      2.037653
     168A      2.059247   169A      2.080235   170A      2.098809
     171A      2.120772   172A      2.141856   173A      2.150011
     174A      2.156145   175A      2.158321   176A      2.164016
     177A      2.167437   178A      2.188866   179A      2.234930
     180A      2.252804   181A      2.272339   182A      2.300208
     183A      2.312873   184A      2.318850   185A      2.324308
     186A      2.351999   187A      2.385546   188A      2.445056
     189A      2.454615   190A      2.458906   191A      2.479517
     192A      2.491414   193A      2.519866   194A      2.541269
     195A      2.580293   196A      2.588400   197A      2.604418
     198A      2.633532   199A      2.742134   200A      2.760732
     201A      2.764351   202A      2.772190   203A      2.781864
     204A      2.801437   205A      2.808024   206A      2.846703
     207A      2.853611   208A      2.867902   209A      2.878147
     210A      2.912527   211A      2.960121   212A      2.963572
     213A      2.979276   214A      2.995463   215A      3.022649
     216A      3.050921   217A      3.185158   218A      3.202166
     219A      3.300512   220A      3.962658

    Final Occupation by Irrep:
              A
    DOCC [    38 ]

  @RHF Final Energy:  -388.02918593948345

   => Energetics <=

    Nuclear Repulsion Energy =            488.7435308381341770
    One-Electron Energy =               -1491.8835985395983244
    Two-Electron Energy =                 615.1108817619807496
    Total Energy =                       -388.0291859394834546

Computation Completed

Properties will be evaluated at   0.000000,   0.000000,   0.000000 [a0]

Properties computed using the SCF density matrix

  Nuclear Dipole Moment: [e a0]
     X:     2.8169      Y:     9.2582      Z:    10.8497

  Electronic Dipole Moment: [e a0]
     X:    -2.8761      Y:    -9.1913      Z:   -10.8402

  Dipole Moment: [e a0]
     X:    -0.0592      Y:     0.0670      Z:     0.0095     Total:     0.0899

  Dipole Moment: [D]
     X:    -0.1504      Y:     0.1702      Z:     0.0241     Total:     0.2284

*** tstop() called on ds3 at Sun Apr 26 20:33:11 2020
Module time:
	user time   =     109.92 seconds =       1.83 minutes
	system time =      45.04 seconds =       0.75 minutes
	total time  =        149 seconds =       2.48 minutes
Total time:
	user time   =     109.92 seconds =       1.83 minutes
	system time =      45.04 seconds =       0.75 minutes
	total time  =        149 seconds =       2.48 minutes
                                     G D M A

                                 by Anthony Stone

                           version 2.2.06, 22 June 2011

               Distributed Multipoles from Gaussian wavefunctions

Starting at 20:33:11 on 26 Apr 2020

Using SCF density matrix from file ./SSI/SSI-153PHE-163LEU-1-dimer.test.10729.fchk

                         Distributed Multipole Analysis

Standard DMA

Positions and radii in angstrom
Multipole moments in atomic units, ea_0^k for rank k

C          x = -0.957936  y =  1.242858  z =  0.298200 angstrom
           Maximum rank =  0   Radius =  0.650 angstrom
                   Q00  =  -0.038616

C          x = -2.351936  y =  1.757858  z = -0.062800 angstrom
           Maximum rank =  0   Radius =  0.650 angstrom
                   Q00  =  -0.227234

C          x = -0.542936  y =  0.019858  z = -0.467800 angstrom
           Maximum rank =  0   Radius =  0.650 angstrom
                   Q00  =  -0.106636

C          x = -0.045936  y =  0.132858  z = -1.768800 angstrom
           Maximum rank =  0   Radius =  0.650 angstrom
                   Q00  =  -0.066953

C          x = -0.680936  y = -1.244142  z =  0.102200 angstrom
           Maximum rank =  0   Radius =  0.650 angstrom
                   Q00  =  -0.007599

C          x =  0.305064  y = -1.008142  z = -2.494800 angstrom
           Maximum rank =  0   Radius =  0.650 angstrom
                   Q00  =  -0.069560

C          x = -0.335936  y = -2.388142  z = -0.617800 angstrom
           Maximum rank =  0   Radius =  0.650 angstrom
                   Q00  =  -0.071642

C          x =  0.160064  y = -2.272142  z = -1.917800 angstrom
           Maximum rank =  0   Radius =  0.650 angstrom
                   Q00  =  -0.096312

H          x = -0.227936  y =  2.031858  z =  0.105200 angstrom
           Maximum rank =  0   Radius =  0.325 angstrom
                   Q00  =   0.063548

H          x = -0.930936  y =  1.022858  z =  1.365200 angstrom
           Maximum rank =  0   Radius =  0.325 angstrom
                   Q00  =   0.065641

H          x = -3.092936  y =  1.010858  z =  0.209200 angstrom
           Maximum rank =  0   Radius =  0.325 angstrom
                   Q00  =   0.086293

H          x =  0.066064  y =  1.105858  z = -2.224800 angstrom
           Maximum rank =  0   Radius =  0.325 angstrom
                   Q00  =   0.056594

H          x = -1.053936  y = -1.348142  z =  1.109200 angstrom
           Maximum rank =  0   Radius =  0.325 angstrom
                   Q00  =   0.056756

H          x =  0.682064  y = -0.902142  z = -3.500800 angstrom
           Maximum rank =  0   Radius =  0.325 angstrom
                   Q00  =   0.066091

H          x = -0.472936  y = -3.364142  z = -0.174800 angstrom
           Maximum rank =  0   Radius =  0.325 angstrom
                   Q00  =   0.065834

H          x =  0.429064  y = -3.161142  z = -2.466800 angstrom
           Maximum rank =  0   Radius =  0.325 angstrom
                   Q00  =   0.062661

H          x = -2.419356  y =  1.985108  z = -1.136960 angstrom
           Maximum rank =  0   Radius =  0.325 angstrom
                   Q00  =   0.084064

H          x = -2.550956  y =  2.686108  z =  0.492840 angstrom
           Maximum rank =  0   Radius =  0.325 angstrom
                   Q00  =   0.081242

C          x =  1.977064  y =  0.777858  z =  2.673200 angstrom
           Maximum rank =  0   Radius =  0.650 angstrom
                   Q00  =  -0.243298

C          x =  2.221064  y =  2.151858  z =  3.284200 angstrom
           Maximum rank =  0   Radius =  0.650 angstrom
                   Q00  =  -0.228543

H          x =  1.395064  y =  0.159858  z =  3.352200 angstrom
           Maximum rank =  0   Radius =  0.325 angstrom
                   Q00  =   0.074576

H          x =  1.436064  y =  0.887858  z =  1.735200 angstrom
           Maximum rank =  0   Radius =  0.325 angstrom
                   Q00  =   0.081069

H          x =  2.902064  y =  0.273858  z =  2.425200 angstrom
           Maximum rank =  0   Radius =  0.325 angstrom
                   Q00  =   0.081465

H          x =  3.023064  y =  2.640858  z =  2.731200 angstrom
           Maximum rank =  0   Radius =  0.325 angstrom
                   Q00  =   0.078005

H          x =  2.503814  y =  2.073118  z =  4.344320 angstrom
           Maximum rank =  0   Radius =  0.325 angstrom
                   Q00  =   0.078071

H          x =  1.316534  y =  2.773138  z =  3.207800 angstrom
           Maximum rank =  0   Radius =  0.325 angstrom
                   Q00  =   0.074481

Total multipoles referred to origin at
           x =   0.000000,  y =    0.000000,  z =    0.000000 angstrom
                   Q00  =  -0.000000

Finished at 20:33:11 on 26 Apr 2020

  DMA results are available in the Python driver through the
	  variable('DMA DISTRIBUTED MULTIPOLES')
  and
	  variable('DMA TOTAL MULTIPOLES')
  commands.

    Psi4 stopped on: Sunday, 26 April 2020 08:33PM
    Psi4 wall time for execution: 0:02:29.25

*** Psi4 exiting successfully. Buy a developer a beer!
