                               Psi4 1.3.2 release

  ==> Input File <==

--------------------------------------------------------------------------
import numpy as np
set {scf_type pk
basis cc-pvdz
d_convergence 10
gdma_switch   0
gdma_limit    0
gdma_origin   [ 0.0,  0.0,  0.0 ]
}
molecule test {
    units Angstrom
    0 1
    --
    0 1
    C               -1.902316331840373     2.802940695059285    -0.974571137087144
    C               -3.158316331840372     3.485940695059285    -0.467571137087144
    H               -2.015316331840372     1.719940695059285    -0.972571137087144
    H               -1.723316331840373     3.118940695059285    -2.001571137087145
    H               -1.048316331840372     3.087940695059285    -0.358571137087144
    H               -4.000316331840373     3.169940695059285    -1.083571137087145
    H               -3.011316331840372     4.553940695059286    -0.619571137087145
    H               -3.384026331840372     3.284590695059285     0.590028862912856
    C               -0.042316331840372    -3.117059304940715     1.957428862912856
    C                0.477683668159628     0.413940695059285     0.611428862912855
    C                0.110683668159628    -0.646059304940715     1.431428862912856
    C                1.059683668159628     0.165940695059285    -0.625571137087145
    C                0.324683668159628    -1.965059304940715     1.042428862912856
    C                1.281683668159628    -1.146059304940715    -1.033571137087145
    C                0.917683668159628    -2.205059304940715    -0.199571137087144
    O                1.411683668159628     1.209940695059285    -1.427571137087144
    H                0.302683668159628     1.430940695059285     0.932428862912856
    H               -0.407316331840372    -0.423059304940715     2.348428862912856
    H                1.386683668159628     2.044940695059285    -0.929571137087145
    H                1.737683668159628    -1.335059304940715    -1.994571137087144
    H                0.405683668159628    -2.985059304940715     2.935428862912855
    H                0.457683668159628    -3.999059304940715     1.551428862912855
    H                1.096683668159628    -3.222059304940715    -0.525571137087145
    H               -1.118186331840373    -3.329069304940715     2.044388862912855

}
e, wfn = energy('scf', return_wfn=True)
gdma(wfn)
dmavals = variable('DMA DISTRIBUTED MULTIPOLES')
charges = np.array(dmavals)
print(charges)
np.save('SSI-118ILE-178TYR-1-dimer.npy', np.array(charges))--------------------------------------------------------------------------

*** tstart() called on ds3
*** at Mon Apr 27 23:50:37 2020

   => Loading Basis Set <=

    Name: CC-PVDZ
    Role: ORBITAL
    Keyword: BASIS
    atoms 1-2, 9-15  entry C          line   138 file /theoryfs2/ds/metcalf/miniconda2/envs/tf2gpu/share/psi4/basis/cc-pvdz.gbs
    atoms 3-8, 17-24 entry H          line    22 file /theoryfs2/ds/metcalf/miniconda2/envs/tf2gpu/share/psi4/basis/cc-pvdz.gbs
    atoms 16         entry O          line   198 file /theoryfs2/ds/metcalf/miniconda2/envs/tf2gpu/share/psi4/basis/cc-pvdz.gbs

         ---------------------------------------------------------
                                   SCF
               by Justin Turney, Rob Parrish, Andy Simmonett
                          and Daniel G. A. Smith
                              RHF Reference
                        1 Threads,    500 MiB Core
         ---------------------------------------------------------

  ==> Geometry <==

    Molecular point group: c1
    Full point group: C1

    Geometry (in Angstrom), charge = 0, multiplicity = 1:

       Center              X                  Y                   Z               Mass
    ------------   -----------------  -----------------  -----------------  -----------------
         C           -1.902316331840     2.802940695059    -0.974571137087    12.000000000000
         C           -3.158316331840     3.485940695059    -0.467571137087    12.000000000000
         H           -2.015316331840     1.719940695059    -0.972571137087     1.007825032230
         H           -1.723316331840     3.118940695059    -2.001571137087     1.007825032230
         H           -1.048316331840     3.087940695059    -0.358571137087     1.007825032230
         H           -4.000316331840     3.169940695059    -1.083571137087     1.007825032230
         H           -3.011316331840     4.553940695059    -0.619571137087     1.007825032230
         H           -3.384026331840     3.284590695059     0.590028862913     1.007825032230
         C           -0.042316331840    -3.117059304941     1.957428862913    12.000000000000
         C            0.477683668160     0.413940695059     0.611428862913    12.000000000000
         C            0.110683668160    -0.646059304941     1.431428862913    12.000000000000
         C            1.059683668160     0.165940695059    -0.625571137087    12.000000000000
         C            0.324683668160    -1.965059304941     1.042428862913    12.000000000000
         C            1.281683668160    -1.146059304941    -1.033571137087    12.000000000000
         C            0.917683668160    -2.205059304941    -0.199571137087    12.000000000000
         O            1.411683668160     1.209940695059    -1.427571137087    15.994914619570
         H            0.302683668160     1.430940695059     0.932428862913     1.007825032230
         H           -0.407316331840    -0.423059304941     2.348428862913     1.007825032230
         H            1.386683668160     2.044940695059    -0.929571137087     1.007825032230
         H            1.737683668160    -1.335059304941    -1.994571137087     1.007825032230
         H            0.405683668160    -2.985059304941     2.935428862913     1.007825032230
         H            0.457683668160    -3.999059304941     1.551428862913     1.007825032230
         H            1.096683668160    -3.222059304941    -0.525571137087     1.007825032230
         H           -1.118186331840    -3.329069304941     2.044388862913     1.007825032230

  Running in c1 symmetry.

  Rotational constants: A =      0.05858  B =      0.01945  C =      0.01584 [cm^-1]
  Rotational constants: A =   1756.28143  B =    583.06889  C =    474.80862 [MHz]
  Nuclear repulsion =  489.978092382475097

  Charge       = 0
  Multiplicity = 1
  Electrons    = 76
  Nalpha       = 38
  Nbeta        = 38

  ==> Algorithm <==

  SCF Algorithm Type is PK.
  DIIS enabled.
  MOM disabled.
  Fractional occupation disabled.
  Guess Type is SAD.
  Energy threshold   = 1.00e-06
  Density threshold  = 1.00e-10
  Integral threshold = 0.00e+00

  ==> Primary Basis <==

  Basis Set: CC-PVDZ
    Blend: CC-PVDZ
    Number of shells: 102
    Number of basis function: 210
    Number of Cartesian functions: 220
    Spherical Harmonics?: true
    Max angular momentum: 2

  ==> Pre-Iterations <==

   -------------------------------------------------------
    Irrep   Nso     Nmo     Nalpha   Nbeta   Ndocc  Nsocc
   -------------------------------------------------------
     A        210     210       0       0       0       0
   -------------------------------------------------------
    Total     210     210      38      38      38       0
   -------------------------------------------------------

  ==> Integral Setup <==

  Using integral reordering PK algorithm.
  Sizing the integral batches needed.
  Building batch lookup table.
   Calculation information:
      Number of atoms:                  24
      Number of AO shells:             102
      Number of primitives:            290
      Number of atomic orbitals:       220
      Number of basis functions:       210

      Integral cutoff                 1.00e-12
      Number of threads:                 1

	Batch   1 pq = [       0,    9405] index = [             0,44231715] size =     44231715
	Batch   2 pq = [    9405,   13301] index = [      44231715,88464951] size =     44233236
	Batch   3 pq = [   13301,   16290] index = [      88464951,132690195] size =     44225244
	Batch   4 pq = [   16290,   18810] index = [     132690195,176917455] size =     44227260
	Batch   5 pq = [   18810,   21030] index = [     176917455,221140965] size =     44223510
	Batch   6 pq = [   21030,   22155] index = [     221140965,245433090] size =     24292125
  Task number: 23
  Buffer size: 11059200
  Buffer per thread: 2
  We computed 10913336 shell quartets total.
  Whereas there are 13799631 unique shell quartets.

  ==> DiskJK: Disk-Based J/K Matrices <==

    J tasked:                  Yes
    K tasked:                  Yes
    wK tasked:                  No
    Memory [MiB]:              375
    Schwarz Cutoff:          1E-12

    OpenMP threads:              1

  Minimum eigenvalue in the overlap matrix is 3.2407680249E-04.
  Using Symmetric Orthogonalization.

  SCF Guess: Superposition of Atomic Densities via on-the-fly atomic UHF.

  ==> Iterations <==

                        Total Energy        Delta E     RMS |[F,P]|

   @RHF iter SAD:  -422.69777120828064   -4.22698e+02   0.00000e+00
   @RHF iter   1:  -423.59857201766351   -9.00801e-01   2.98765e-03 DIIS
   @RHF iter   2:  -423.81607324692834   -2.17501e-01   1.26368e-03 DIIS
   @RHF iter   3:  -423.85130138969583   -3.52281e-02   2.84029e-04 DIIS
   @RHF iter   4:  -423.85417803359786   -2.87664e-03   1.17316e-04 DIIS
   @RHF iter   5:  -423.85453079245190   -3.52759e-04   2.08254e-05 DIIS
   @RHF iter   6:  -423.85454841989184   -1.76274e-05   6.38873e-06 DIIS
   @RHF iter   7:  -423.85455002947015   -1.60958e-06   2.03777e-06 DIIS
   @RHF iter   8:  -423.85455023780634   -2.08336e-07   7.44440e-07 DIIS
   @RHF iter   9:  -423.85455026701629   -2.92100e-08   2.70517e-07 DIIS
   @RHF iter  10:  -423.85455027158650   -4.57021e-09   1.03551e-07 DIIS
   @RHF iter  11:  -423.85455027276441   -1.17791e-09   4.70115e-08 DIIS
   @RHF iter  12:  -423.85455027303539   -2.70973e-10   2.52401e-08 DIIS
   @RHF iter  13:  -423.85455027310019   -6.48015e-11   7.84859e-09 DIIS
   @RHF iter  14:  -423.85455027310456   -4.37694e-12   2.15616e-09 DIIS
   @RHF iter  15:  -423.85455027310581   -1.25056e-12   7.02687e-10 DIIS
   @RHF iter  16:  -423.85455027310519    6.25278e-13   2.21940e-10 DIIS
   @RHF iter  17:  -423.85455027310684   -1.64846e-12   9.27679e-11 DIIS
  Energy and wave function converged.

  ==> Post-Iterations <==

    Orbital Energies [Eh]
    ---------------------

    Doubly Occupied:

       1A    -20.583308     2A    -11.297367     3A    -11.238646
       4A    -11.236616     5A    -11.233601     6A    -11.231111
       7A    -11.229698     8A    -11.227540     9A    -11.218416
      10A    -11.217314    11A     -1.397516    12A     -1.149638
      13A     -1.035096    14A     -1.023598    15A     -1.016896
      16A     -0.925510    17A     -0.843970    18A     -0.836927
      19A     -0.800882    20A     -0.729467    21A     -0.667040
      22A     -0.640426    23A     -0.608854    24A     -0.602732
      25A     -0.600810    26A     -0.586108    27A     -0.584862
      28A     -0.573491    29A     -0.561521    30A     -0.522349
      31A     -0.504683    32A     -0.496483    33A     -0.488158
      34A     -0.484501    35A     -0.481500    36A     -0.467518
      37A     -0.337478    38A     -0.302291

    Virtual:

      39A      0.131067    40A      0.156183    41A      0.166307
      42A      0.186715    43A      0.196845    44A      0.215840
      45A      0.221715    46A      0.245367    47A      0.254776
      48A      0.257494    49A      0.266941    50A      0.272039
      51A      0.276607    52A      0.286635    53A      0.295403
      54A      0.324269    55A      0.371472    56A      0.375561
      57A      0.394911    58A      0.430237    59A      0.455217
      60A      0.485292    61A      0.497152    62A      0.510331
      63A      0.587148    64A      0.598978    65A      0.602615
      66A      0.616807    67A      0.633932    68A      0.649898
      69A      0.658370    70A      0.671084    71A      0.679246
      72A      0.692671    73A      0.710016    74A      0.714997
      75A      0.731427    76A      0.738384    77A      0.763476
      78A      0.766127    79A      0.772568    80A      0.788149
      81A      0.806692    82A      0.827393    83A      0.850194
      84A      0.867382    85A      0.879707    86A      0.882642
      87A      0.889672    88A      0.891837    89A      0.895228
      90A      0.897286    91A      0.898926    92A      0.913434
      93A      0.920969    94A      0.926989    95A      0.932196
      96A      0.941124    97A      0.945740    98A      0.969852
      99A      0.980338   100A      1.014357   101A      1.024683
     102A      1.066900   103A      1.121022   104A      1.126435
     105A      1.136471   106A      1.144882   107A      1.151265
     108A      1.171320   109A      1.204158   110A      1.232573
     111A      1.240694   112A      1.249749   113A      1.270983
     114A      1.292119   115A      1.301250   116A      1.313294
     117A      1.317923   118A      1.352890   119A      1.369382
     120A      1.388384   121A      1.464222   122A      1.484848
     123A      1.488158   124A      1.505133   125A      1.517175
     126A      1.538922   127A      1.580113   128A      1.621594
     129A      1.640058   130A      1.681062   131A      1.686523
     132A      1.694622   133A      1.700413   134A      1.735129
     135A      1.747419   136A      1.780185   137A      1.804859
     138A      1.808527   139A      1.859349   140A      1.866859
     141A      1.878208   142A      1.887642   143A      1.892818
     144A      1.900891   145A      1.907413   146A      1.922871
     147A      1.928104   148A      1.946290   149A      1.949634
     150A      1.952637   151A      1.958177   152A      1.971571
     153A      1.973579   154A      1.983931   155A      1.999492
     156A      2.013532   157A      2.019822   158A      2.046446
     159A      2.062084   160A      2.072750   161A      2.082304
     162A      2.092735   163A      2.114345   164A      2.126224
     165A      2.153666   166A      2.186772   167A      2.205685
     168A      2.223070   169A      2.257684   170A      2.273385
     171A      2.304156   172A      2.310243   173A      2.317367
     174A      2.345015   175A      2.369262   176A      2.401670
     177A      2.447464   178A      2.451131   179A      2.475632
     180A      2.479573   181A      2.509572   182A      2.524628
     183A      2.554171   184A      2.561580   185A      2.583054
     186A      2.607351   187A      2.639945   188A      2.741169
     189A      2.768859   190A      2.774137   191A      2.789630
     192A      2.801175   193A      2.812322   194A      2.852974
     195A      2.857907   196A      2.862573   197A      2.898819
     198A      2.950562   199A      2.963449   200A      2.979052
     201A      2.999477   202A      3.083479   203A      3.111243
     204A      3.263016   205A      3.281843   206A      3.345192
     207A      3.580858   208A      3.674367   209A      3.964115
     210A      4.171721

    Final Occupation by Irrep:
              A
    DOCC [    38 ]

  @RHF Final Energy:  -423.85455027310684

   => Energetics <=

    Nuclear Repulsion Energy =            489.9780923824750971
    One-Electron Energy =               -1545.6974423044257492
    Two-Electron Energy =                 631.8647996488438139
    Total Energy =                       -423.8545502731068382

Computation Completed

Properties will be evaluated at   0.000000,   0.000000,   0.000000 [a0]

Properties computed using the SCF density matrix

  Nuclear Dipole Moment: [e a0]
     X:   -10.6063      Y:     6.6785      Z:     1.7899

  Electronic Dipole Moment: [e a0]
     X:    10.4715      Y:    -6.5009      Z:    -1.2943

  Dipole Moment: [e a0]
     X:    -0.1348      Y:     0.1777      Z:     0.4955     Total:     0.5434

  Dipole Moment: [D]
     X:    -0.3426      Y:     0.4516      Z:     1.2595     Total:     1.3812

*** tstop() called on ds3 at Mon Apr 27 23:52:43 2020
Module time:
	user time   =      85.69 seconds =       1.43 minutes
	system time =      38.52 seconds =       0.64 minutes
	total time  =        126 seconds =       2.10 minutes
Total time:
	user time   =      85.69 seconds =       1.43 minutes
	system time =      38.52 seconds =       0.64 minutes
	total time  =        126 seconds =       2.10 minutes
                                     G D M A

                                 by Anthony Stone

                           version 2.2.06, 22 June 2011

               Distributed Multipoles from Gaussian wavefunctions

Starting at 23:52:43 on 27 Apr 2020

Using SCF density matrix from file ./SSI/SSI-118ILE-178TYR-1-dimer.test.4322.fchk

                         Distributed Multipole Analysis

Standard DMA

Positions and radii in angstrom
Multipole moments in atomic units, ea_0^k for rank k

C          x = -1.902316  y =  2.802941  z = -0.974571 angstrom
           Maximum rank =  0   Radius =  0.650 angstrom
                   Q00  =  -0.226852

C          x = -3.158316  y =  3.485941  z = -0.467571 angstrom
           Maximum rank =  0   Radius =  0.650 angstrom
                   Q00  =  -0.234668

H          x = -2.015316  y =  1.719941  z = -0.972571 angstrom
           Maximum rank =  0   Radius =  0.325 angstrom
                   Q00  =   0.089737

H          x = -1.723316  y =  3.118941  z = -2.001571 angstrom
           Maximum rank =  0   Radius =  0.325 angstrom
                   Q00  =   0.080449

H          x = -1.048316  y =  3.087941  z = -0.358571 angstrom
           Maximum rank =  0   Radius =  0.325 angstrom
                   Q00  =   0.056975

H          x = -4.000316  y =  3.169941  z = -1.083571 angstrom
           Maximum rank =  0   Radius =  0.325 angstrom
                   Q00  =   0.080603

H          x = -3.011316  y =  4.553941  z = -0.619571 angstrom
           Maximum rank =  0   Radius =  0.325 angstrom
                   Q00  =   0.073259

H          x = -3.384026  y =  3.284591  z =  0.590029 angstrom
           Maximum rank =  0   Radius =  0.325 angstrom
                   Q00  =   0.079914

C          x = -0.042316  y = -3.117059  z =  1.957429 angstrom
           Maximum rank =  0   Radius =  0.650 angstrom
                   Q00  =  -0.205600

C          x =  0.477684  y =  0.413941  z =  0.611429 angstrom
           Maximum rank =  0   Radius =  0.650 angstrom
                   Q00  =  -0.178596

C          x =  0.110684  y = -0.646059  z =  1.431429 angstrom
           Maximum rank =  0   Radius =  0.650 angstrom
                   Q00  =   0.035682

C          x =  1.059684  y =  0.165941  z = -0.625571 angstrom
           Maximum rank =  0   Radius =  0.650 angstrom
                   Q00  =   0.308654

C          x =  0.324684  y = -1.965059  z =  1.042429 angstrom
           Maximum rank =  0   Radius =  0.650 angstrom
                   Q00  =  -0.139150

C          x =  1.281684  y = -1.146059  z = -1.033571 angstrom
           Maximum rank =  0   Radius =  0.650 angstrom
                   Q00  =  -0.121710

C          x =  0.917684  y = -2.205059  z = -0.199571 angstrom
           Maximum rank =  0   Radius =  0.650 angstrom
                   Q00  =  -0.012919

O          x =  1.411684  y =  1.209941  z = -1.427571 angstrom
           Maximum rank =  0   Radius =  0.650 angstrom
                   Q00  =  -0.675498

H          x =  0.302684  y =  1.430941  z =  0.932429 angstrom
           Maximum rank =  0   Radius =  0.325 angstrom
                   Q00  =   0.070362

H          x = -0.407316  y = -0.423059  z =  2.348429 angstrom
           Maximum rank =  0   Radius =  0.325 angstrom
                   Q00  =   0.066677

H          x =  1.386684  y =  2.044941  z = -0.929571 angstrom
           Maximum rank =  0   Radius =  0.325 angstrom
                   Q00  =   0.412093

H          x =  1.737684  y = -1.335059  z = -1.994571 angstrom
           Maximum rank =  0   Radius =  0.325 angstrom
                   Q00  =   0.080876

H          x =  0.405684  y = -2.985059  z =  2.935429 angstrom
           Maximum rank =  0   Radius =  0.325 angstrom
                   Q00  =   0.100991

H          x =  0.457684  y = -3.999059  z =  1.551429 angstrom
           Maximum rank =  0   Radius =  0.325 angstrom
                   Q00  =   0.091350

H          x =  1.096684  y = -3.222059  z = -0.525571 angstrom
           Maximum rank =  0   Radius =  0.325 angstrom
                   Q00  =   0.065521

H          x = -1.118186  y = -3.329069  z =  2.044389 angstrom
           Maximum rank =  0   Radius =  0.325 angstrom
                   Q00  =   0.101851

Total multipoles referred to origin at
           x =   0.000000,  y =    0.000000,  z =    0.000000 angstrom
                   Q00  =  -0.000000

Finished at 23:52:43 on 27 Apr 2020

  DMA results are available in the Python driver through the
	  variable('DMA DISTRIBUTED MULTIPOLES')
  and
	  variable('DMA TOTAL MULTIPOLES')
  commands.

    Psi4 stopped on: Monday, 27 April 2020 11:52PM
    Psi4 wall time for execution: 0:02:06.51

*** Psi4 exiting successfully. Buy a developer a beer!
