                               Psi4 1.3.2 release

  ==> Input File <==

--------------------------------------------------------------------------
import numpy as np
set {scf_type pk
basis cc-pvdz
d_convergence 10
gdma_switch   0
gdma_limit    0
gdma_origin   [ 0.0,  0.0,  0.0 ]
}
molecule test {
    units Angstrom
    0 1
    --
    0 1
    C               -2.397636595846745     0.970837430092839     0.020733449877196
    C               -3.844636595846745     1.519837430092839    -0.008266550122804
    H               -2.328636595846745     0.036837430092839    -0.532266550122804
    H               -1.731636595846745     1.696837430092839    -0.445266550122804
    H               -2.064636595846745     0.811837430092839     1.044733449877196
    H               -3.846636595846745     2.466837430092839     0.531733449877196
    H               -4.537056595846746     0.838115430092839     0.507303449877196
    H               -4.205586595846745     1.712153430092839    -1.029406550122804
    C                0.110363404153255    -2.686162569907161    -0.041266550122804
    C                0.551363404153255    -0.455162569907161    -1.110266550122804
    C                0.666363404153255    -1.282162569907161    -0.009266550122804
    C                1.068363404153255     0.830837430092839    -1.101266550122804
    C                1.322363404153255    -0.793162569907161     1.113733449877196
    C                1.690363404153255     1.319837430092839     0.018733449877196
    C                1.820363404153255     0.507837430092839     1.128733449877196
    H                0.076363404153255    -0.820162569907161    -2.007266550122804
    H                0.974363404153255     1.452837430092839    -1.981266550122804
    H                0.902363404153255    -3.384162569907161     0.231733449877196
    H               -0.191636595846745    -2.915162569907161    -1.063266550122804
    H                1.476363404153255    -1.425162569907161     1.975733449877196
    H                2.108363404153255     2.315837430092839     0.023733449877196
    H                2.370363404153256     0.855837430092839     1.988733449877196
    H               -0.757616595846745    -2.839208669907161     0.616903449877196

}
e, wfn = energy('scf', return_wfn=True)
gdma(wfn)
dmavals = variable('DMA DISTRIBUTED MULTIPOLES')
charges = np.array(dmavals)
print(charges)
np.save('SSI-129VAL-159PHE-1-dimer.npy', np.array(charges))--------------------------------------------------------------------------

*** tstart() called on ds3
*** at Tue Apr 28 09:15:45 2020

   => Loading Basis Set <=

    Name: CC-PVDZ
    Role: ORBITAL
    Keyword: BASIS
    atoms 1-2, 9-15  entry C          line   138 file /theoryfs2/ds/metcalf/miniconda2/envs/tf2gpu/share/psi4/basis/cc-pvdz.gbs
    atoms 3-8, 16-23 entry H          line    22 file /theoryfs2/ds/metcalf/miniconda2/envs/tf2gpu/share/psi4/basis/cc-pvdz.gbs

         ---------------------------------------------------------
                                   SCF
               by Justin Turney, Rob Parrish, Andy Simmonett
                          and Daniel G. A. Smith
                              RHF Reference
                        1 Threads,    500 MiB Core
         ---------------------------------------------------------

  ==> Geometry <==

    Molecular point group: c1
    Full point group: C1

    Geometry (in Angstrom), charge = 0, multiplicity = 1:

       Center              X                  Y                   Z               Mass
    ------------   -----------------  -----------------  -----------------  -----------------
         C           -2.397636595847     0.970837430093     0.020733449877    12.000000000000
         C           -3.844636595847     1.519837430093    -0.008266550123    12.000000000000
         H           -2.328636595847     0.036837430093    -0.532266550123     1.007825032230
         H           -1.731636595847     1.696837430093    -0.445266550123     1.007825032230
         H           -2.064636595847     0.811837430093     1.044733449877     1.007825032230
         H           -3.846636595847     2.466837430093     0.531733449877     1.007825032230
         H           -4.537056595847     0.838115430093     0.507303449877     1.007825032230
         H           -4.205586595847     1.712153430093    -1.029406550123     1.007825032230
         C            0.110363404153    -2.686162569907    -0.041266550123    12.000000000000
         C            0.551363404153    -0.455162569907    -1.110266550123    12.000000000000
         C            0.666363404153    -1.282162569907    -0.009266550123    12.000000000000
         C            1.068363404153     0.830837430093    -1.101266550123    12.000000000000
         C            1.322363404153    -0.793162569907     1.113733449877    12.000000000000
         C            1.690363404153     1.319837430093     0.018733449877    12.000000000000
         C            1.820363404153     0.507837430093     1.128733449877    12.000000000000
         H            0.076363404153    -0.820162569907    -2.007266550123     1.007825032230
         H            0.974363404153     1.452837430093    -1.981266550123     1.007825032230
         H            0.902363404153    -3.384162569907     0.231733449877     1.007825032230
         H           -0.191636595847    -2.915162569907    -1.063266550123     1.007825032230
         H            1.476363404153    -1.425162569907     1.975733449877     1.007825032230
         H            2.108363404153     2.315837430093     0.023733449877     1.007825032230
         H            2.370363404153     0.855837430093     1.988733449877     1.007825032230
         H           -0.757616595847    -2.839208669907     0.616903449877     1.007825032230

  Running in c1 symmetry.

  Rotational constants: A =      0.06042  B =      0.02983  C =      0.02452 [cm^-1]
  Rotational constants: A =   1811.39441  B =    894.33295  C =    735.23471 [MHz]
  Nuclear repulsion =  414.972348135294226

  Charge       = 0
  Multiplicity = 1
  Electrons    = 68
  Nalpha       = 34
  Nbeta        = 34

  ==> Algorithm <==

  SCF Algorithm Type is PK.
  DIIS enabled.
  MOM disabled.
  Fractional occupation disabled.
  Guess Type is SAD.
  Energy threshold   = 1.00e-06
  Density threshold  = 1.00e-10
  Integral threshold = 0.00e+00

  ==> Primary Basis <==

  Basis Set: CC-PVDZ
    Blend: CC-PVDZ
    Number of shells: 96
    Number of basis function: 196
    Number of Cartesian functions: 205
    Spherical Harmonics?: true
    Max angular momentum: 2

  ==> Pre-Iterations <==

   -------------------------------------------------------
    Irrep   Nso     Nmo     Nalpha   Nbeta   Ndocc  Nsocc
   -------------------------------------------------------
     A        196     196       0       0       0       0
   -------------------------------------------------------
    Total     196     196      34      34      34       0
   -------------------------------------------------------

  ==> Integral Setup <==

  Using integral reordering PK algorithm.
  Sizing the integral batches needed.
  Building batch lookup table.
   Calculation information:
      Number of atoms:                  23
      Number of AO shells:              96
      Number of primitives:            268
      Number of atomic orbitals:       205
      Number of basis functions:       196

      Integral cutoff                 1.00e-12
      Number of threads:                 1

	Batch   1 pq = [       0,    9405] index = [             0,44231715] size =     44231715
	Batch   2 pq = [    9405,   13301] index = [      44231715,88464951] size =     44233236
	Batch   3 pq = [   13301,   16290] index = [      88464951,132690195] size =     44225244
	Batch   4 pq = [   16290,   18810] index = [     132690195,176917455] size =     44227260
	Batch   5 pq = [   18810,   19306] index = [     176917455,186370471] size =      9453016
  Task number: 17
  Buffer size: 11059200
  Buffer per thread: 2
  We computed 10040188 shell quartets total.
  Whereas there are 10841496 unique shell quartets.

  ==> DiskJK: Disk-Based J/K Matrices <==

    J tasked:                  Yes
    K tasked:                  Yes
    wK tasked:                  No
    Memory [MiB]:              375
    Schwarz Cutoff:          1E-12

    OpenMP threads:              1

  Minimum eigenvalue in the overlap matrix is 2.9292339748E-04.
  Using Symmetric Orthogonalization.

  SCF Guess: Superposition of Atomic Densities via on-the-fly atomic UHF.

  ==> Iterations <==

                        Total Energy        Delta E     RMS |[F,P]|

   @RHF iter SAD:  -347.92885724413759   -3.47929e+02   0.00000e+00
   @RHF iter   1:  -348.76501537290784   -8.36158e-01   2.90670e-03 DIIS
   @RHF iter   2:  -348.95854203383448   -1.93527e-01   1.20665e-03 DIIS
   @RHF iter   3:  -348.98891593871951   -3.03739e-02   2.57683e-04 DIIS
   @RHF iter   4:  -348.99136888613873   -2.45295e-03   5.23043e-05 DIIS
   @RHF iter   5:  -348.99144201905477   -7.31329e-05   1.71895e-05 DIIS
   @RHF iter   6:  -348.99144941082034   -7.39177e-06   4.72484e-06 DIIS
   @RHF iter   7:  -348.99145006445860   -6.53638e-07   1.35362e-06 DIIS
   @RHF iter   8:  -348.99145013363182   -6.91732e-08   3.80575e-07 DIIS
   @RHF iter   9:  -348.99145014690930   -1.32775e-08   1.80915e-07 DIIS
   @RHF iter  10:  -348.99145015037595   -3.46665e-09   8.37117e-08 DIIS
   @RHF iter  11:  -348.99145015132927   -9.53321e-10   3.00208e-08 DIIS
   @RHF iter  12:  -348.99145015141420   -8.49241e-11   1.34788e-08 DIIS
   @RHF iter  13:  -348.99145015142682   -1.26192e-11   3.78119e-09 DIIS
   @RHF iter  14:  -348.99145015142767   -8.52651e-13   1.00401e-09 DIIS
   @RHF iter  15:  -348.99145015142756    1.13687e-13   4.65732e-10 DIIS
   @RHF iter  16:  -348.99145015142778   -2.27374e-13   2.08652e-10 DIIS
   @RHF iter  17:  -348.99145015142642    1.36424e-12   7.95513e-11 DIIS
  Energy and wave function converged.

  ==> Post-Iterations <==

    Orbital Energies [Eh]
    ---------------------

    Doubly Occupied:

       1A    -11.238175     2A    -11.232794     3A    -11.230622
       4A    -11.229712     5A    -11.229034     6A    -11.227060
       7A    -11.226407     8A    -11.214100     9A    -11.208099
      10A     -1.157176    11A     -1.046892    12A     -1.011945
      13A     -1.004916    14A     -0.933039    15A     -0.831697
      16A     -0.826126    17A     -0.796207    18A     -0.693182
      19A     -0.633294    20A     -0.627519    21A     -0.587638
      22A     -0.586402    23A     -0.580500    24A     -0.576836
      25A     -0.564620    26A     -0.534915    27A     -0.498865
      28A     -0.485527    29A     -0.484004    30A     -0.481233
      31A     -0.477793    32A     -0.476609    33A     -0.330550
      34A     -0.325124

    Virtual:

      35A      0.135969    36A      0.145532    37A      0.174669
      38A      0.197776    39A      0.201136    40A      0.216217
      41A      0.239519    42A      0.249356    43A      0.251805
      44A      0.264958    45A      0.268119    46A      0.277877
      47A      0.278079    48A      0.292352    49A      0.298184
      50A      0.317435    51A      0.372011    52A      0.377487
      53A      0.394764    54A      0.454809    55A      0.465725
      56A      0.475951    57A      0.506461    58A      0.568892
      59A      0.571285    60A      0.597250    61A      0.600815
      62A      0.608466    63A      0.636827    64A      0.670508
      65A      0.679057    66A      0.685852    67A      0.704346
      68A      0.707918    69A      0.737842    70A      0.745623
      71A      0.754092    72A      0.757161    73A      0.763180
      74A      0.777648    75A      0.785691    76A      0.803268
      77A      0.833418    78A      0.855530    79A      0.861219
      80A      0.875629    81A      0.882384    82A      0.895787
      83A      0.898256    84A      0.899327    85A      0.902139
      86A      0.915979    87A      0.923485    88A      0.931797
      89A      0.933030    90A      0.944073    91A      0.965996
      92A      0.972177    93A      0.995424    94A      1.008350
      95A      1.027779    96A      1.054139    97A      1.128476
      98A      1.129952    99A      1.136311   100A      1.151106
     101A      1.158727   102A      1.164812   103A      1.197151
     104A      1.208955   105A      1.234637   106A      1.257854
     107A      1.265176   108A      1.290099   109A      1.306625
     110A      1.312287   111A      1.333822   112A      1.336502
     113A      1.415522   114A      1.466141   115A      1.481401
     116A      1.512930   117A      1.529985   118A      1.553788
     119A      1.594340   120A      1.604602   121A      1.675724
     122A      1.685256   123A      1.692116   124A      1.705926
     125A      1.740296   126A      1.750650   127A      1.766629
     128A      1.795506   129A      1.824947   130A      1.864056
     131A      1.877806   132A      1.883625   133A      1.887257
     134A      1.903950   135A      1.906826   136A      1.915365
     137A      1.922555   138A      1.929991   139A      1.942088
     140A      1.945048   141A      1.956627   142A      1.960682
     143A      1.966320   144A      1.968642   145A      1.974019
     146A      1.995513   147A      2.018737   148A      2.025693
     149A      2.053524   150A      2.074122   151A      2.082441
     152A      2.094968   153A      2.117423   154A      2.126519
     155A      2.144508   156A      2.166123   157A      2.182373
     158A      2.188584   159A      2.205798   160A      2.251702
     161A      2.275232   162A      2.293769   163A      2.304923
     164A      2.318803   165A      2.326691   166A      2.350102
     167A      2.355823   168A      2.452550   169A      2.458515
     170A      2.475055   171A      2.484687   172A      2.531299
     173A      2.543423   174A      2.553411   175A      2.578881
     176A      2.636312   177A      2.740055   178A      2.759029
     179A      2.765638   180A      2.772127   181A      2.798954
     182A      2.803679   183A      2.823034   184A      2.849135
     185A      2.862810   186A      2.872368   187A      2.884150
     188A      2.952195   189A      2.972724   190A      3.004842
     191A      3.024659   192A      3.047778   193A      3.173586
     194A      3.219010   195A      3.316795   196A      3.995550

    Final Occupation by Irrep:
              A
    DOCC [    34 ]

  @RHF Final Energy:  -348.99145015142642

   => Energetics <=

    Nuclear Repulsion Energy =            414.9723481352942258
    One-Electron Energy =               -1292.7503683977286073
    Two-Electron Energy =                 528.7865701110080181
    Total Energy =                       -348.9914501514264202

Computation Completed

Properties will be evaluated at   0.000000,   0.000000,   0.000000 [a0]

Properties computed using the SCF density matrix

  Nuclear Dipole Moment: [e a0]
     X:   -11.0202      Y:     0.7530      Z:    -0.1295

  Electronic Dipole Moment: [e a0]
     X:    11.0915      Y:    -0.8864      Z:     0.1286

  Dipole Moment: [e a0]
     X:     0.0713      Y:    -0.1334      Z:    -0.0009     Total:     0.1512

  Dipole Moment: [D]
     X:     0.1812      Y:    -0.3391      Z:    -0.0024     Total:     0.3844

*** tstop() called on ds3 at Tue Apr 28 09:17:31 2020
Module time:
	user time   =      75.62 seconds =       1.26 minutes
	system time =      34.12 seconds =       0.57 minutes
	total time  =        106 seconds =       1.77 minutes
Total time:
	user time   =      75.62 seconds =       1.26 minutes
	system time =      34.12 seconds =       0.57 minutes
	total time  =        106 seconds =       1.77 minutes
                                     G D M A

                                 by Anthony Stone

                           version 2.2.06, 22 June 2011

               Distributed Multipoles from Gaussian wavefunctions

Starting at 9:17:31 on 28 Apr 2020

Using SCF density matrix from file ./SSI/SSI-129VAL-159PHE-1-dimer.test.9880.fchk

                         Distributed Multipole Analysis

Standard DMA

Positions and radii in angstrom
Multipole moments in atomic units, ea_0^k for rank k

C          x = -2.397637  y =  0.970837  z =  0.020733 angstrom
           Maximum rank =  0   Radius =  0.650 angstrom
                   Q00  =  -0.226812

C          x = -3.844637  y =  1.519837  z = -0.008267 angstrom
           Maximum rank =  0   Radius =  0.650 angstrom
                   Q00  =  -0.248215

H          x = -2.328637  y =  0.036837  z = -0.532267 angstrom
           Maximum rank =  0   Radius =  0.325 angstrom
                   Q00  =   0.075176

H          x = -1.731637  y =  1.696837  z = -0.445267 angstrom
           Maximum rank =  0   Radius =  0.325 angstrom
                   Q00  =   0.081254

H          x = -2.064637  y =  0.811837  z =  1.044733 angstrom
           Maximum rank =  0   Radius =  0.325 angstrom
                   Q00  =   0.085403

H          x = -3.846637  y =  2.466837  z =  0.531733 angstrom
           Maximum rank =  0   Radius =  0.325 angstrom
                   Q00  =   0.076265

H          x = -4.537057  y =  0.838115  z =  0.507303 angstrom
           Maximum rank =  0   Radius =  0.325 angstrom
                   Q00  =   0.077273

H          x = -4.205587  y =  1.712153  z = -1.029407 angstrom
           Maximum rank =  0   Radius =  0.325 angstrom
                   Q00  =   0.079408

C          x =  0.110363  y = -2.686163  z = -0.041267 angstrom
           Maximum rank =  0   Radius =  0.650 angstrom
                   Q00  =  -0.207905

C          x =  0.551363  y = -0.455163  z = -1.110267 angstrom
           Maximum rank =  0   Radius =  0.650 angstrom
                   Q00  =   0.019623

C          x =  0.666363  y = -1.282163  z = -0.009267 angstrom
           Maximum rank =  0   Radius =  0.650 angstrom
                   Q00  =  -0.101601

C          x =  1.068363  y =  0.830837  z = -1.101267 angstrom
           Maximum rank =  0   Radius =  0.650 angstrom
                   Q00  =  -0.063431

C          x =  1.322363  y = -0.793163  z =  1.113733 angstrom
           Maximum rank =  0   Radius =  0.650 angstrom
                   Q00  =  -0.092544

C          x =  1.690363  y =  1.319837  z =  0.018733 angstrom
           Maximum rank =  0   Radius =  0.650 angstrom
                   Q00  =  -0.085807

C          x =  1.820363  y =  0.507837  z =  1.128733 angstrom
           Maximum rank =  0   Radius =  0.650 angstrom
                   Q00  =  -0.061329

H          x =  0.076363  y = -0.820163  z = -2.007267 angstrom
           Maximum rank =  0   Radius =  0.325 angstrom
                   Q00  =   0.054209

H          x =  0.974363  y =  1.452837  z = -1.981267 angstrom
           Maximum rank =  0   Radius =  0.325 angstrom
                   Q00  =   0.060588

H          x =  0.902363  y = -3.384163  z =  0.231733 angstrom
           Maximum rank =  0   Radius =  0.325 angstrom
                   Q00  =   0.101907

H          x = -0.191637  y = -2.915163  z = -1.063267 angstrom
           Maximum rank =  0   Radius =  0.325 angstrom
                   Q00  =   0.096186

H          x =  1.476363  y = -1.425163  z =  1.975733 angstrom
           Maximum rank =  0   Radius =  0.325 angstrom
                   Q00  =   0.054484

H          x =  2.108363  y =  2.315837  z =  0.023733 angstrom
           Maximum rank =  0   Radius =  0.325 angstrom
                   Q00  =   0.058658

H          x =  2.370363  y =  0.855837  z =  1.988733 angstrom
           Maximum rank =  0   Radius =  0.325 angstrom
                   Q00  =   0.062519

H          x = -0.757617  y = -2.839209  z =  0.616903 angstrom
           Maximum rank =  0   Radius =  0.325 angstrom
                   Q00  =   0.104690

Total multipoles referred to origin at
           x =   0.000000,  y =    0.000000,  z =    0.000000 angstrom
                   Q00  =  -0.000000

Finished at 9:17:31 on 28 Apr 2020

  DMA results are available in the Python driver through the
	  variable('DMA DISTRIBUTED MULTIPOLES')
  and
	  variable('DMA TOTAL MULTIPOLES')
  commands.

    Psi4 stopped on: Tuesday, 28 April 2020 09:17AM
    Psi4 wall time for execution: 0:01:45.85

*** Psi4 exiting successfully. Buy a developer a beer!
