                               Psi4 1.3.2 release

  ==> Input File <==

--------------------------------------------------------------------------
import numpy as np
set {scf_type pk
basis cc-pvdz
d_convergence 10
gdma_switch   0
gdma_limit    0
gdma_origin   [ 0.0,  0.0,  0.0 ]
}
molecule test {
    units Angstrom
    1 1
    --
    1 1
    C               -1.377121673723767     0.908572473680022    -0.302594725842566
    C               -2.461121673723767     1.682572473680022    -1.024594725842566
    C               -2.729121673723768     0.804572473680022     2.105405274157434
    S               -1.178121673723768     1.396572473680022     1.423405274157434
    H               -1.611121673723767    -0.153427526319978    -0.355594725842566
    H               -0.425121673723767     1.069572473680022    -0.803594725842566
    H               -2.446121673723768     2.716572473680022    -0.684594725842566
    H               -3.427121673723768     1.250572473680022    -0.762594725842566
    H               -2.821121673723768    -0.266427526319978     1.957405274157434
    H               -2.719121673723767     1.036572473680022     3.161405274157434
    H               -3.574121673723768     1.299572473680022     1.629405274157434
    H               -2.334241673723767     1.661782473680022    -2.117054725842566
    C                2.051878326276233    -0.348427526319978     0.644405274157434
    C                3.183878326276232    -1.083427526319978     1.392405274157434
    C                1.010878326276232    -1.231427526319978    -1.448594725842566
    N                1.125878326276233    -1.207427526319978    -0.125594725842566
    N                1.821878326276232    -0.529427526319978    -2.212594725842566
    N                0.079878326276232    -1.974427526319978    -2.017594725842566
    H                1.453878326276232     0.170572473680022     1.396405274157434
    H                2.491878326276233     0.420572473680022     0.008405274157434
    H                3.762878326276232    -1.679427526319978     0.685405274157434
    H                2.739878326276233    -1.752427526319978     2.131405274157434
    H                0.421878326276233    -1.748427526319978     0.376405274157434
    H                2.590878326276232    -0.027427526319978    -1.804594725842566
    H                1.760878326276232    -0.602427526319978    -3.216594725842566
    H               -0.566121673723768    -2.448427526319978    -1.385594725842566
    H               -0.022121673723768    -2.039427526319978    -3.016594725842566
    H                3.850578326276232    -0.367687526319978     1.895625274157434

}
e, wfn = energy('scf', return_wfn=True)
gdma(wfn)
dmavals = variable('DMA DISTRIBUTED MULTIPOLES')
charges = np.array(dmavals)
print(charges)
np.save('SSI-081MET-138ARG-1-dimer.npy', np.array(charges))--------------------------------------------------------------------------

*** tstart() called on ds3
*** at Mon Apr 27 12:55:58 2020

   => Loading Basis Set <=

    Name: CC-PVDZ
    Role: ORBITAL
    Keyword: BASIS
    atoms 1-3, 13-15  entry C          line   138 file /theoryfs2/ds/metcalf/miniconda2/envs/tf2gpu/share/psi4/basis/cc-pvdz.gbs
    atoms 4           entry S          line   598 file /theoryfs2/ds/metcalf/miniconda2/envs/tf2gpu/share/psi4/basis/cc-pvdz.gbs
    atoms 5-12, 19-28 entry H          line    22 file /theoryfs2/ds/metcalf/miniconda2/envs/tf2gpu/share/psi4/basis/cc-pvdz.gbs
    atoms 16-18       entry N          line   168 file /theoryfs2/ds/metcalf/miniconda2/envs/tf2gpu/share/psi4/basis/cc-pvdz.gbs

         ---------------------------------------------------------
                                   SCF
               by Justin Turney, Rob Parrish, Andy Simmonett
                          and Daniel G. A. Smith
                              RHF Reference
                        1 Threads,    500 MiB Core
         ---------------------------------------------------------

  ==> Geometry <==

    Molecular point group: c1
    Full point group: C1

    Geometry (in Angstrom), charge = 1, multiplicity = 1:

       Center              X                  Y                   Z               Mass
    ------------   -----------------  -----------------  -----------------  -----------------
         C           -1.377121673724     0.908572473680    -0.302594725843    12.000000000000
         C           -2.461121673724     1.682572473680    -1.024594725843    12.000000000000
         C           -2.729121673724     0.804572473680     2.105405274157    12.000000000000
         S           -1.178121673724     1.396572473680     1.423405274157    31.972071174400
         H           -1.611121673724    -0.153427526320    -0.355594725843     1.007825032230
         H           -0.425121673724     1.069572473680    -0.803594725843     1.007825032230
         H           -2.446121673724     2.716572473680    -0.684594725843     1.007825032230
         H           -3.427121673724     1.250572473680    -0.762594725843     1.007825032230
         H           -2.821121673724    -0.266427526320     1.957405274157     1.007825032230
         H           -2.719121673724     1.036572473680     3.161405274157     1.007825032230
         H           -3.574121673724     1.299572473680     1.629405274157     1.007825032230
         H           -2.334241673724     1.661782473680    -2.117054725843     1.007825032230
         C            2.051878326276    -0.348427526320     0.644405274157    12.000000000000
         C            3.183878326276    -1.083427526320     1.392405274157    12.000000000000
         C            1.010878326276    -1.231427526320    -1.448594725843    12.000000000000
         N            1.125878326276    -1.207427526320    -0.125594725843    14.003074004430
         N            1.821878326276    -0.529427526320    -2.212594725843    14.003074004430
         N            0.079878326276    -1.974427526320    -2.017594725843    14.003074004430
         H            1.453878326276     0.170572473680     1.396405274157     1.007825032230
         H            2.491878326276     0.420572473680     0.008405274157     1.007825032230
         H            3.762878326276    -1.679427526320     0.685405274157     1.007825032230
         H            2.739878326276    -1.752427526320     2.131405274157     1.007825032230
         H            0.421878326276    -1.748427526320     0.376405274157     1.007825032230
         H            2.590878326276    -0.027427526320    -1.804594725843     1.007825032230
         H            1.760878326276    -0.602427526320    -3.216594725843     1.007825032230
         H           -0.566121673724    -2.448427526320    -1.385594725843     1.007825032230
         H           -0.022121673724    -2.039427526320    -3.016594725843     1.007825032230
         H            3.850578326276    -0.367687526320     1.895625274157     1.007825032230

  Running in c1 symmetry.

  Rotational constants: A =      0.04033  B =      0.01903  C =      0.01484 [cm^-1]
  Rotational constants: A =   1209.16213  B =    570.65426  C =    444.77914 [MHz]
  Nuclear repulsion =  662.057693836577982

  Charge       = 1
  Multiplicity = 1
  Electrons    = 90
  Nalpha       = 45
  Nbeta        = 45

  ==> Algorithm <==

  SCF Algorithm Type is PK.
  DIIS enabled.
  MOM disabled.
  Fractional occupation disabled.
  Guess Type is SAD.
  Energy threshold   = 1.00e-06
  Density threshold  = 1.00e-10
  Integral threshold = 0.00e+00

  ==> Primary Basis <==

  Basis Set: CC-PVDZ
    Blend: CC-PVDZ
    Number of shells: 116
    Number of basis function: 234
    Number of Cartesian functions: 244
    Spherical Harmonics?: true
    Max angular momentum: 2

  ==> Pre-Iterations <==

   -------------------------------------------------------
    Irrep   Nso     Nmo     Nalpha   Nbeta   Ndocc  Nsocc
   -------------------------------------------------------
     A        234     234       0       0       0       0
   -------------------------------------------------------
    Total     234     234      45      45      45       0
   -------------------------------------------------------

  ==> Integral Setup <==

  Using integral reordering PK algorithm.
  Sizing the integral batches needed.
  Building batch lookup table.
   Calculation information:
      Number of atoms:                  28
      Number of AO shells:             116
      Number of primitives:            338
      Number of atomic orbitals:       244
      Number of basis functions:       234

      Integral cutoff                 1.00e-12
      Number of threads:                 1

	Batch   1 pq = [       0,    9405] index = [             0,44231715] size =     44231715
	Batch   2 pq = [    9405,   13301] index = [      44231715,88464951] size =     44233236
	Batch   3 pq = [   13301,   16290] index = [      88464951,132690195] size =     44225244
	Batch   4 pq = [   16290,   18810] index = [     132690195,176917455] size =     44227260
	Batch   5 pq = [   18810,   21030] index = [     176917455,221140965] size =     44223510
	Batch   6 pq = [   21030,   23037] index = [     221140965,265363203] size =     44222238
	Batch   7 pq = [   23037,   24883] index = [     265363203,309594286] size =     44231083
	Batch   8 pq = [   24883,   26601] index = [     309594286,353819901] size =     44225615
	Batch   9 pq = [   26601,   27495] index = [     353819901,378001260] size =     24181359
  Task number: 35
  Buffer size: 11059200
  Buffer per thread: 2
  We computed 21851141 shell quartets total.
  Whereas there are 23028291 unique shell quartets.

  ==> DiskJK: Disk-Based J/K Matrices <==

    J tasked:                  Yes
    K tasked:                  Yes
    wK tasked:                  No
    Memory [MiB]:              375
    Schwarz Cutoff:          1E-12

    OpenMP threads:              1

  Minimum eigenvalue in the overlap matrix is 3.3000261505E-03.
  Using Symmetric Orthogonalization.

  SCF Guess: Superposition of Atomic Densities via on-the-fly atomic UHF.

  ==> Iterations <==

                        Total Energy        Delta E     RMS |[F,P]|

   @RHF iter SAD:  -797.70499406454883   -7.97705e+02   0.00000e+00
   @RHF iter   1:  -798.15695269832622   -4.51959e-01   2.70703e-03 DIIS
   @RHF iter   2:  -798.37882123974578   -2.21869e-01   1.04628e-03 DIIS
   @RHF iter   3:  -798.40947973042466   -3.06585e-02   2.74493e-04 DIIS
   @RHF iter   4:  -798.41287158204818   -3.39185e-03   5.21512e-05 DIIS
   @RHF iter   5:  -798.41298955107789   -1.17969e-04   1.69145e-05 DIIS
   @RHF iter   6:  -798.41300291218761   -1.33611e-05   4.32996e-06 DIIS
   @RHF iter   7:  -798.41300393063773   -1.01845e-06   1.52191e-06 DIIS
   @RHF iter   8:  -798.41300404872322   -1.18085e-07   4.77004e-07 DIIS
   @RHF iter   9:  -798.41300405972345   -1.10002e-08   1.11871e-07 DIIS
   @RHF iter  10:  -798.41300406053949   -8.16044e-10   3.16961e-08 DIIS
   @RHF iter  11:  -798.41300406060691   -6.74163e-11   1.09695e-08 DIIS
   @RHF iter  12:  -798.41300406061805   -1.11413e-11   4.01224e-09 DIIS
   @RHF iter  13:  -798.41300406061930   -1.25056e-12   1.20082e-09 DIIS
   @RHF iter  14:  -798.41300406062646   -7.16227e-12   3.77658e-10 DIIS
   @RHF iter  15:  -798.41300406061964    6.82121e-12   1.25914e-10 DIIS
   @RHF iter  16:  -798.41300406062328   -3.63798e-12   4.66077e-11 DIIS
  Energy and wave function converged.

  ==> Post-Iterations <==

    Orbital Energies [Eh]
    ---------------------

    Doubly Occupied:

       1A    -92.042005     2A    -15.785207     3A    -15.783026
       4A    -15.777676     5A    -11.583137     6A    -11.427304
       7A    -11.370787     8A    -11.359770     9A    -11.352244
      10A    -11.327300    11A     -9.046413    12A     -6.728427
      13A     -6.726850    14A     -6.724718    15A     -1.539773
      16A     -1.392806    17A     -1.387710    18A     -1.193963
      19A     -1.173438    20A     -1.101490    21A     -1.051104
      22A     -1.003068    23A     -0.990952    24A     -0.969401
      25A     -0.931384    26A     -0.895704    27A     -0.854291
      28A     -0.848025    29A     -0.812627    30A     -0.786713
      31A     -0.750550    32A     -0.745149    33A     -0.711883
      34A     -0.694540    35A     -0.686115    36A     -0.662583
      37A     -0.659739    38A     -0.642331    39A     -0.635715
      40A     -0.618966    41A     -0.610524    42A     -0.583407
      43A     -0.567772    44A     -0.530100    45A     -0.440056

    Virtual:

      46A     -0.010974    47A      0.018166    48A      0.033872
      49A      0.040291    50A      0.065151    51A      0.080618
      52A      0.085223    53A      0.088592    54A      0.112537
      55A      0.122290    56A      0.128195    57A      0.138363
      58A      0.139386    59A      0.152308    60A      0.157489
      61A      0.164020    62A      0.170462    63A      0.182838
      64A      0.188989    65A      0.203581    66A      0.216728
      67A      0.229400    68A      0.250922    69A      0.278877
      70A      0.288066    71A      0.347829    72A      0.354821
      73A      0.420012    74A      0.438368    75A      0.452720
      76A      0.460411    77A      0.485315    78A      0.494743
      79A      0.497720    80A      0.506607    81A      0.509605
      82A      0.534074    83A      0.535971    84A      0.550481
      85A      0.554533    86A      0.560320    87A      0.585598
      88A      0.593073    89A      0.622763    90A      0.666057
      91A      0.680958    92A      0.691771    93A      0.702690
      94A      0.717985    95A      0.722329    96A      0.731467
      97A      0.734403    98A      0.743976    99A      0.752583
     100A      0.755668   101A      0.760992   102A      0.766046
     103A      0.768318   104A      0.780171   105A      0.782919
     106A      0.784829   107A      0.799215   108A      0.801540
     109A      0.807292   110A      0.814348   111A      0.825463
     112A      0.838643   113A      0.852517   114A      0.865330
     115A      0.882869   116A      0.893023   117A      0.901967
     118A      0.910814   119A      0.929175   120A      0.943553
     121A      0.971143   122A      0.991253   123A      1.037135
     124A      1.055185   125A      1.080664   126A      1.110552
     127A      1.124224   128A      1.138366   129A      1.153997
     130A      1.173983   131A      1.197931   132A      1.213914
     133A      1.227962   134A      1.237058   135A      1.240089
     136A      1.284820   137A      1.293324   138A      1.328534
     139A      1.330921   140A      1.346804   141A      1.378357
     142A      1.393240   143A      1.420837   144A      1.447091
     145A      1.480090   146A      1.522923   147A      1.536617
     148A      1.551513   149A      1.570426   150A      1.589163
     151A      1.596828   152A      1.622833   153A      1.640179
     154A      1.644704   155A      1.673943   156A      1.704521
     157A      1.715030   158A      1.724222   159A      1.742792
     160A      1.759011   161A      1.773485   162A      1.780758
     163A      1.790578   164A      1.792136   165A      1.799093
     166A      1.805912   167A      1.818383   168A      1.821156
     169A      1.829770   170A      1.833776   171A      1.837091
     172A      1.843936   173A      1.869293   174A      1.872892
     175A      1.892340   176A      1.905343   177A      1.915117
     178A      1.927017   179A      1.955394   180A      1.961296
     181A      1.966367   182A      1.988673   183A      2.006262
     184A      2.023511   185A      2.052827   186A      2.069934
     187A      2.101526   188A      2.121580   189A      2.138838
     190A      2.156427   191A      2.179611   192A      2.204151
     193A      2.211250   194A      2.247709   195A      2.251729
     196A      2.275236   197A      2.281616   198A      2.318368
     199A      2.331664   200A      2.348140   201A      2.364417
     202A      2.369073   203A      2.377645   204A      2.400029
     205A      2.412868   206A      2.447650   207A      2.465939
     208A      2.476455   209A      2.501766   210A      2.571374
     211A      2.620979   212A      2.631929   213A      2.642179
     214A      2.670851   215A      2.674587   216A      2.691079
     217A      2.702000   218A      2.703574   219A      2.707226
     220A      2.711821   221A      2.737522   222A      2.781760
     223A      2.792083   224A      2.811819   225A      2.818410
     226A      2.834427   227A      2.870421   228A      2.884157
     229A      2.958727   230A      3.095620   231A      3.120145
     232A      3.138346   233A      3.554971   234A      3.667984

    Final Occupation by Irrep:
              A
    DOCC [    45 ]

  @RHF Final Energy:  -798.41300406062328

   => Energetics <=

    Nuclear Repulsion Energy =            662.0576938365779824
    One-Electron Energy =               -2393.9279049338301775
    Two-Electron Energy =                 933.4572070366289154
    Total Energy =                       -798.4130040606232797

Computation Completed

Properties will be evaluated at   0.000000,   0.000000,   0.000000 [a0]

Properties computed using the SCF density matrix

  Nuclear Dipole Moment: [e a0]
     X:    -0.8589      Y:    -1.3208      Z:    -0.7981

  Electronic Dipole Moment: [e a0]
     X:     2.1578      Y:    -0.8864      Z:    -1.5774

  Dipole Moment: [e a0]
     X:     1.2990      Y:    -2.2072      Z:    -2.3755     Total:     3.4932

  Dipole Moment: [D]
     X:     3.3016      Y:    -5.6101      Z:    -6.0380     Total:     8.8787

*** tstop() called on ds3 at Mon Apr 27 12:59:55 2020
Module time:
	user time   =     178.42 seconds =       2.97 minutes
	system time =      68.65 seconds =       1.14 minutes
	total time  =        237 seconds =       3.95 minutes
Total time:
	user time   =     178.42 seconds =       2.97 minutes
	system time =      68.65 seconds =       1.14 minutes
	total time  =        237 seconds =       3.95 minutes
                                     G D M A

                                 by Anthony Stone

                           version 2.2.06, 22 June 2011

               Distributed Multipoles from Gaussian wavefunctions

Starting at 12:59:55 on 27 Apr 2020

Using SCF density matrix from file ./SSI/SSI-081MET-138ARG-1-dimer.test.4683.fchk

                         Distributed Multipole Analysis

Standard DMA

Positions and radii in angstrom
Multipole moments in atomic units, ea_0^k for rank k

C          x = -1.377122  y =  0.908572  z = -0.302595 angstrom
           Maximum rank =  0   Radius =  0.650 angstrom
                   Q00  =  -0.196372

C          x = -2.461122  y =  1.682572  z = -1.024595 angstrom
           Maximum rank =  0   Radius =  0.650 angstrom
                   Q00  =  -0.235605

C          x = -2.729122  y =  0.804572  z =  2.105405 angstrom
           Maximum rank =  0   Radius =  0.650 angstrom
                   Q00  =  -0.353602

S          x = -1.178122  y =  1.396572  z =  1.423405 angstrom
           Maximum rank =  0   Radius =  0.650 angstrom
                   Q00  =   0.082422

H          x = -1.611122  y = -0.153428  z = -0.355595 angstrom
           Maximum rank =  0   Radius =  0.325 angstrom
                   Q00  =   0.017857

H          x = -0.425122  y =  1.069572  z = -0.803595 angstrom
           Maximum rank =  0   Radius =  0.325 angstrom
                   Q00  =   0.059233

H          x = -2.446122  y =  2.716572  z = -0.684595 angstrom
           Maximum rank =  0   Radius =  0.325 angstrom
                   Q00  =   0.106773

H          x = -3.427122  y =  1.250572  z = -0.762595 angstrom
           Maximum rank =  0   Radius =  0.325 angstrom
                   Q00  =   0.089934

H          x = -2.821122  y = -0.266428  z =  1.957405 angstrom
           Maximum rank =  0   Radius =  0.325 angstrom
                   Q00  =   0.081166

H          x = -2.719122  y =  1.036572  z =  3.161405 angstrom
           Maximum rank =  0   Radius =  0.325 angstrom
                   Q00  =   0.138036

H          x = -3.574122  y =  1.299572  z =  1.629405 angstrom
           Maximum rank =  0   Radius =  0.325 angstrom
                   Q00  =   0.107116

H          x = -2.334242  y =  1.661782  z = -2.117055 angstrom
           Maximum rank =  0   Radius =  0.325 angstrom
                   Q00  =   0.089493

C          x =  2.051878  y = -0.348428  z =  0.644405 angstrom
           Maximum rank =  0   Radius =  0.650 angstrom
                   Q00  =  -0.001147

C          x =  3.183878  y = -1.083428  z =  1.392405 angstrom
           Maximum rank =  0   Radius =  0.650 angstrom
                   Q00  =  -0.220755

C          x =  1.010878  y = -1.231428  z = -1.448595 angstrom
           Maximum rank =  0   Radius =  0.650 angstrom
                   Q00  =   1.068287

N          x =  1.125878  y = -1.207428  z = -0.125595 angstrom
           Maximum rank =  0   Radius =  0.650 angstrom
                   Q00  =  -0.483233

N          x =  1.821878  y = -0.529428  z = -2.212595 angstrom
           Maximum rank =  0   Radius =  0.650 angstrom
                   Q00  =  -0.580713

N          x =  0.079878  y = -1.974428  z = -2.017595 angstrom
           Maximum rank =  0   Radius =  0.650 angstrom
                   Q00  =  -0.600957

H          x =  1.453878  y =  0.170572  z =  1.396405 angstrom
           Maximum rank =  0   Radius =  0.325 angstrom
                   Q00  =   0.135682

H          x =  2.491878  y =  0.420572  z =  0.008405 angstrom
           Maximum rank =  0   Radius =  0.325 angstrom
                   Q00  =   0.071184

H          x =  3.762878  y = -1.679428  z =  0.685405 angstrom
           Maximum rank =  0   Radius =  0.325 angstrom
                   Q00  =   0.092150

H          x =  2.739878  y = -1.752428  z =  2.131405 angstrom
           Maximum rank =  0   Radius =  0.325 angstrom
                   Q00  =   0.109082

H          x =  0.421878  y = -1.748428  z =  0.376405 angstrom
           Maximum rank =  0   Radius =  0.325 angstrom
                   Q00  =   0.229995

H          x =  2.590878  y = -0.027428  z = -1.804595 angstrom
           Maximum rank =  0   Radius =  0.325 angstrom
                   Q00  =   0.267780

H          x =  1.760878  y = -0.602428  z = -3.216595 angstrom
           Maximum rank =  0   Radius =  0.325 angstrom
                   Q00  =   0.263351

H          x = -0.566122  y = -2.448428  z = -1.385595 angstrom
           Maximum rank =  0   Radius =  0.325 angstrom
                   Q00  =   0.260828

H          x = -0.022122  y = -2.039428  z = -3.016595 angstrom
           Maximum rank =  0   Radius =  0.325 angstrom
                   Q00  =   0.274250

H          x =  3.850578  y = -0.367688  z =  1.895625 angstrom
           Maximum rank =  0   Radius =  0.325 angstrom
                   Q00  =   0.127762

Total multipoles referred to origin at
           x =   0.000000,  y =    0.000000,  z =    0.000000 angstrom
                   Q00  =   1.000000

Finished at 12:59:55 on 27 Apr 2020

  DMA results are available in the Python driver through the
	  variable('DMA DISTRIBUTED MULTIPOLES')
  and
	  variable('DMA TOTAL MULTIPOLES')
  commands.

    Psi4 stopped on: Monday, 27 April 2020 12:59PM
    Psi4 wall time for execution: 0:03:57.49

*** Psi4 exiting successfully. Buy a developer a beer!
