                               Psi4 1.3.2 release

  ==> Input File <==

--------------------------------------------------------------------------
import numpy as np
set {scf_type pk
basis cc-pvdz
d_convergence 10
gdma_switch   0
gdma_limit    0
gdma_origin   [ 0.0,  0.0,  0.0 ]
}
molecule test {
    units Angstrom
    0 1
    --
    0 1
    C               -0.401899385511794    -0.100802916149393    -1.238984593556953
    C                0.679100614488206    -0.782802916149393    -2.101984593556953
    C                0.143100614488206     0.881197083850607    -0.262984593556953
    C                0.336100614488206     2.217197083850607    -0.616984593556953
    C                0.480100614488206     0.453197083850607     1.036015406443047
    C                0.862100614488206     3.122197083850607     0.323015406443047
    C                1.015100614488206     1.344197083850607     1.980015406443047
    C                1.206100614488206     2.681197083850607     1.634015406443047
    H               -1.119899385511794     0.395197083850607    -1.884984593556953
    H               -0.947899385511794    -0.859802916149393    -0.684984593556953
    H                0.179100614488206    -1.537802916149393    -2.712984593556953
    H                0.049100614488206     2.566197083850607    -1.597984593556953
    H                0.305100614488206    -0.576802916149393     1.305015406443047
    H                0.978100614488206     4.160197083850607     0.046015406443047
    H                1.262100614488206     0.998197083850607     2.975015406443047
    H                1.608100614488206     3.379197083850606     2.355015406443047
    H                1.463350614488206    -1.240406916149393    -1.481054593556953
    H                1.214270614488206    -0.102527916149393    -2.780824593556953
    C               -1.601899385511794    -3.460802916149393    -0.055984593556953
    C               -2.180899385511795    -4.859802916149393    -0.246984593556953
    H               -1.737899385511794    -2.893802916149393    -0.974984593556953
    H               -2.130899385511794    -2.948802916149393     0.749015406443047
    H               -0.539899385511794    -3.516802916149393     0.190015406443047
    H               -3.215899385511795    -4.777802916149393    -0.566984593556953
    H               -1.609409385511794    -5.436340916149393    -0.989274593556953
    H               -2.151459385511794    -5.408450916149393     0.705968406443047

}
e, wfn = energy('scf', return_wfn=True)
gdma(wfn)
dmavals = variable('DMA DISTRIBUTED MULTIPOLES')
charges = np.array(dmavals)
print(charges)
np.save('SSI-068PHE-083LEU-1-dimer.npy', np.array(charges))--------------------------------------------------------------------------

*** tstart() called on ds3
*** at Tue Apr 28 15:30:22 2020

   => Loading Basis Set <=

    Name: CC-PVDZ
    Role: ORBITAL
    Keyword: BASIS
    atoms 1-8, 19-20  entry C          line   138 file /theoryfs2/ds/metcalf/miniconda2/envs/tf2gpu/share/psi4/basis/cc-pvdz.gbs
    atoms 9-18, 21-26 entry H          line    22 file /theoryfs2/ds/metcalf/miniconda2/envs/tf2gpu/share/psi4/basis/cc-pvdz.gbs

         ---------------------------------------------------------
                                   SCF
               by Justin Turney, Rob Parrish, Andy Simmonett
                          and Daniel G. A. Smith
                              RHF Reference
                        1 Threads,    500 MiB Core
         ---------------------------------------------------------

  ==> Geometry <==

    Molecular point group: c1
    Full point group: C1

    Geometry (in Angstrom), charge = 0, multiplicity = 1:

       Center              X                  Y                   Z               Mass
    ------------   -----------------  -----------------  -----------------  -----------------
         C           -0.401899385512    -0.100802916149    -1.238984593557    12.000000000000
         C            0.679100614488    -0.782802916149    -2.101984593557    12.000000000000
         C            0.143100614488     0.881197083851    -0.262984593557    12.000000000000
         C            0.336100614488     2.217197083851    -0.616984593557    12.000000000000
         C            0.480100614488     0.453197083851     1.036015406443    12.000000000000
         C            0.862100614488     3.122197083851     0.323015406443    12.000000000000
         C            1.015100614488     1.344197083851     1.980015406443    12.000000000000
         C            1.206100614488     2.681197083851     1.634015406443    12.000000000000
         H           -1.119899385512     0.395197083851    -1.884984593557     1.007825032230
         H           -0.947899385512    -0.859802916149    -0.684984593557     1.007825032230
         H            0.179100614488    -1.537802916149    -2.712984593557     1.007825032230
         H            0.049100614488     2.566197083851    -1.597984593557     1.007825032230
         H            0.305100614488    -0.576802916149     1.305015406443     1.007825032230
         H            0.978100614488     4.160197083851     0.046015406443     1.007825032230
         H            1.262100614488     0.998197083851     2.975015406443     1.007825032230
         H            1.608100614488     3.379197083851     2.355015406443     1.007825032230
         H            1.463350614488    -1.240406916149    -1.481054593557     1.007825032230
         H            1.214270614488    -0.102527916149    -2.780824593557     1.007825032230
         C           -1.601899385512    -3.460802916149    -0.055984593557    12.000000000000
         C           -2.180899385512    -4.859802916149    -0.246984593557    12.000000000000
         H           -1.737899385512    -2.893802916149    -0.974984593557     1.007825032230
         H           -2.130899385512    -2.948802916149     0.749015406443     1.007825032230
         H           -0.539899385512    -3.516802916149     0.190015406443     1.007825032230
         H           -3.215899385512    -4.777802916149    -0.566984593557     1.007825032230
         H           -1.609409385512    -5.436340916149    -0.989274593557     1.007825032230
         H           -2.151459385512    -5.408450916149     0.705968406443     1.007825032230

  Running in c1 symmetry.

  Rotational constants: A =      0.07602  B =      0.01553  C =      0.01360 [cm^-1]
  Rotational constants: A =   2278.97720  B =    465.46141  C =    407.61390 [MHz]
  Nuclear repulsion =  478.901521563812366

  Charge       = 0
  Multiplicity = 1
  Electrons    = 76
  Nalpha       = 38
  Nbeta        = 38

  ==> Algorithm <==

  SCF Algorithm Type is PK.
  DIIS enabled.
  MOM disabled.
  Fractional occupation disabled.
  Guess Type is SAD.
  Energy threshold   = 1.00e-06
  Density threshold  = 1.00e-10
  Integral threshold = 0.00e+00

  ==> Primary Basis <==

  Basis Set: CC-PVDZ
    Blend: CC-PVDZ
    Number of shells: 108
    Number of basis function: 220
    Number of Cartesian functions: 230
    Spherical Harmonics?: true
    Max angular momentum: 2

  ==> Pre-Iterations <==

   -------------------------------------------------------
    Irrep   Nso     Nmo     Nalpha   Nbeta   Ndocc  Nsocc
   -------------------------------------------------------
     A        220     220       0       0       0       0
   -------------------------------------------------------
    Total     220     220      38      38      38       0
   -------------------------------------------------------

  ==> Integral Setup <==

  Using integral reordering PK algorithm.
  Sizing the integral batches needed.
  Building batch lookup table.
   Calculation information:
      Number of atoms:                  26
      Number of AO shells:             108
      Number of primitives:            300
      Number of atomic orbitals:       230
      Number of basis functions:       220

      Integral cutoff                 1.00e-12
      Number of threads:                 1

	Batch   1 pq = [       0,    9405] index = [             0,44231715] size =     44231715
	Batch   2 pq = [    9405,   13301] index = [      44231715,88464951] size =     44233236
	Batch   3 pq = [   13301,   16290] index = [      88464951,132690195] size =     44225244
	Batch   4 pq = [   16290,   18810] index = [     132690195,176917455] size =     44227260
	Batch   5 pq = [   18810,   21030] index = [     176917455,221140965] size =     44223510
	Batch   6 pq = [   21030,   23037] index = [     221140965,265363203] size =     44222238
	Batch   7 pq = [   23037,   24310] index = [     265363203,295500205] size =     30137002
  Task number: 27
  Buffer size: 11059200
  Buffer per thread: 2
  We computed 14166854 shell quartets total.
  Whereas there are 17325441 unique shell quartets.

  ==> DiskJK: Disk-Based J/K Matrices <==

    J tasked:                  Yes
    K tasked:                  Yes
    wK tasked:                  No
    Memory [MiB]:              375
    Schwarz Cutoff:          1E-12

    OpenMP threads:              1

  Minimum eigenvalue in the overlap matrix is 3.3332197900E-04.
  Using Symmetric Orthogonalization.

  SCF Guess: Superposition of Atomic Densities via on-the-fly atomic UHF.

  ==> Iterations <==

                        Total Energy        Delta E     RMS |[F,P]|

   @RHF iter SAD:  -386.75471112184596   -3.86755e+02   0.00000e+00
   @RHF iter   1:  -387.77962698632246   -1.02492e+00   2.69100e-03 DIIS
   @RHF iter   2:  -387.99072441603977   -2.11097e-01   1.11450e-03 DIIS
   @RHF iter   3:  -388.02378528841109   -3.30609e-02   2.49512e-04 DIIS
   @RHF iter   4:  -388.02662275344011   -2.83747e-03   6.54347e-05 DIIS
   @RHF iter   5:  -388.02674966377100   -1.26910e-04   2.13455e-05 DIIS
   @RHF iter   6:  -388.02676479080520   -1.51270e-05   3.98801e-06 DIIS
   @RHF iter   7:  -388.02676551183004   -7.21025e-07   1.22928e-06 DIIS
   @RHF iter   8:  -388.02676559138001   -7.95500e-08   4.52181e-07 DIIS
   @RHF iter   9:  -388.02676561328099   -2.19010e-08   2.28584e-07 DIIS
   @RHF iter  10:  -388.02676562083190   -7.55091e-09   1.11904e-07 DIIS
   @RHF iter  11:  -388.02676562258938   -1.75748e-09   3.18662e-08 DIIS
   @RHF iter  12:  -388.02676562268005   -9.06653e-11   1.39018e-08 DIIS
   @RHF iter  13:  -388.02676562269193   -1.18803e-11   4.91157e-09 DIIS
   @RHF iter  14:  -388.02676562269227   -3.41061e-13   1.41114e-09 DIIS
   @RHF iter  15:  -388.02676562269460   -2.33058e-12   4.66133e-10 DIIS
   @RHF iter  16:  -388.02676562269522   -6.25278e-13   1.90418e-10 DIIS
   @RHF iter  17:  -388.02676562269346    1.76215e-12   9.06171e-11 DIIS
  Energy and wave function converged.

  ==> Post-Iterations <==

    Orbital Energies [Eh]
    ---------------------

    Doubly Occupied:

       1A    -11.240078     2A    -11.237213     3A    -11.236906
       4A    -11.234910     5A    -11.231655     6A    -11.231198
       7A    -11.226202     8A    -11.223847     9A    -11.221299
      10A    -11.220663    11A     -1.146092    12A     -1.059713
      13A     -1.022342    14A     -1.006218    15A     -0.975684
      16A     -0.863143    17A     -0.840719    18A     -0.822250
      19A     -0.783132    20A     -0.686519    21A     -0.637131
      22A     -0.634975    23A     -0.603735    24A     -0.600140
      25A     -0.589314    26A     -0.581151    27A     -0.569839
      28A     -0.540760    29A     -0.523093    30A     -0.505669
      31A     -0.496828    32A     -0.490771    33A     -0.486955
      34A     -0.475697    35A     -0.471983    36A     -0.468094
      37A     -0.329173    38A     -0.316061

    Virtual:

      39A      0.133976    40A      0.138589    41A      0.170227
      42A      0.189669    43A      0.203775    44A      0.205010
      45A      0.226897    46A      0.228727    47A      0.242281
      48A      0.255197    49A      0.257471    50A      0.266736
      51A      0.277469    52A      0.287131    53A      0.292419
      54A      0.303979    55A      0.311795    56A      0.327121
      57A      0.342572    58A      0.392504    59A      0.410698
      60A      0.432415    61A      0.447331    62A      0.466867
      63A      0.489435    64A      0.492936    65A      0.554300
      66A      0.586271    67A      0.598376    68A      0.602685
      69A      0.619384    70A      0.622133    71A      0.639901
      72A      0.654271    73A      0.687853    74A      0.695728
      75A      0.700208    76A      0.718662    77A      0.721841
      78A      0.730818    79A      0.742467    80A      0.745547
      81A      0.750290    82A      0.769111    83A      0.777548
      84A      0.796910    85A      0.823080    86A      0.833302
      87A      0.858181    88A      0.870011    89A      0.875574
      90A      0.881642    91A      0.885867    92A      0.889781
      93A      0.893264    94A      0.895737    95A      0.901868
      96A      0.905747    97A      0.912423    98A      0.918902
      99A      0.933137   100A      0.937823   101A      0.941692
     102A      0.965843   103A      0.978417   104A      0.980439
     105A      1.006024   106A      1.024038   107A      1.059997
     108A      1.095852   109A      1.112349   110A      1.127028
     111A      1.132614   112A      1.139929   113A      1.151747
     114A      1.163995   115A      1.179503   116A      1.222469
     117A      1.233901   118A      1.235404   119A      1.249931
     120A      1.272407   121A      1.285781   122A      1.291173
     123A      1.308313   124A      1.314545   125A      1.412905
     126A      1.420990   127A      1.452005   128A      1.469709
     129A      1.483647   130A      1.511425   131A      1.540031
     132A      1.584742   133A      1.616229   134A      1.624363
     135A      1.679202   136A      1.683693   137A      1.688929
     138A      1.691563   139A      1.728966   140A      1.733788
     141A      1.756525   142A      1.762562   143A      1.832971
     144A      1.847850   145A      1.851469   146A      1.860434
     147A      1.867452   148A      1.878455   149A      1.893366
     150A      1.899851   151A      1.904079   152A      1.911731
     153A      1.921705   154A      1.925890   155A      1.932721
     156A      1.940641   157A      1.943735   158A      1.946866
     159A      1.951200   160A      1.957555   161A      1.969657
     162A      1.981204   163A      1.987109   164A      1.989628
     165A      2.015329   166A      2.029407   167A      2.042069
     168A      2.053207   169A      2.065943   170A      2.088283
     171A      2.100405   172A      2.111766   173A      2.125495
     174A      2.142538   175A      2.151011   176A      2.156592
     177A      2.165663   178A      2.187309   179A      2.234526
     180A      2.244713   181A      2.270680   182A      2.294263
     183A      2.300472   184A      2.313256   185A      2.339087
     186A      2.353492   187A      2.405179   188A      2.449176
     189A      2.457076   190A      2.458742   191A      2.480772
     192A      2.489400   193A      2.505328   194A      2.536784
     195A      2.558158   196A      2.567262   197A      2.587611
     198A      2.638574   199A      2.737251   200A      2.748339
     201A      2.758180   202A      2.764782   203A      2.769742
     204A      2.787800   205A      2.799352   206A      2.843685
     207A      2.845821   208A      2.859789   209A      2.888980
     210A      2.929748   211A      2.944917   212A      2.952593
     213A      2.968999   214A      2.984982   215A      3.010548
     216A      3.043635   217A      3.182732   218A      3.184493
     219A      3.288735   220A      3.931385

    Final Occupation by Irrep:
              A
    DOCC [    38 ]

  @RHF Final Energy:  -388.02676562269346

   => Energetics <=

    Nuclear Repulsion Energy =            478.9015215638123664
    One-Electron Energy =               -1472.1942713372484377
    Two-Electron Energy =                 605.2659841507426108
    Total Energy =                       -388.0267656226934605

Computation Completed

Properties will be evaluated at   0.000000,   0.000000,   0.000000 [a0]

Properties computed using the SCF density matrix

  Nuclear Dipole Moment: [e a0]
     X:    -5.9942      Y:   -16.6873      Z:    -5.0136

  Electronic Dipole Moment: [e a0]
     X:     5.9065      Y:    16.5699      Z:     4.9258

  Dipole Moment: [e a0]
     X:    -0.0877      Y:    -0.1174      Z:    -0.0878     Total:     0.1708

  Dipole Moment: [D]
     X:    -0.2230      Y:    -0.2984      Z:    -0.2230     Total:     0.4342

*** tstop() called on ds3 at Tue Apr 28 15:32:49 2020
Module time:
	user time   =     103.90 seconds =       1.73 minutes
	system time =      45.01 seconds =       0.75 minutes
	total time  =        147 seconds =       2.45 minutes
Total time:
	user time   =     103.90 seconds =       1.73 minutes
	system time =      45.01 seconds =       0.75 minutes
	total time  =        147 seconds =       2.45 minutes
                                     G D M A

                                 by Anthony Stone

                           version 2.2.06, 22 June 2011

               Distributed Multipoles from Gaussian wavefunctions

Starting at 15:32:49 on 28 Apr 2020

Using SCF density matrix from file ./SSI/SSI-068PHE-083LEU-1-dimer.test.23582.fchk

                         Distributed Multipole Analysis

Standard DMA

Positions and radii in angstrom
Multipole moments in atomic units, ea_0^k for rank k

C          x = -0.401899  y = -0.100803  z = -1.238985 angstrom
           Maximum rank =  0   Radius =  0.650 angstrom
                   Q00  =  -0.032507

C          x =  0.679101  y = -0.782803  z = -2.101985 angstrom
           Maximum rank =  0   Radius =  0.650 angstrom
                   Q00  =  -0.261959

C          x =  0.143101  y =  0.881197  z = -0.262985 angstrom
           Maximum rank =  0   Radius =  0.650 angstrom
                   Q00  =  -0.088644

C          x =  0.336101  y =  2.217197  z = -0.616985 angstrom
           Maximum rank =  0   Radius =  0.650 angstrom
                   Q00  =  -0.089947

C          x =  0.480101  y =  0.453197  z =  1.036015 angstrom
           Maximum rank =  0   Radius =  0.650 angstrom
                   Q00  =  -0.004700

C          x =  0.862101  y =  3.122197  z =  0.323015 angstrom
           Maximum rank =  0   Radius =  0.650 angstrom
                   Q00  =  -0.069093

C          x =  1.015101  y =  1.344197  z =  1.980015 angstrom
           Maximum rank =  0   Radius =  0.650 angstrom
                   Q00  =  -0.080168

C          x =  1.206101  y =  2.681197  z =  1.634015 angstrom
           Maximum rank =  0   Radius =  0.650 angstrom
                   Q00  =  -0.091760

H          x = -1.119899  y =  0.395197  z = -1.884985 angstrom
           Maximum rank =  0   Radius =  0.325 angstrom
                   Q00  =   0.068783

H          x = -0.947899  y = -0.859803  z = -0.684985 angstrom
           Maximum rank =  0   Radius =  0.325 angstrom
                   Q00  =   0.076621

H          x =  0.179101  y = -1.537803  z = -2.712985 angstrom
           Maximum rank =  0   Radius =  0.325 angstrom
                   Q00  =   0.080049

H          x =  0.049101  y =  2.566197  z = -1.597985 angstrom
           Maximum rank =  0   Radius =  0.325 angstrom
                   Q00  =   0.058871

H          x =  0.305101  y = -0.576803  z =  1.305015 angstrom
           Maximum rank =  0   Radius =  0.325 angstrom
                   Q00  =   0.058198

H          x =  0.978101  y =  4.160197  z =  0.046015 angstrom
           Maximum rank =  0   Radius =  0.325 angstrom
                   Q00  =   0.069263

H          x =  1.262101  y =  0.998197  z =  2.975015 angstrom
           Maximum rank =  0   Radius =  0.325 angstrom
                   Q00  =   0.066886

H          x =  1.608101  y =  3.379197  z =  2.355015 angstrom
           Maximum rank =  0   Radius =  0.325 angstrom
                   Q00  =   0.065607

H          x =  1.463351  y = -1.240407  z = -1.481055 angstrom
           Maximum rank =  0   Radius =  0.325 angstrom
                   Q00  =   0.085729

H          x =  1.214271  y = -0.102528  z = -2.780825 angstrom
           Maximum rank =  0   Radius =  0.325 angstrom
                   Q00  =   0.086101

C          x = -1.601899  y = -3.460803  z = -0.055985 angstrom
           Maximum rank =  0   Radius =  0.650 angstrom
                   Q00  =  -0.250804

C          x = -2.180899  y = -4.859803  z = -0.246985 angstrom
           Maximum rank =  0   Radius =  0.650 angstrom
                   Q00  =  -0.226475

H          x = -1.737899  y = -2.893803  z = -0.974985 angstrom
           Maximum rank =  0   Radius =  0.325 angstrom
                   Q00  =   0.077537

H          x = -2.130899  y = -2.948803  z =  0.749015 angstrom
           Maximum rank =  0   Radius =  0.325 angstrom
                   Q00  =   0.080079

H          x = -0.539899  y = -3.516803  z =  0.190015 angstrom
           Maximum rank =  0   Radius =  0.325 angstrom
                   Q00  =   0.081198

H          x = -3.215899  y = -4.777803  z = -0.566985 angstrom
           Maximum rank =  0   Radius =  0.325 angstrom
                   Q00  =   0.081564

H          x = -1.609409  y = -5.436341  z = -0.989275 angstrom
           Maximum rank =  0   Radius =  0.325 angstrom
                   Q00  =   0.081252

H          x = -2.151459  y = -5.408451  z =  0.705968 angstrom
           Maximum rank =  0   Radius =  0.325 angstrom
                   Q00  =   0.078319

Total multipoles referred to origin at
           x =   0.000000,  y =    0.000000,  z =    0.000000 angstrom
                   Q00  =  -0.000000

Finished at 15:32:49 on 28 Apr 2020

  DMA results are available in the Python driver through the
	  variable('DMA DISTRIBUTED MULTIPOLES')
  and
	  variable('DMA TOTAL MULTIPOLES')
  commands.

    Psi4 stopped on: Tuesday, 28 April 2020 03:32PM
    Psi4 wall time for execution: 0:02:27.11

*** Psi4 exiting successfully. Buy a developer a beer!
