                               Psi4 1.3.2 release

  ==> Input File <==

--------------------------------------------------------------------------
import numpy as np
set {scf_type pk
basis cc-pvdz
d_convergence 10
gdma_switch   0
gdma_limit    0
gdma_origin   [ 0.0,  0.0,  0.0 ]
}
molecule test {
    units Angstrom
    0 1
    --
    0 1
    C                1.776040228413444     1.347003743930088     0.055935177828087
    O                1.414040228413444    -0.034996256069912     0.107935177828087
    H                1.920040228413444    -0.446996256069912     0.823935177828087
    H                2.855040228413444     1.433003743930088     0.183935177828087
    H                1.495050228413444     1.769563743930088    -0.920020822171913
    H                1.279830228413444     1.889243743930088     0.874322177828087
    C               -2.043959771586556    -0.886996256069912    -0.636064822171913
    O               -1.243959771586556    -0.390996256069912     0.429935177828087
    H               -0.322959771586556    -0.311996256069912     0.120935177828087
    H               -2.934959771586556    -1.356996256069912    -0.231064822171913
    H               -2.331489771586556    -0.049556256069912    -1.288764822171913
    H               -1.469779771586556    -1.642686256069912    -1.192165822171913

}
e, wfn = energy('scf', return_wfn=True)
gdma(wfn)
dmavals = variable('DMA DISTRIBUTED MULTIPOLES')
charges = np.array(dmavals)
print(charges)
np.save('SSI-079THR-110THR-1-dimer.npy', np.array(charges))--------------------------------------------------------------------------

*** tstart() called on ds3
*** at Mon Apr 27 21:17:31 2020

   => Loading Basis Set <=

    Name: CC-PVDZ
    Role: ORBITAL
    Keyword: BASIS
    atoms 1, 7      entry C          line   138 file /theoryfs2/ds/metcalf/miniconda2/envs/tf2gpu/share/psi4/basis/cc-pvdz.gbs
    atoms 2, 8      entry O          line   198 file /theoryfs2/ds/metcalf/miniconda2/envs/tf2gpu/share/psi4/basis/cc-pvdz.gbs
    atoms 3-6, 9-12 entry H          line    22 file /theoryfs2/ds/metcalf/miniconda2/envs/tf2gpu/share/psi4/basis/cc-pvdz.gbs

         ---------------------------------------------------------
                                   SCF
               by Justin Turney, Rob Parrish, Andy Simmonett
                          and Daniel G. A. Smith
                              RHF Reference
                        1 Threads,    500 MiB Core
         ---------------------------------------------------------

  ==> Geometry <==

    Molecular point group: c1
    Full point group: C1

    Geometry (in Angstrom), charge = 0, multiplicity = 1:

       Center              X                  Y                   Z               Mass
    ------------   -----------------  -----------------  -----------------  -----------------
         C            1.776040228413     1.347003743930     0.055935177828    12.000000000000
         O            1.414040228413    -0.034996256070     0.107935177828    15.994914619570
         H            1.920040228413    -0.446996256070     0.823935177828     1.007825032230
         H            2.855040228413     1.433003743930     0.183935177828     1.007825032230
         H            1.495050228413     1.769563743930    -0.920020822172     1.007825032230
         H            1.279830228413     1.889243743930     0.874322177828     1.007825032230
         C           -2.043959771587    -0.886996256070    -0.636064822172    12.000000000000
         O           -1.243959771587    -0.390996256070     0.429935177828    15.994914619570
         H           -0.322959771587    -0.311996256070     0.120935177828     1.007825032230
         H           -2.934959771587    -1.356996256070    -0.231064822172     1.007825032230
         H           -2.331489771587    -0.049556256070    -1.288764822172     1.007825032230
         H           -1.469779771587    -1.642686256070    -1.192165822172     1.007825032230

  Running in c1 symmetry.

  Rotational constants: A =      0.63327  B =      0.07567  C =      0.07444 [cm^-1]
  Rotational constants: A =  18985.06692  B =   2268.50501  C =   2231.74953 [MHz]
  Nuclear repulsion =  129.473901036433432

  Charge       = 0
  Multiplicity = 1
  Electrons    = 36
  Nalpha       = 18
  Nbeta        = 18

  ==> Algorithm <==

  SCF Algorithm Type is PK.
  DIIS enabled.
  MOM disabled.
  Fractional occupation disabled.
  Guess Type is SAD.
  Energy threshold   = 1.00e-06
  Density threshold  = 1.00e-10
  Integral threshold = 0.00e+00

  ==> Primary Basis <==

  Basis Set: CC-PVDZ
    Blend: CC-PVDZ
    Number of shells: 48
    Number of basis function: 96
    Number of Cartesian functions: 100
    Spherical Harmonics?: true
    Max angular momentum: 2

  ==> Pre-Iterations <==

   -------------------------------------------------------
    Irrep   Nso     Nmo     Nalpha   Nbeta   Ndocc  Nsocc
   -------------------------------------------------------
     A         96      96       0       0       0       0
   -------------------------------------------------------
    Total      96      96      18      18      18       0
   -------------------------------------------------------

  ==> Integral Setup <==

  Using in-core PK algorithm.
   Calculation information:
      Number of atoms:                  12
      Number of AO shells:              48
      Number of primitives:            128
      Number of atomic orbitals:       100
      Number of basis functions:        96

      Integral cutoff                 1.00e-12
      Number of threads:                 1

  Performing in-core PK
  Using 21682992 doubles for integral storage.
  We computed 605199 shell quartets total.
  Whereas there are 692076 unique shell quartets.

  ==> DiskJK: Disk-Based J/K Matrices <==

    J tasked:                  Yes
    K tasked:                  Yes
    wK tasked:                  No
    Memory [MiB]:              375
    Schwarz Cutoff:          1E-12

    OpenMP threads:              1

  Minimum eigenvalue in the overlap matrix is 1.5516182153E-02.
  Using Symmetric Orthogonalization.

  SCF Guess: Superposition of Atomic Densities via on-the-fly atomic UHF.

  ==> Iterations <==

                        Total Energy        Delta E     RMS |[F,P]|

   @RHF iter SAD:  -228.85888544667250   -2.28859e+02   0.00000e+00
   @RHF iter   1:  -229.98164076082426   -1.12276e+00   5.03441e-03 DIIS
   @RHF iter   2:  -230.07881649779998   -9.71757e-02   2.51844e-03 DIIS
   @RHF iter   3:  -230.10025607443177   -2.14396e-02   4.63435e-04 DIIS
   @RHF iter   4:  -230.10168026420007   -1.42419e-03   1.10375e-04 DIIS
   @RHF iter   5:  -230.10175984280460   -7.95786e-05   2.88848e-05 DIIS
   @RHF iter   6:  -230.10176585042106   -6.00762e-06   6.75735e-06 DIIS
   @RHF iter   7:  -230.10176638320277   -5.32782e-07   1.43712e-06 DIIS
   @RHF iter   8:  -230.10176641004873   -2.68460e-08   3.66708e-07 DIIS
   @RHF iter   9:  -230.10176641099380   -9.45079e-10   1.37299e-07 DIIS
   @RHF iter  10:  -230.10176641112213   -1.28324e-10   2.62126e-08 DIIS
   @RHF iter  11:  -230.10176641112949   -7.36122e-12   7.21696e-09 DIIS
   @RHF iter  12:  -230.10176641112977   -2.84217e-13   2.14416e-09 DIIS
   @RHF iter  13:  -230.10176641113026   -4.83169e-13   4.64112e-10 DIIS
   @RHF iter  14:  -230.10176641113006    1.98952e-13   1.50365e-10 DIIS
   @RHF iter  15:  -230.10176641112992    1.42109e-13   6.31730e-11 DIIS
  Energy and wave function converged.

  ==> Post-Iterations <==

    Orbital Energies [Eh]
    ---------------------

    Doubly Occupied:

       1A    -20.578671     2A    -20.505148     3A    -11.293373
       4A    -11.252744     5A     -1.375856     6A     -1.308032
       7A     -0.937531     8A     -0.893889     9A     -0.709426
      10A     -0.659396    11A     -0.628253    12A     -0.604201
      13A     -0.589666    14A     -0.559956    15A     -0.519873
      16A     -0.472449    17A     -0.451257    18A     -0.408060

    Virtual:

      19A      0.167984    20A      0.208831    21A      0.212821
      22A      0.253341    23A      0.260669    24A      0.281089
      25A      0.284027    26A      0.320742    27A      0.354569
      28A      0.450946    29A      0.625461    30A      0.630855
      31A      0.657238    32A      0.664347    33A      0.703970
      34A      0.755606    35A      0.796491    36A      0.843655
      37A      0.851478    38A      0.878296    39A      0.880799
      40A      0.885525    41A      0.915378    42A      0.934582
      43A      1.099071    44A      1.126874    45A      1.147213
      46A      1.164243    47A      1.178066    48A      1.208599
      49A      1.248643    50A      1.351968    51A      1.391186
      52A      1.421941    53A      1.454296    54A      1.578720
      55A      1.606493    56A      1.652243    57A      1.673004
      58A      1.686136    59A      1.714965    60A      1.750916
      61A      1.849585    62A      1.869050    63A      1.887927
      64A      1.896426    65A      1.923039    66A      1.945136
      67A      1.961374    68A      1.975840    69A      2.007097
      70A      2.114987    71A      2.135007    72A      2.168762
      73A      2.265157    74A      2.320085    75A      2.349152
      76A      2.358571    77A      2.418588    78A      2.437224
      79A      2.483237    80A      2.705048    81A      2.728478
      82A      2.741634    83A      2.758086    84A      2.768162
      85A      2.788513    86A      2.842679    87A      3.312390
      88A      3.324574    89A      3.359589    90A      3.421515
      91A      3.431857    92A      3.485246    93A      3.560126
      94A      3.639237    95A      4.065422    96A      4.164171

    Final Occupation by Irrep:
              A
    DOCC [    18 ]

  @RHF Final Energy:  -230.10176641112992

   => Energetics <=

    Nuclear Repulsion Energy =            129.4739010364334320
    One-Electron Energy =                -571.6557719548982277
    Two-Electron Energy =                 212.0801045073349087
    Total Energy =                       -230.1017664111299155

Computation Completed

Properties will be evaluated at   0.000000,   0.000000,   0.000000 [a0]

Properties computed using the SCF density matrix

  Nuclear Dipole Moment: [e a0]
     X:     0.4609      Y:     1.2013      Z:    -1.5244

  Electronic Dipole Moment: [e a0]
     X:     0.6259      Y:    -0.9049      Z:     1.3541

  Dipole Moment: [e a0]
     X:     1.0868      Y:     0.2964      Z:    -0.1703     Total:     1.1393

  Dipole Moment: [D]
     X:     2.7624      Y:     0.7533      Z:    -0.4329     Total:     2.8958

*** tstop() called on ds3 at Mon Apr 27 21:17:36 2020
Module time:
	user time   =       4.65 seconds =       0.08 minutes
	system time =       0.08 seconds =       0.00 minutes
	total time  =          5 seconds =       0.08 minutes
Total time:
	user time   =       4.65 seconds =       0.08 minutes
	system time =       0.08 seconds =       0.00 minutes
	total time  =          5 seconds =       0.08 minutes
                                     G D M A

                                 by Anthony Stone

                           version 2.2.06, 22 June 2011

               Distributed Multipoles from Gaussian wavefunctions

Starting at 21:17:36 on 27 Apr 2020

Using SCF density matrix from file ./SSI/SSI-079THR-110THR-1-dimer.test.31113.fchk

                         Distributed Multipole Analysis

Standard DMA

Positions and radii in angstrom
Multipole moments in atomic units, ea_0^k for rank k

C          x =  1.776040  y =  1.347004  z =  0.055935 angstrom
           Maximum rank =  0   Radius =  0.650 angstrom
                   Q00  =  -0.069322

O          x =  1.414040  y = -0.034996  z =  0.107935 angstrom
           Maximum rank =  0   Radius =  0.650 angstrom
                   Q00  =  -0.624587

H          x =  1.920040  y = -0.446996  z =  0.823935 angstrom
           Maximum rank =  0   Radius =  0.325 angstrom
                   Q00  =   0.405207

H          x =  2.855040  y =  1.433004  z =  0.183935 angstrom
           Maximum rank =  0   Radius =  0.325 angstrom
                   Q00  =   0.089719

H          x =  1.495050  y =  1.769564  z = -0.920021 angstrom
           Maximum rank =  0   Radius =  0.325 angstrom
                   Q00  =   0.121535

H          x =  1.279830  y =  1.889244  z =  0.874322 angstrom
           Maximum rank =  0   Radius =  0.325 angstrom
                   Q00  =   0.089459

C          x = -2.043960  y = -0.886996  z = -0.636065 angstrom
           Maximum rank =  0   Radius =  0.650 angstrom
                   Q00  =  -0.033944

O          x = -1.243960  y = -0.390996  z =  0.429935 angstrom
           Maximum rank =  0   Radius =  0.650 angstrom
                   Q00  =  -0.670521

H          x = -0.322960  y = -0.311996  z =  0.120935 angstrom
           Maximum rank =  0   Radius =  0.325 angstrom
                   Q00  =   0.476676

H          x = -2.934960  y = -1.356996  z = -0.231065 angstrom
           Maximum rank =  0   Radius =  0.325 angstrom
                   Q00  =   0.098085

H          x = -2.331490  y = -0.049556  z = -1.288765 angstrom
           Maximum rank =  0   Radius =  0.325 angstrom
                   Q00  =   0.059228

H          x = -1.469780  y = -1.642686  z = -1.192166 angstrom
           Maximum rank =  0   Radius =  0.325 angstrom
                   Q00  =   0.058465

Total multipoles referred to origin at
           x =   0.000000,  y =    0.000000,  z =    0.000000 angstrom
                   Q00  =  -0.000000

Finished at 21:17:36 on 27 Apr 2020

  DMA results are available in the Python driver through the
	  variable('DMA DISTRIBUTED MULTIPOLES')
  and
	  variable('DMA TOTAL MULTIPOLES')
  commands.

    Psi4 stopped on: Monday, 27 April 2020 09:17PM
    Psi4 wall time for execution: 0:00:05.01

*** Psi4 exiting successfully. Buy a developer a beer!
