                               Psi4 1.3.2 release

  ==> Input File <==

--------------------------------------------------------------------------
import numpy as np
set {scf_type pk
basis cc-pvdz
d_convergence 10
gdma_switch   0
gdma_limit    0
gdma_origin   [ 0.0,  0.0,  0.0 ]
}
molecule test {
    units Angstrom
    0 1
    --
    0 1
    C               -0.312723735204503    -1.809398165070206    -0.724022750837001
    C                0.667276264795497    -2.741398165070206    -1.487022750837002
    H               -0.140723735204503    -0.774398165070206    -1.017022750837001
    H               -1.334723735204503    -2.073398165070206    -0.967022750837001
    H               -0.168723735204503    -1.913398165070206     0.351977249162999
    H                0.521276264795497    -2.578398165070206    -2.554022750837001
    H                1.684845764795497    -2.450664165070207    -1.186979350837001
    H                0.504959264795497    -3.806563165070206    -1.265490750837001
    C               -0.402723735204503     1.669601834929793     0.698977249162999
    C                0.055276264795497     2.876601834929794     1.510977249162998
    H                0.055276264795497     0.754601834929794     1.070977249162999
    H               -1.482723735204503     1.563601834929794     0.793977249162999
    H               -0.152723735204503     1.809601834929794    -0.352022750837001
    H               -0.046723735204503     2.627601834929794     2.567977249162999
    H               -0.610723735204503     3.711601834929794     1.288977249162999
    H                1.086109864795497     3.184494834929794     1.281665249162999

}
e, wfn = energy('scf', return_wfn=True)
gdma(wfn)
dmavals = variable('DMA DISTRIBUTED MULTIPOLES')
charges = np.array(dmavals)
print(charges)
np.save('SSI-046LEU-068ILE-1-dimer.npy', np.array(charges))--------------------------------------------------------------------------

*** tstart() called on ds3
*** at Tue Apr 28 09:52:03 2020

   => Loading Basis Set <=

    Name: CC-PVDZ
    Role: ORBITAL
    Keyword: BASIS
    atoms 1-2, 9-10  entry C          line   138 file /theoryfs2/ds/metcalf/miniconda2/envs/tf2gpu/share/psi4/basis/cc-pvdz.gbs
    atoms 3-8, 11-16 entry H          line    22 file /theoryfs2/ds/metcalf/miniconda2/envs/tf2gpu/share/psi4/basis/cc-pvdz.gbs

         ---------------------------------------------------------
                                   SCF
               by Justin Turney, Rob Parrish, Andy Simmonett
                          and Daniel G. A. Smith
                              RHF Reference
                        1 Threads,    500 MiB Core
         ---------------------------------------------------------

  ==> Geometry <==

    Molecular point group: c1
    Full point group: C1

    Geometry (in Angstrom), charge = 0, multiplicity = 1:

       Center              X                  Y                   Z               Mass
    ------------   -----------------  -----------------  -----------------  -----------------
         C           -0.312723735205    -1.809398165070    -0.724022750837    12.000000000000
         C            0.667276264795    -2.741398165070    -1.487022750837    12.000000000000
         H           -0.140723735205    -0.774398165070    -1.017022750837     1.007825032230
         H           -1.334723735205    -2.073398165070    -0.967022750837     1.007825032230
         H           -0.168723735205    -1.913398165070     0.351977249163     1.007825032230
         H            0.521276264795    -2.578398165070    -2.554022750837     1.007825032230
         H            1.684845764795    -2.450664165070    -1.186979350837     1.007825032230
         H            0.504959264795    -3.806563165070    -1.265490750837     1.007825032230
         C           -0.402723735205     1.669601834930     0.698977249163    12.000000000000
         C            0.055276264795     2.876601834930     1.510977249163    12.000000000000
         H            0.055276264795     0.754601834930     1.070977249163     1.007825032230
         H           -1.482723735205     1.563601834930     0.793977249163     1.007825032230
         H           -0.152723735205     1.809601834930    -0.352022750837     1.007825032230
         H           -0.046723735205     2.627601834930     2.567977249163     1.007825032230
         H           -0.610723735205     3.711601834930     1.288977249163     1.007825032230
         H            1.086109864795     3.184494834930     1.281665249163     1.007825032230

  Running in c1 symmetry.

  Rotational constants: A =      0.75085  B =      0.03943  C =      0.03869 [cm^-1]
  Rotational constants: A =  22509.78185  B =   1182.15500  C =   1159.85451 [MHz]
  Nuclear repulsion =  119.342703240600372

  Charge       = 0
  Multiplicity = 1
  Electrons    = 36
  Nalpha       = 18
  Nbeta        = 18

  ==> Algorithm <==

  SCF Algorithm Type is PK.
  DIIS enabled.
  MOM disabled.
  Fractional occupation disabled.
  Guess Type is SAD.
  Energy threshold   = 1.00e-06
  Density threshold  = 1.00e-10
  Integral threshold = 0.00e+00

  ==> Primary Basis <==

  Basis Set: CC-PVDZ
    Blend: CC-PVDZ
    Number of shells: 60
    Number of basis function: 116
    Number of Cartesian functions: 120
    Spherical Harmonics?: true
    Max angular momentum: 2

  ==> Pre-Iterations <==

   -------------------------------------------------------
    Irrep   Nso     Nmo     Nalpha   Nbeta   Ndocc  Nsocc
   -------------------------------------------------------
     A        116     116       0       0       0       0
   -------------------------------------------------------
    Total     116     116      18      18      18       0
   -------------------------------------------------------

  ==> Integral Setup <==

  Using integral reordering PK algorithm.
  Sizing the integral batches needed.
  Building batch lookup table.
   Calculation information:
      Number of atoms:                  16
      Number of AO shells:              60
      Number of primitives:            148
      Number of atomic orbitals:       120
      Number of basis functions:       116

      Integral cutoff                 1.00e-12
      Number of threads:                 1

	Batch   1 pq = [       0,    6786] index = [             0,23028291] size =     23028291
  Task number: 3
  Buffer size: 11059200
  Buffer per thread: 2
  We computed 1325213 shell quartets total.
  Whereas there are 1675365 unique shell quartets.

  ==> DiskJK: Disk-Based J/K Matrices <==

    J tasked:                  Yes
    K tasked:                  Yes
    wK tasked:                  No
    Memory [MiB]:              375
    Schwarz Cutoff:          1E-12

    OpenMP threads:              1

  Minimum eigenvalue in the overlap matrix is 6.3679196017E-03.
  Using Symmetric Orthogonalization.

  SCF Guess: Superposition of Atomic Densities via on-the-fly atomic UHF.

  ==> Iterations <==

                        Total Energy        Delta E     RMS |[F,P]|

   @RHF iter SAD:  -157.32296973611281   -1.57323e+02   0.00000e+00
   @RHF iter   1:  -158.30812161772178   -9.85152e-01   4.18844e-03 DIIS
   @RHF iter   2:  -158.44038027127522   -1.32259e-01   1.77440e-03 DIIS
   @RHF iter   3:  -158.46327754745900   -2.28973e-02   3.48537e-04 DIIS
   @RHF iter   4:  -158.46509513751519   -1.81759e-03   3.92943e-05 DIIS
   @RHF iter   5:  -158.46511932794260   -2.41904e-05   7.18305e-06 DIIS
   @RHF iter   6:  -158.46512005046225   -7.22520e-07   1.50682e-06 DIIS
   @RHF iter   7:  -158.46512007139938   -2.09371e-08   3.31836e-07 DIIS
   @RHF iter   8:  -158.46512007256916   -1.16978e-09   4.22634e-08 DIIS
   @RHF iter   9:  -158.46512007259935   -3.01839e-11   8.82422e-09 DIIS
   @RHF iter  10:  -158.46512007260054   -1.19371e-12   2.84705e-09 DIIS
   @RHF iter  11:  -158.46512007260051    2.84217e-14   5.94115e-10 DIIS
   @RHF iter  12:  -158.46512007260108   -5.68434e-13   9.64069e-11 DIIS
  Energy and wave function converged.

  ==> Post-Iterations <==

    Orbital Energies [Eh]
    ---------------------

    Doubly Occupied:

       1A    -11.220325     2A    -11.217620     3A    -11.216285
       4A    -11.215633     5A     -1.019501     6A     -1.012053
       7A     -0.840010     8A     -0.834172     9A     -0.601408
      10A     -0.598620    11A     -0.595848    12A     -0.592975
      13A     -0.505773    14A     -0.493284    15A     -0.489885
      16A     -0.486231    17A     -0.482902    18A     -0.480166

    Virtual:

      19A      0.176843    20A      0.194308    21A      0.223296
      22A      0.229986    23A      0.246558    24A      0.256070
      25A      0.267183    26A      0.275263    27A      0.283494
      28A      0.289751    29A      0.308944    30A      0.330166
      31A      0.378002    32A      0.414414    33A      0.575137
      34A      0.593634    35A      0.598035    36A      0.603050
      37A      0.606324    38A      0.650414    39A      0.666234
      40A      0.688867    41A      0.697832    42A      0.765524
      43A      0.823778    44A      0.886413    45A      0.887554
      46A      0.892203    47A      0.895131    48A      0.896621
      49A      0.900692    50A      0.907882    51A      0.913401
      52A      0.918769    53A      0.924412    54A      0.948638
      55A      0.968058    56A      0.992344    57A      1.117411
      58A      1.126796    59A      1.137879    60A      1.147848
      61A      1.228190    62A      1.247521    63A      1.458420
      64A      1.470326    65A      1.478569    66A      1.492947
      67A      1.579032    68A      1.588214    69A      1.678165
      70A      1.683068    71A      1.693299    72A      1.696821
      73A      1.854339    74A      1.857769    75A      1.864947
      76A      1.871780    77A      1.880019    78A      1.909337
      79A      1.928947    80A      1.940036    81A      1.943201
      82A      1.944632    83A      1.949261    84A      1.962834
      85A      1.965221    86A      1.968443    87A      1.979280
      88A      2.030013    89A      2.091122    90A      2.112873
      91A      2.135335    92A      2.140289    93A      2.284089
      94A      2.306380    95A      2.309092    96A      2.329026
      97A      2.440493    98A      2.450580    99A      2.458549
     100A      2.480179   101A      2.555422   102A      2.569172
     103A      2.583527   104A      2.590881   105A      2.760440
     106A      2.769523   107A      2.784956   108A      2.803095
     109A      2.834348   110A      2.845653   111A      2.853686
     112A      2.857111   113A      2.935932   114A      2.940975
     115A      2.955162   116A      2.985194

    Final Occupation by Irrep:
              A
    DOCC [    18 ]

  @RHF Final Energy:  -158.46512007260108

   => Energetics <=

    Nuclear Repulsion Energy =            119.3427032406003718
    One-Electron Energy =                -447.8102621024486325
    Two-Electron Energy =                 170.0024387892471793
    Total Energy =                       -158.4651200726010813

Computation Completed

Properties will be evaluated at   0.000000,   0.000000,   0.000000 [a0]

Properties computed using the SCF density matrix

  Nuclear Dipole Moment: [e a0]
     X:    -0.0793      Y:     0.0513      Z:     0.0122

  Electronic Dipole Moment: [e a0]
     X:     0.0563      Y:    -0.0405      Z:    -0.0126

  Dipole Moment: [e a0]
     X:    -0.0230      Y:     0.0108      Z:    -0.0004     Total:     0.0254

  Dipole Moment: [D]
     X:    -0.0585      Y:     0.0273      Z:    -0.0010     Total:     0.0646

*** tstop() called on ds3 at Tue Apr 28 09:52:14 2020
Module time:
	user time   =       7.90 seconds =       0.13 minutes
	system time =       3.46 seconds =       0.06 minutes
	total time  =         11 seconds =       0.18 minutes
Total time:
	user time   =       7.90 seconds =       0.13 minutes
	system time =       3.46 seconds =       0.06 minutes
	total time  =         11 seconds =       0.18 minutes
                                     G D M A

                                 by Anthony Stone

                           version 2.2.06, 22 June 2011

               Distributed Multipoles from Gaussian wavefunctions

Starting at 9:52:14 on 28 Apr 2020

Using SCF density matrix from file ./SSI/SSI-046LEU-068ILE-1-dimer.test.14007.fchk

                         Distributed Multipole Analysis

Standard DMA

Positions and radii in angstrom
Multipole moments in atomic units, ea_0^k for rank k

C          x = -0.312724  y = -1.809398  z = -0.724023 angstrom
           Maximum rank =  0   Radius =  0.650 angstrom
                   Q00  =  -0.246157

C          x =  0.667276  y = -2.741398  z = -1.487023 angstrom
           Maximum rank =  0   Radius =  0.650 angstrom
                   Q00  =  -0.241486

H          x = -0.140724  y = -0.774398  z = -1.017023 angstrom
           Maximum rank =  0   Radius =  0.325 angstrom
                   Q00  =   0.086200

H          x = -1.334724  y = -2.073398  z = -0.967023 angstrom
           Maximum rank =  0   Radius =  0.325 angstrom
                   Q00  =   0.080382

H          x = -0.168724  y = -1.913398  z =  0.351977 angstrom
           Maximum rank =  0   Radius =  0.325 angstrom
                   Q00  =   0.078856

H          x =  0.521276  y = -2.578398  z = -2.554023 angstrom
           Maximum rank =  0   Radius =  0.325 angstrom
                   Q00  =   0.080640

H          x =  1.684846  y = -2.450664  z = -1.186979 angstrom
           Maximum rank =  0   Radius =  0.325 angstrom
                   Q00  =   0.077510

H          x =  0.504959  y = -3.806563  z = -1.265491 angstrom
           Maximum rank =  0   Radius =  0.325 angstrom
                   Q00  =   0.082975

C          x = -0.402724  y =  1.669602  z =  0.698977 angstrom
           Maximum rank =  0   Radius =  0.650 angstrom
                   Q00  =  -0.234786

C          x =  0.055276  y =  2.876602  z =  1.510977 angstrom
           Maximum rank =  0   Radius =  0.650 angstrom
                   Q00  =  -0.235224

H          x =  0.055276  y =  0.754602  z =  1.070977 angstrom
           Maximum rank =  0   Radius =  0.325 angstrom
                   Q00  =   0.079704

H          x = -1.482724  y =  1.563602  z =  0.793977 angstrom
           Maximum rank =  0   Radius =  0.325 angstrom
                   Q00  =   0.079065

H          x = -0.152724  y =  1.809602  z = -0.352023 angstrom
           Maximum rank =  0   Radius =  0.325 angstrom
                   Q00  =   0.076525

H          x = -0.046724  y =  2.627602  z =  2.567977 angstrom
           Maximum rank =  0   Radius =  0.325 angstrom
                   Q00  =   0.078235

H          x = -0.610724  y =  3.711602  z =  1.288977 angstrom
           Maximum rank =  0   Radius =  0.325 angstrom
                   Q00  =   0.076955

H          x =  1.086110  y =  3.184495  z =  1.281665 angstrom
           Maximum rank =  0   Radius =  0.325 angstrom
                   Q00  =   0.080604

Total multipoles referred to origin at
           x =   0.000000,  y =    0.000000,  z =    0.000000 angstrom
                   Q00  =  -0.000000

Finished at 9:52:14 on 28 Apr 2020

  DMA results are available in the Python driver through the
	  variable('DMA DISTRIBUTED MULTIPOLES')
  and
	  variable('DMA TOTAL MULTIPOLES')
  commands.

    Psi4 stopped on: Tuesday, 28 April 2020 09:52AM
    Psi4 wall time for execution: 0:00:11.27

*** Psi4 exiting successfully. Buy a developer a beer!
