                               Psi4 1.3.2 release

  ==> Input File <==

--------------------------------------------------------------------------
import numpy as np
set {scf_type pk
basis cc-pvdz
d_convergence 10
gdma_switch   0
gdma_limit    0
gdma_origin   [ 0.0,  0.0,  0.0 ]
}
molecule test {
    units Angstrom
    0 1
    --
    0 1
    C               -0.214365067952320    -1.963696070013260    -1.872081630645105
    C               -1.393365067952320     0.452303929986740     0.598918369354895
    C               -0.641365067952320    -0.739696070013260    -1.099081630645105
    C               -0.725365067952320     0.563303929986740    -1.499081630645105
    N               -1.051365067952320    -0.767696070013260     0.220918369354895
    N               -1.198365067952320     1.282303929986740    -0.427081630645105
    H               -1.761365067952320     0.661303929986740     1.597918369354895
    H               -1.370365067952320     2.279303929986740    -0.427081630645105
    H               -0.493365067952320     1.031303929986740    -2.447081630645104
    H                0.564634932047680    -2.455696070013260    -1.286081630645105
    H                0.215634932047680    -1.615696070013260    -2.811081630645104
    H               -1.015135067952320    -2.682896070013260    -2.099051630645105
    C                2.210634932047681    -0.198696070013260     1.687918369354895
    C                2.516634932047681     1.258303929986740     2.095918369354895
    H                1.421634932047680    -0.212696070013260     0.937918369354895
    H                3.105634932047681    -0.662696070013260     1.274918369354895
    H                1.883634932047680    -0.767696070013260     2.559918369354896
    H                3.297634932047680     1.264303929986740     2.847918369354896
    H                1.589456732047680     1.681403929986740     2.509808369354896
    H                2.950098932047680     1.809203929986740     1.248208369354895

}
e, wfn = energy('scf', return_wfn=True)
gdma(wfn)
dmavals = variable('DMA DISTRIBUTED MULTIPOLES')
charges = np.array(dmavals)
print(charges)
np.save('SSI-056HIE-287LEU-2-dimer.npy', np.array(charges))--------------------------------------------------------------------------

*** tstart() called on ds3
*** at Tue Apr 28 02:00:13 2020

   => Loading Basis Set <=

    Name: CC-PVDZ
    Role: ORBITAL
    Keyword: BASIS
    atoms 1-4, 13-14  entry C          line   138 file /theoryfs2/ds/metcalf/miniconda2/envs/tf2gpu/share/psi4/basis/cc-pvdz.gbs
    atoms 5-6         entry N          line   168 file /theoryfs2/ds/metcalf/miniconda2/envs/tf2gpu/share/psi4/basis/cc-pvdz.gbs
    atoms 7-12, 15-20 entry H          line    22 file /theoryfs2/ds/metcalf/miniconda2/envs/tf2gpu/share/psi4/basis/cc-pvdz.gbs

         ---------------------------------------------------------
                                   SCF
               by Justin Turney, Rob Parrish, Andy Simmonett
                          and Daniel G. A. Smith
                              RHF Reference
                        1 Threads,    500 MiB Core
         ---------------------------------------------------------

  ==> Geometry <==

    Molecular point group: c1
    Full point group: C1

    Geometry (in Angstrom), charge = 0, multiplicity = 1:

       Center              X                  Y                   Z               Mass
    ------------   -----------------  -----------------  -----------------  -----------------
         C           -0.214365067952    -1.963696070013    -1.872081630645    12.000000000000
         C           -1.393365067952     0.452303929987     0.598918369355    12.000000000000
         C           -0.641365067952    -0.739696070013    -1.099081630645    12.000000000000
         C           -0.725365067952     0.563303929987    -1.499081630645    12.000000000000
         N           -1.051365067952    -0.767696070013     0.220918369355    14.003074004430
         N           -1.198365067952     1.282303929987    -0.427081630645    14.003074004430
         H           -1.761365067952     0.661303929987     1.597918369355     1.007825032230
         H           -1.370365067952     2.279303929987    -0.427081630645     1.007825032230
         H           -0.493365067952     1.031303929987    -2.447081630645     1.007825032230
         H            0.564634932048    -2.455696070013    -1.286081630645     1.007825032230
         H            0.215634932048    -1.615696070013    -2.811081630645     1.007825032230
         H           -1.015135067952    -2.682896070013    -2.099051630645     1.007825032230
         C            2.210634932048    -0.198696070013     1.687918369355    12.000000000000
         C            2.516634932048     1.258303929987     2.095918369355    12.000000000000
         H            1.421634932048    -0.212696070013     0.937918369355     1.007825032230
         H            3.105634932048    -0.662696070013     1.274918369355     1.007825032230
         H            1.883634932048    -0.767696070013     2.559918369355     1.007825032230
         H            3.297634932048     1.264303929987     2.847918369355     1.007825032230
         H            1.589456732048     1.681403929987     2.509808369355     1.007825032230
         H            2.950098932048     1.809203929987     1.248208369355     1.007825032230

  Running in c1 symmetry.

  Rotational constants: A =      0.08328  B =      0.03589  C =      0.02999 [cm^-1]
  Rotational constants: A =   2496.81744  B =   1076.02405  C =    899.16211 [MHz]
  Nuclear repulsion =  360.062175949166260

  Charge       = 0
  Multiplicity = 1
  Electrons    = 62
  Nalpha       = 31
  Nbeta        = 31

  ==> Algorithm <==

  SCF Algorithm Type is PK.
  DIIS enabled.
  MOM disabled.
  Fractional occupation disabled.
  Guess Type is SAD.
  Energy threshold   = 1.00e-06
  Density threshold  = 1.00e-10
  Integral threshold = 0.00e+00

  ==> Primary Basis <==

  Basis Set: CC-PVDZ
    Blend: CC-PVDZ
    Number of shells: 84
    Number of basis function: 172
    Number of Cartesian functions: 180
    Spherical Harmonics?: true
    Max angular momentum: 2

  ==> Pre-Iterations <==

   -------------------------------------------------------
    Irrep   Nso     Nmo     Nalpha   Nbeta   Ndocc  Nsocc
   -------------------------------------------------------
     A        172     172       0       0       0       0
   -------------------------------------------------------
    Total     172     172      31      31      31       0
   -------------------------------------------------------

  ==> Integral Setup <==

  Using integral reordering PK algorithm.
  Sizing the integral batches needed.
  Building batch lookup table.
   Calculation information:
      Number of atoms:                  20
      Number of AO shells:              84
      Number of primitives:            236
      Number of atomic orbitals:       180
      Number of basis functions:       172

      Integral cutoff                 1.00e-12
      Number of threads:                 1

	Batch   1 pq = [       0,    9405] index = [             0,44231715] size =     44231715
	Batch   2 pq = [    9405,   13301] index = [      44231715,88464951] size =     44233236
	Batch   3 pq = [   13301,   14878] index = [      88464951,110684881] size =     22219930
  Task number: 11
  Buffer size: 11059200
  Buffer per thread: 2
  We computed 5731400 shell quartets total.
  Whereas there are 6374235 unique shell quartets.

  ==> DiskJK: Disk-Based J/K Matrices <==

    J tasked:                  Yes
    K tasked:                  Yes
    wK tasked:                  No
    Memory [MiB]:              375
    Schwarz Cutoff:          1E-12

    OpenMP threads:              1

  Minimum eigenvalue in the overlap matrix is 1.1978304748E-03.
  Using Symmetric Orthogonalization.

  SCF Guess: Superposition of Atomic Densities via on-the-fly atomic UHF.

  ==> Iterations <==

                        Total Energy        Delta E     RMS |[F,P]|

   @RHF iter SAD:  -342.15829618390791   -3.42158e+02   0.00000e+00
   @RHF iter   1:  -342.88950198405331   -7.31206e-01   3.33500e-03 DIIS
   @RHF iter   2:  -343.06017123317122   -1.70669e-01   1.67128e-03 DIIS
   @RHF iter   3:  -343.09925806111170   -3.90868e-02   4.29845e-04 DIIS
   @RHF iter   4:  -343.10266037000258   -3.40231e-03   1.81769e-04 DIIS
   @RHF iter   5:  -343.10322250188369   -5.62132e-04   2.67489e-05 DIIS
   @RHF iter   6:  -343.10324386013838   -2.13583e-05   1.15248e-05 DIIS
   @RHF iter   7:  -343.10324742444800   -3.56431e-06   4.15094e-06 DIIS
   @RHF iter   8:  -343.10324822196804   -7.97520e-07   1.63153e-06 DIIS
   @RHF iter   9:  -343.10324839288165   -1.70914e-07   5.64833e-07 DIIS
   @RHF iter  10:  -343.10324840790759   -1.50259e-08   1.76104e-07 DIIS
   @RHF iter  11:  -343.10324840961397   -1.70638e-09   7.91652e-08 DIIS
   @RHF iter  12:  -343.10324840984720   -2.33229e-10   3.15899e-08 DIIS
   @RHF iter  13:  -343.10324840989233   -4.51337e-11   8.96914e-09 DIIS
   @RHF iter  14:  -343.10324840989551   -3.18323e-12   3.22902e-09 DIIS
   @RHF iter  15:  -343.10324840989745   -1.93268e-12   1.31571e-09 DIIS
   @RHF iter  16:  -343.10324840989705    3.97904e-13   4.11338e-10 DIIS
   @RHF iter  17:  -343.10324840989591    1.13687e-12   1.22560e-10 DIIS
   @RHF iter  18:  -343.10324840989580    1.13687e-13   4.54127e-11 DIIS
  Energy and wave function converged.

  ==> Post-Iterations <==

    Orbital Energies [Eh]
    ---------------------

    Doubly Occupied:

       1A    -15.621444     2A    -15.528489     3A    -11.293281
       4A    -11.254252     5A    -11.245454     6A    -11.226214
       7A    -11.212752     8A    -11.202099     9A     -1.342006
      10A     -1.154436    11A     -1.030952    12A     -1.004823
      13A     -0.939958    14A     -0.826397    15A     -0.817049
      16A     -0.768810    17A     -0.737853    18A     -0.609482
      19A     -0.606776    20A     -0.598895    21A     -0.593144
      22A     -0.579416    23A     -0.554405    24A     -0.538980
      25A     -0.521939    26A     -0.486654    27A     -0.478858
      28A     -0.471653    29A     -0.410647    30A     -0.378151
      31A     -0.311022

    Virtual:

      32A      0.167241    33A      0.183744    34A      0.196294
      35A      0.202021    36A      0.221035    37A      0.223597
      38A      0.232521    39A      0.254221    40A      0.266261
      41A      0.274594    42A      0.281964    43A      0.292188
      44A      0.304698    45A      0.324282    46A      0.377745
      47A      0.390535    48A      0.400331    49A      0.425157
      50A      0.483372    51A      0.515309    52A      0.587636
      53A      0.604970    54A      0.607693    55A      0.611663
      56A      0.623565    57A      0.645365    58A      0.663020
      59A      0.687154    60A      0.688902    61A      0.720414
      62A      0.744883    63A      0.754607    64A      0.774090
      65A      0.792501    66A      0.816370    67A      0.838346
      68A      0.851423    69A      0.878576    70A      0.882401
      71A      0.897562    72A      0.902472    73A      0.904850
      74A      0.912303    75A      0.919305    76A      0.928974
      77A      0.951204    78A      0.955549    79A      0.962109
      80A      0.974087    81A      1.011681    82A      1.041755
      83A      1.058109    84A      1.096122    85A      1.113297
      86A      1.120066    87A      1.138821    88A      1.148139
      89A      1.150437    90A      1.201040    91A      1.247021
      92A      1.271281    93A      1.316415    94A      1.321122
      95A      1.327000    96A      1.356403    97A      1.424351
      98A      1.440610    99A      1.481250   100A      1.490661
     101A      1.494345   102A      1.530829   103A      1.567681
     104A      1.584639   105A      1.603867   106A      1.634898
     107A      1.674758   108A      1.685666   109A      1.707591
     110A      1.752000   111A      1.771603   112A      1.795777
     113A      1.816629   114A      1.859213   115A      1.866027
     116A      1.885432   117A      1.895193   118A      1.913080
     119A      1.935915   120A      1.940903   121A      1.950179
     122A      1.958337   123A      1.964822   124A      1.969263
     125A      1.973474   126A      1.976683   127A      1.990668
     128A      1.994446   129A      2.036038   130A      2.096411
     131A      2.110194   132A      2.125357   133A      2.131726
     134A      2.142043   135A      2.178929   136A      2.202146
     137A      2.219787   138A      2.290113   139A      2.304890
     140A      2.321639   141A      2.339701   142A      2.387275
     143A      2.438366   144A      2.444866   145A      2.458808
     146A      2.481895   147A      2.495983   148A      2.543235
     149A      2.577497   150A      2.591039   151A      2.611718
     152A      2.679545   153A      2.742957   154A      2.750693
     155A      2.779076   156A      2.783267   157A      2.784870
     158A      2.810781   159A      2.817485   160A      2.847402
     161A      2.859102   162A      2.864484   163A      2.893768
     164A      2.901983   165A      2.947128   166A      2.974556
     167A      3.016395   168A      3.092131   169A      3.169104
     170A      3.233986   171A      3.467645   172A      3.792791

    Final Occupation by Irrep:
              A
    DOCC [    31 ]

  @RHF Final Energy:  -343.10324840989580

   => Energetics <=

    Nuclear Repulsion Energy =            360.0621759491662601
    One-Electron Energy =               -1177.6382661369211746
    Two-Electron Energy =                 474.4728417778591734
    Total Energy =                       -343.1032484098957980

Computation Completed

Properties will be evaluated at   0.000000,   0.000000,   0.000000 [a0]

Properties computed using the SCF density matrix

  Nuclear Dipole Moment: [e a0]
     X:     9.7451      Y:     0.3074      Z:     3.6626

  Electronic Dipole Moment: [e a0]
     X:    -9.9470      Y:     0.9299      Z:    -4.0980

  Dipole Moment: [e a0]
     X:    -0.2019      Y:     1.2373      Z:    -0.4354     Total:     1.3271

  Dipole Moment: [D]
     X:    -0.5132      Y:     3.1449      Z:    -1.1068     Total:     3.3732

*** tstop() called on ds3 at Tue Apr 28 02:01:06 2020
Module time:
	user time   =      38.49 seconds =       0.64 minutes
	system time =      16.47 seconds =       0.27 minutes
	total time  =         53 seconds =       0.88 minutes
Total time:
	user time   =      38.49 seconds =       0.64 minutes
	system time =      16.47 seconds =       0.27 minutes
	total time  =         53 seconds =       0.88 minutes
                                     G D M A

                                 by Anthony Stone

                           version 2.2.06, 22 June 2011

               Distributed Multipoles from Gaussian wavefunctions

Starting at 2:1:6 on 28 Apr 2020

Using SCF density matrix from file ./SSI/SSI-056HIE-287LEU-2-dimer.test.10204.fchk

                         Distributed Multipole Analysis

Standard DMA

Positions and radii in angstrom
Multipole moments in atomic units, ea_0^k for rank k

C          x = -0.214365  y = -1.963696  z = -1.872082 angstrom
           Maximum rank =  0   Radius =  0.650 angstrom
                   Q00  =  -0.188697

C          x = -1.393365  y =  0.452304  z =  0.598918 angstrom
           Maximum rank =  0   Radius =  0.650 angstrom
                   Q00  =   0.464729

C          x = -0.641365  y = -0.739696  z = -1.099082 angstrom
           Maximum rank =  0   Radius =  0.650 angstrom
                   Q00  =   0.217217

C          x = -0.725365  y =  0.563304  z = -1.499082 angstrom
           Maximum rank =  0   Radius =  0.650 angstrom
                   Q00  =  -0.014578

N          x = -1.051365  y = -0.767696  z =  0.220918 angstrom
           Maximum rank =  0   Radius =  0.650 angstrom
                   Q00  =  -0.773234

N          x = -1.198365  y =  1.282304  z = -0.427082 angstrom
           Maximum rank =  0   Radius =  0.650 angstrom
                   Q00  =  -0.460136

H          x = -1.761365  y =  0.661304  z =  1.597918 angstrom
           Maximum rank =  0   Radius =  0.325 angstrom
                   Q00  =   0.126969

H          x = -1.370365  y =  2.279304  z = -0.427082 angstrom
           Maximum rank =  0   Radius =  0.325 angstrom
                   Q00  =   0.219490

H          x = -0.493365  y =  1.031304  z = -2.447082 angstrom
           Maximum rank =  0   Radius =  0.325 angstrom
                   Q00  =   0.101899

H          x =  0.564635  y = -2.455696  z = -1.286082 angstrom
           Maximum rank =  0   Radius =  0.325 angstrom
                   Q00  =   0.111987

H          x =  0.215635  y = -1.615696  z = -2.811082 angstrom
           Maximum rank =  0   Radius =  0.325 angstrom
                   Q00  =   0.091459

H          x = -1.015135  y = -2.682896  z = -2.099052 angstrom
           Maximum rank =  0   Radius =  0.325 angstrom
                   Q00  =   0.109397

C          x =  2.210635  y = -0.198696  z =  1.687918 angstrom
           Maximum rank =  0   Radius =  0.650 angstrom
                   Q00  =  -0.239806

C          x =  2.516635  y =  1.258304  z =  2.095918 angstrom
           Maximum rank =  0   Radius =  0.650 angstrom
                   Q00  =  -0.214919

H          x =  1.421635  y = -0.212696  z =  0.937918 angstrom
           Maximum rank =  0   Radius =  0.325 angstrom
                   Q00  =   0.102073

H          x =  3.105635  y = -0.662696  z =  1.274918 angstrom
           Maximum rank =  0   Radius =  0.325 angstrom
                   Q00  =   0.071067

H          x =  1.883635  y = -0.767696  z =  2.559918 angstrom
           Maximum rank =  0   Radius =  0.325 angstrom
                   Q00  =   0.078136

H          x =  3.297635  y =  1.264304  z =  2.847918 angstrom
           Maximum rank =  0   Radius =  0.325 angstrom
                   Q00  =   0.075601

H          x =  1.589457  y =  1.681404  z =  2.509808 angstrom
           Maximum rank =  0   Radius =  0.325 angstrom
                   Q00  =   0.058801

H          x =  2.950099  y =  1.809204  z =  1.248208 angstrom
           Maximum rank =  0   Radius =  0.325 angstrom
                   Q00  =   0.062545

Total multipoles referred to origin at
           x =   0.000000,  y =    0.000000,  z =    0.000000 angstrom
                   Q00  =  -0.000000

Finished at 2:1:6 on 28 Apr 2020

  DMA results are available in the Python driver through the
	  variable('DMA DISTRIBUTED MULTIPOLES')
  and
	  variable('DMA TOTAL MULTIPOLES')
  commands.

    Psi4 stopped on: Tuesday, 28 April 2020 02:01AM
    Psi4 wall time for execution: 0:00:53.80

*** Psi4 exiting successfully. Buy a developer a beer!
