                               Psi4 1.3.2 release

  ==> Input File <==

--------------------------------------------------------------------------
import numpy as np
set {scf_type pk
basis cc-pvdz
d_convergence 10
gdma_switch   0
gdma_limit    0
gdma_origin   [ 0.0,  0.0,  0.0 ]
}
molecule test {
    units Angstrom
    1 1
    --
    1 1
    C               -2.545207825724724    -1.969650333799269    -1.360956300416339
    C               -1.115207825724724     1.132349666200731    -0.137956300416339
    C               -1.861207825724724    -0.648650333799269    -1.192956300416339
    C               -1.195207825724725     0.119349666200731    -2.092956300416339
    N               -1.809207825724725     0.009349666200731     0.021043699583661
    N               -0.760207825724725     1.238349666200731    -1.415956300416339
    H               -0.914207825724725     1.867349666200731     0.634043699583661
    H               -0.249207825724725     2.019349666200731    -1.814956300416339
    H               -1.048207825724724    -0.109650333799269    -3.141956300416339
    H               -2.748207825724724    -2.145650333799269    -2.417956300416339
    H               -3.508207825724724    -1.898650333799269    -0.851956300416339
    H               -1.975052825724725    -2.811610333799269    -0.941408300416339
    C                0.913792174275275    -1.224650333799269     2.483043699583661
    C                1.905792174275275     0.329349666200731     0.820043699583661
    N                1.444792174275275    -0.863650333799269     1.162043699583661
    N                2.378792174275275     0.534349666200731    -0.393956300416339
    N                1.917792174275275     1.311349666200731     1.699043699583661
    H                1.420792174275275    -1.584650333799269     0.449043699583661
    H                2.378792174275275    -0.211650333799269    -1.069956300416339
    H                2.784792174275275     1.423349666200731    -0.639956300416339
    H                1.593792174275275     1.142349666200731     2.636043699583661
    H                2.289792174275276     2.215349666200731     1.453043699583661
    H               -0.168207825724725    -1.076650333799269     2.477043699583661
    H                1.343792174275275    -0.599650333799269     3.262043699583661
    H                1.131063174275275    -2.278410333799269     2.711902699583661

}
e, wfn = energy('scf', return_wfn=True)
gdma(wfn)
dmavals = variable('DMA DISTRIBUTED MULTIPOLES')
charges = np.array(dmavals)
print(charges)
np.save('SSI-048HIE-091ARG-1-dimer.npy', np.array(charges))--------------------------------------------------------------------------

*** tstart() called on ds3
*** at Tue Apr 28 09:53:08 2020

   => Loading Basis Set <=

    Name: CC-PVDZ
    Role: ORBITAL
    Keyword: BASIS
    atoms 1-4, 13-14  entry C          line   138 file /theoryfs2/ds/metcalf/miniconda2/envs/tf2gpu/share/psi4/basis/cc-pvdz.gbs
    atoms 5-6, 15-17  entry N          line   168 file /theoryfs2/ds/metcalf/miniconda2/envs/tf2gpu/share/psi4/basis/cc-pvdz.gbs
    atoms 7-12, 18-25 entry H          line    22 file /theoryfs2/ds/metcalf/miniconda2/envs/tf2gpu/share/psi4/basis/cc-pvdz.gbs

         ---------------------------------------------------------
                                   SCF
               by Justin Turney, Rob Parrish, Andy Simmonett
                          and Daniel G. A. Smith
                              RHF Reference
                        1 Threads,    500 MiB Core
         ---------------------------------------------------------

  ==> Geometry <==

    Molecular point group: c1
    Full point group: C1

    Geometry (in Angstrom), charge = 1, multiplicity = 1:

       Center              X                  Y                   Z               Mass
    ------------   -----------------  -----------------  -----------------  -----------------
         C           -2.545207825725    -1.969650333799    -1.360956300416    12.000000000000
         C           -1.115207825725     1.132349666201    -0.137956300416    12.000000000000
         C           -1.861207825725    -0.648650333799    -1.192956300416    12.000000000000
         C           -1.195207825725     0.119349666201    -2.092956300416    12.000000000000
         N           -1.809207825725     0.009349666201     0.021043699584    14.003074004430
         N           -0.760207825725     1.238349666201    -1.415956300416    14.003074004430
         H           -0.914207825725     1.867349666201     0.634043699584     1.007825032230
         H           -0.249207825725     2.019349666201    -1.814956300416     1.007825032230
         H           -1.048207825725    -0.109650333799    -3.141956300416     1.007825032230
         H           -2.748207825725    -2.145650333799    -2.417956300416     1.007825032230
         H           -3.508207825725    -1.898650333799    -0.851956300416     1.007825032230
         H           -1.975052825725    -2.811610333799    -0.941408300416     1.007825032230
         C            0.913792174275    -1.224650333799     2.483043699584    12.000000000000
         C            1.905792174275     0.329349666201     0.820043699584    12.000000000000
         N            1.444792174275    -0.863650333799     1.162043699584    14.003074004430
         N            2.378792174275     0.534349666201    -0.393956300416    14.003074004430
         N            1.917792174275     1.311349666201     1.699043699584    14.003074004430
         H            1.420792174275    -1.584650333799     0.449043699584     1.007825032230
         H            2.378792174275    -0.211650333799    -1.069956300416     1.007825032230
         H            2.784792174275     1.423349666201    -0.639956300416     1.007825032230
         H            1.593792174275     1.142349666201     2.636043699584     1.007825032230
         H            2.289792174275     2.215349666201     1.453043699584     1.007825032230
         H           -0.168207825725    -1.076650333799     2.477043699584     1.007825032230
         H            1.343792174275    -0.599650333799     3.262043699584     1.007825032230
         H            1.131063174275    -2.278410333799     2.711902699584     1.007825032230

  Running in c1 symmetry.

  Rotational constants: A =      0.05295  B =      0.02225  C =      0.01909 [cm^-1]
  Rotational constants: A =   1587.44116  B =    667.02226  C =    572.36098 [MHz]
  Nuclear repulsion =  638.044357611912119

  Charge       = 1
  Multiplicity = 1
  Electrons    = 84
  Nalpha       = 42
  Nbeta        = 42

  ==> Algorithm <==

  SCF Algorithm Type is PK.
  DIIS enabled.
  MOM disabled.
  Fractional occupation disabled.
  Guess Type is SAD.
  Energy threshold   = 1.00e-06
  Density threshold  = 1.00e-10
  Integral threshold = 0.00e+00

  ==> Primary Basis <==

  Basis Set: CC-PVDZ
    Blend: CC-PVDZ
    Number of shells: 108
    Number of basis function: 224
    Number of Cartesian functions: 235
    Spherical Harmonics?: true
    Max angular momentum: 2

  ==> Pre-Iterations <==

   -------------------------------------------------------
    Irrep   Nso     Nmo     Nalpha   Nbeta   Ndocc  Nsocc
   -------------------------------------------------------
     A        224     224       0       0       0       0
   -------------------------------------------------------
    Total     224     224      42      42      42       0
   -------------------------------------------------------

  ==> Integral Setup <==

  Using integral reordering PK algorithm.
  Sizing the integral batches needed.
  Building batch lookup table.
   Calculation information:
      Number of atoms:                  25
      Number of AO shells:             108
      Number of primitives:            312
      Number of atomic orbitals:       235
      Number of basis functions:       224

      Integral cutoff                 1.00e-12
      Number of threads:                 1

	Batch   1 pq = [       0,    9405] index = [             0,44231715] size =     44231715
	Batch   2 pq = [    9405,   13301] index = [      44231715,88464951] size =     44233236
	Batch   3 pq = [   13301,   16290] index = [      88464951,132690195] size =     44225244
	Batch   4 pq = [   16290,   18810] index = [     132690195,176917455] size =     44227260
	Batch   5 pq = [   18810,   21030] index = [     176917455,221140965] size =     44223510
	Batch   6 pq = [   21030,   23037] index = [     221140965,265363203] size =     44222238
	Batch   7 pq = [   23037,   24883] index = [     265363203,309594286] size =     44231083
	Batch   8 pq = [   24883,   25200] index = [     309594286,317532600] size =      7938314
  Task number: 29
  Buffer size: 11059200
  Buffer per thread: 2
  We computed 17452354 shell quartets total.
  Whereas there are 17325441 unique shell quartets.
     0.73 percent of shell quartets recomputed by reordering.

  ==> DiskJK: Disk-Based J/K Matrices <==

    J tasked:                  Yes
    K tasked:                  Yes
    wK tasked:                  No
    Memory [MiB]:              375
    Schwarz Cutoff:          1E-12

    OpenMP threads:              1

  Minimum eigenvalue in the overlap matrix is 1.1833352203E-03.
  Using Symmetric Orthogonalization.

  SCF Guess: Superposition of Atomic Densities via on-the-fly atomic UHF.

  ==> Iterations <==

                        Total Energy        Delta E     RMS |[F,P]|

   @RHF iter SAD:  -506.97949260357098   -5.06979e+02   0.00000e+00
   @RHF iter   1:  -507.19935476599136   -2.19862e-01   2.91864e-03 DIIS
   @RHF iter   2:  -507.40968742199743   -2.10333e-01   1.39237e-03 DIIS
   @RHF iter   3:  -507.45321246752400   -4.35250e-02   4.06109e-04 DIIS
   @RHF iter   4:  -507.45799885718571   -4.78639e-03   1.52503e-04 DIIS
   @RHF iter   5:  -507.45863073568614   -6.31879e-04   2.53418e-05 DIIS
   @RHF iter   6:  -507.45866296723250   -3.22315e-05   1.10448e-05 DIIS
   @RHF iter   7:  -507.45866825582993   -5.28860e-06   3.67603e-06 DIIS
   @RHF iter   8:  -507.45866921423260   -9.58403e-07   1.35730e-06 DIIS
   @RHF iter   9:  -507.45866937706603   -1.62833e-07   6.08111e-07 DIIS
   @RHF iter  10:  -507.45866940944904   -3.23830e-08   2.15071e-07 DIIS
   @RHF iter  11:  -507.45866941431478   -4.86574e-09   7.50925e-08 DIIS
   @RHF iter  12:  -507.45866941469728   -3.82499e-10   2.71794e-08 DIIS
   @RHF iter  13:  -507.45866941474020   -4.29168e-11   8.15224e-09 DIIS
   @RHF iter  14:  -507.45866941474725   -7.04858e-12   3.06540e-09 DIIS
   @RHF iter  15:  -507.45866941474924   -1.98952e-12   1.10506e-09 DIIS
   @RHF iter  16:  -507.45866941475117   -1.93268e-12   3.76848e-10 DIIS
   @RHF iter  17:  -507.45866941474907    2.10321e-12   1.35130e-10 DIIS
   @RHF iter  18:  -507.45866941474378    5.28644e-12   4.44775e-11 DIIS
  Energy and wave function converged.

  ==> Post-Iterations <==

    Orbital Energies [Eh]
    ---------------------

    Doubly Occupied:

       1A    -15.785516     2A    -15.784402     3A    -15.777590
       4A    -15.735535     5A    -15.644358     6A    -11.584758
       7A    -11.430413     8A    -11.407706     9A    -11.360942
      10A    -11.351160    11A    -11.320302    12A     -1.541447
      13A     -1.454827    14A     -1.394811    15A     -1.390071
      16A     -1.266575    17A     -1.139837    18A     -1.133307
      19A     -1.044784    20A     -1.033478    21A     -0.976423
      22A     -0.937760    23A     -0.931162    24A     -0.872832
      25A     -0.857299    26A     -0.854186    27A     -0.851792
      28A     -0.817820    29A     -0.784110    30A     -0.734862
      31A     -0.721455    32A     -0.717134    33A     -0.714443
      34A     -0.705100    35A     -0.654874    36A     -0.641673
      37A     -0.621134    38A     -0.615811    39A     -0.575185
      40A     -0.524648    41A     -0.490727    42A     -0.422154

    Virtual:

      43A     -0.012120    44A      0.026362    45A      0.030249
      46A      0.034082    47A      0.061147    48A      0.074186
      49A      0.076719    50A      0.091106    51A      0.108232
      52A      0.112402    53A      0.120127    54A      0.120719
      55A      0.144153    56A      0.150621    57A      0.168062
      58A      0.190965    59A      0.198833    60A      0.212392
      61A      0.264235    62A      0.273413    63A      0.290269
      64A      0.310977    65A      0.327833    66A      0.348204
      67A      0.364385    68A      0.388260    69A      0.441880
      70A      0.456805    71A      0.494315    72A      0.508891
      73A      0.515197    74A      0.527004    75A      0.535148
      76A      0.540967    77A      0.546565    78A      0.557501
      79A      0.560093    80A      0.577939    81A      0.593425
      82A      0.641299    83A      0.659239    84A      0.663415
      85A      0.675862    86A      0.688919    87A      0.701161
      88A      0.703805    89A      0.725241    90A      0.729523
      91A      0.745536    92A      0.750938    93A      0.763966
      94A      0.778686    95A      0.781247    96A      0.786065
      97A      0.798554    98A      0.812195    99A      0.823196
     100A      0.840429   101A      0.846608   102A      0.855403
     103A      0.877315   104A      0.901406   105A      0.912045
     106A      0.920253   107A      0.922076   108A      0.959196
     109A      0.983072   110A      0.988440   111A      1.009618
     112A      1.023570   113A      1.032981   114A      1.054465
     115A      1.066372   116A      1.101044   117A      1.126354
     118A      1.140569   119A      1.153955   120A      1.165246
     121A      1.176005   122A      1.197019   123A      1.207546
     124A      1.215131   125A      1.223610   126A      1.233024
     127A      1.244786   128A      1.290405   129A      1.320206
     130A      1.346288   131A      1.376963   132A      1.388251
     133A      1.424388   134A      1.454753   135A      1.493821
     136A      1.495898   137A      1.513876   138A      1.531888
     139A      1.559414   140A      1.579459   141A      1.592175
     142A      1.599028   143A      1.624514   144A      1.636882
     145A      1.670840   146A      1.689959   147A      1.699321
     148A      1.700569   149A      1.711503   150A      1.725448
     151A      1.754182   152A      1.758701   153A      1.768006
     154A      1.772640   155A      1.791591   156A      1.807614
     157A      1.813241   158A      1.830666   159A      1.839410
     160A      1.847824   161A      1.867357   162A      1.879921
     163A      1.895736   164A      1.902686   165A      1.904631
     166A      1.938569   167A      1.988442   168A      1.998336
     169A      2.008262   170A      2.026109   171A      2.038323
     172A      2.053965   173A      2.091466   174A      2.112910
     175A      2.123076   176A      2.146031   177A      2.162538
     178A      2.176689   179A      2.198795   180A      2.240219
     181A      2.250559   182A      2.277092   183A      2.281863
     184A      2.307776   185A      2.327573   186A      2.332200
     187A      2.346024   188A      2.369184   189A      2.395613
     190A      2.408816   191A      2.437079   192A      2.442511
     193A      2.474714   194A      2.495088   195A      2.547953
     196A      2.586223   197A      2.598880   198A      2.614106
     199A      2.624023   200A      2.635277   201A      2.657343
     202A      2.678184   203A      2.681170   204A      2.727606
     205A      2.736540   206A      2.749970   207A      2.752681
     208A      2.785634   209A      2.791239   210A      2.818208
     211A      2.826696   212A      2.845638   213A      2.883055
     214A      2.912290   215A      2.955319   216A      3.048167
     217A      3.068465   218A      3.115215   219A      3.130514
     220A      3.149133   221A      3.361160   222A      3.581172
     223A      3.660290   224A      3.701740

    Final Occupation by Irrep:
              A
    DOCC [    42 ]

  @RHF Final Energy:  -507.45866941474378

   => Energetics <=

    Nuclear Repulsion Energy =            638.0443576119121190
    One-Electron Energy =               -1941.7972476480222213
    Two-Electron Energy =                 796.2942206213663212
    Total Energy =                       -507.4586694147437811

Computation Completed

Properties will be evaluated at   0.000000,   0.000000,   0.000000 [a0]

Properties computed using the SCF density matrix

  Nuclear Dipole Moment: [e a0]
     X:     2.1765      Y:    -3.8021      Z:     2.5703

  Electronic Dipole Moment: [e a0]
     X:     1.5719      Y:     4.8327      Z:    -1.8578

  Dipole Moment: [e a0]
     X:     3.7485      Y:     1.0306      Z:     0.7125     Total:     3.9523

  Dipole Moment: [D]
     X:     9.5276      Y:     2.6194      Z:     1.8109     Total:    10.0457

*** tstop() called on ds3 at Tue Apr 28 09:56:09 2020
Module time:
	user time   =     135.09 seconds =       2.25 minutes
	system time =      51.70 seconds =       0.86 minutes
	total time  =        181 seconds =       3.02 minutes
Total time:
	user time   =     135.09 seconds =       2.25 minutes
	system time =      51.70 seconds =       0.86 minutes
	total time  =        181 seconds =       3.02 minutes
                                     G D M A

                                 by Anthony Stone

                           version 2.2.06, 22 June 2011

               Distributed Multipoles from Gaussian wavefunctions

Starting at 9:56:9 on 28 Apr 2020

Using SCF density matrix from file ./SSI/SSI-048HIE-091ARG-1-dimer.test.24625.fchk

                         Distributed Multipole Analysis

Standard DMA

Positions and radii in angstrom
Multipole moments in atomic units, ea_0^k for rank k

C          x = -2.545208  y = -1.969650  z = -1.360956 angstrom
           Maximum rank =  0   Radius =  0.650 angstrom
                   Q00  =  -0.187791

C          x = -1.115208  y =  1.132350  z = -0.137956 angstrom
           Maximum rank =  0   Radius =  0.650 angstrom
                   Q00  =   0.423133

C          x = -1.861208  y = -0.648650  z = -1.192956 angstrom
           Maximum rank =  0   Radius =  0.650 angstrom
                   Q00  =   0.205246

C          x = -1.195208  y =  0.119350  z = -2.092956 angstrom
           Maximum rank =  0   Radius =  0.650 angstrom
                   Q00  =  -0.015276

N          x = -1.809208  y =  0.009350  z =  0.021044 angstrom
           Maximum rank =  0   Radius =  0.650 angstrom
                   Q00  =  -0.758443

N          x = -0.760208  y =  1.238350  z = -1.415956 angstrom
           Maximum rank =  0   Radius =  0.650 angstrom
                   Q00  =  -0.461915

H          x = -0.914208  y =  1.867350  z =  0.634044 angstrom
           Maximum rank =  0   Radius =  0.325 angstrom
                   Q00  =   0.118415

H          x = -0.249208  y =  2.019350  z = -1.814956 angstrom
           Maximum rank =  0   Radius =  0.325 angstrom
                   Q00  =   0.222071

H          x = -1.048208  y = -0.109650  z = -3.141956 angstrom
           Maximum rank =  0   Radius =  0.325 angstrom
                   Q00  =   0.117614

H          x = -2.748208  y = -2.145650  z = -2.417956 angstrom
           Maximum rank =  0   Radius =  0.325 angstrom
                   Q00  =   0.109041

H          x = -3.508208  y = -1.898650  z = -0.851956 angstrom
           Maximum rank =  0   Radius =  0.325 angstrom
                   Q00  =   0.132339

H          x = -1.975053  y = -2.811610  z = -0.941408 angstrom
           Maximum rank =  0   Radius =  0.325 angstrom
                   Q00  =   0.098361

C          x =  0.913792  y = -1.224650  z =  2.483044 angstrom
           Maximum rank =  0   Radius =  0.650 angstrom
                   Q00  =  -0.114741

C          x =  1.905792  y =  0.329350  z =  0.820044 angstrom
           Maximum rank =  0   Radius =  0.650 angstrom
                   Q00  =   1.065154

N          x =  1.444792  y = -0.863650  z =  1.162044 angstrom
           Maximum rank =  0   Radius =  0.650 angstrom
                   Q00  =  -0.480584

N          x =  2.378792  y =  0.534350  z = -0.393956 angstrom
           Maximum rank =  0   Radius =  0.650 angstrom
                   Q00  =  -0.585386

N          x =  1.917792  y =  1.311350  z =  1.699044 angstrom
           Maximum rank =  0   Radius =  0.650 angstrom
                   Q00  =  -0.580177

H          x =  1.420792  y = -1.584650  z =  0.449044 angstrom
           Maximum rank =  0   Radius =  0.325 angstrom
                   Q00  =   0.238363

H          x =  2.378792  y = -0.211650  z = -1.069956 angstrom
           Maximum rank =  0   Radius =  0.325 angstrom
                   Q00  =   0.267247

H          x =  2.784792  y =  1.423350  z = -0.639956 angstrom
           Maximum rank =  0   Radius =  0.325 angstrom
                   Q00  =   0.258298

H          x =  1.593792  y =  1.142350  z =  2.636044 angstrom
           Maximum rank =  0   Radius =  0.325 angstrom
                   Q00  =   0.270786

H          x =  2.289792  y =  2.215350  z =  1.453044 angstrom
           Maximum rank =  0   Radius =  0.325 angstrom
                   Q00  =   0.262596

H          x = -0.168208  y = -1.076650  z =  2.477044 angstrom
           Maximum rank =  0   Radius =  0.325 angstrom
                   Q00  =   0.136886

H          x =  1.343792  y = -0.599650  z =  3.262044 angstrom
           Maximum rank =  0   Radius =  0.325 angstrom
                   Q00  =   0.103205

H          x =  1.131063  y = -2.278410  z =  2.711903 angstrom
           Maximum rank =  0   Radius =  0.325 angstrom
                   Q00  =   0.155557

Total multipoles referred to origin at
           x =   0.000000,  y =    0.000000,  z =    0.000000 angstrom
                   Q00  =   1.000000

Finished at 9:56:9 on 28 Apr 2020

  DMA results are available in the Python driver through the
	  variable('DMA DISTRIBUTED MULTIPOLES')
  and
	  variable('DMA TOTAL MULTIPOLES')
  commands.

    Psi4 stopped on: Tuesday, 28 April 2020 09:56AM
    Psi4 wall time for execution: 0:03:01.29

*** Psi4 exiting successfully. Buy a developer a beer!
