                               Psi4 1.3.2 release

  ==> Input File <==

--------------------------------------------------------------------------
import numpy as np
set {scf_type pk
basis cc-pvdz
d_convergence 10
gdma_switch   0
gdma_limit    0
gdma_origin   [ 0.0,  0.0,  0.0 ]
}
molecule test {
    units Angstrom
    0 1
    --
    0 1
    C                0.362878546824422    -0.225921168362659     0.600870158241939
    C                0.518878546824422     0.457078831637341     1.898870158241938
    C                2.689878546824422     0.323078831637341     0.904870158241939
    C                0.844878546824422    -0.763921168362659    -2.219129841758061
    C                1.941878546824422    -0.146921168362659    -1.333129841758061
    O                3.036878546824422     0.210078831637341    -1.801129841758061
    N                1.677878546824422    -0.091921168362659    -0.029129841758061
    H                0.118878546824422    -1.278921168362659     0.751870158241938
    H               -0.396121453175578     0.285078831637341     0.011870158241939
    H               -0.145121453175578     0.039078831637341     2.655870158241939
    H                0.325878546824422     1.524078831637341     1.774870158241939
    H                2.958878546824422     1.357078831637341     0.691870158241939
    H               -0.148121453175578    -0.466921168362659    -1.883129841758062
    H                1.576998546824422     0.303813831637341     2.157510158241939
    H                2.162998546824422     0.270032831637341     1.869020158241939
    H                3.572308546824422    -0.333251168362659     0.881480158241939
    H                0.996038546824422    -0.405191168362659    -3.247949841758061
    H                0.961318546824422    -1.853931168362659    -2.127939841758061
    C               -3.204121453175578    -0.089921168362659     1.030870158241939
    C               -4.118121453175577     1.175078831637341     1.109870158241939
    C               -3.555121453175578    -0.911921168362659    -0.248129841758061
    H               -2.168121453175578     0.210078831637341     1.043870158241939
    H               -3.398121453175578    -0.712921168362659     1.904870158241939
    H               -4.059121453175578     1.562078831637341     2.128870158241939
    H               -5.155121453175578     0.876078831637341     0.947870158241938
    H               -4.641121453175579    -1.027921168362659    -0.278129841758061
    H               -3.269121453175578    -0.303921168362659    -1.108129841758061
    H               -3.868201453175578     1.998540831637341     0.424700158241939
    H               -3.128881453175578    -1.916531168362659    -0.386239841758061

}
e, wfn = energy('scf', return_wfn=True)
gdma(wfn)
dmavals = variable('DMA DISTRIBUTED MULTIPOLES')
charges = np.array(dmavals)
print(charges)
np.save('SSI-085PRO-090LYS-1-dimer.npy', np.array(charges))--------------------------------------------------------------------------

*** tstart() called on ds3
*** at Mon Apr 27 07:51:29 2020

   => Loading Basis Set <=

    Name: CC-PVDZ
    Role: ORBITAL
    Keyword: BASIS
    atoms 1-5, 19-21  entry C          line   138 file /theoryfs2/ds/metcalf/miniconda2/envs/tf2gpu/share/psi4/basis/cc-pvdz.gbs
    atoms 6           entry O          line   198 file /theoryfs2/ds/metcalf/miniconda2/envs/tf2gpu/share/psi4/basis/cc-pvdz.gbs
    atoms 7           entry N          line   168 file /theoryfs2/ds/metcalf/miniconda2/envs/tf2gpu/share/psi4/basis/cc-pvdz.gbs
    atoms 8-18, 22-29 entry H          line    22 file /theoryfs2/ds/metcalf/miniconda2/envs/tf2gpu/share/psi4/basis/cc-pvdz.gbs

         ---------------------------------------------------------
                                   SCF
               by Justin Turney, Rob Parrish, Andy Simmonett
                          and Daniel G. A. Smith
                              RHF Reference
                        1 Threads,    500 MiB Core
         ---------------------------------------------------------

  ==> Geometry <==

    Molecular point group: c1
    Full point group: C1

    Geometry (in Angstrom), charge = 0, multiplicity = 1:

       Center              X                  Y                   Z               Mass
    ------------   -----------------  -----------------  -----------------  -----------------
         C            0.362878546824    -0.225921168363     0.600870158242    12.000000000000
         C            0.518878546824     0.457078831637     1.898870158242    12.000000000000
         C            2.689878546824     0.323078831637     0.904870158242    12.000000000000
         C            0.844878546824    -0.763921168363    -2.219129841758    12.000000000000
         C            1.941878546824    -0.146921168363    -1.333129841758    12.000000000000
         O            3.036878546824     0.210078831637    -1.801129841758    15.994914619570
         N            1.677878546824    -0.091921168363    -0.029129841758    14.003074004430
         H            0.118878546824    -1.278921168363     0.751870158242     1.007825032230
         H           -0.396121453176     0.285078831637     0.011870158242     1.007825032230
         H           -0.145121453176     0.039078831637     2.655870158242     1.007825032230
         H            0.325878546824     1.524078831637     1.774870158242     1.007825032230
         H            2.958878546824     1.357078831637     0.691870158242     1.007825032230
         H           -0.148121453176    -0.466921168363    -1.883129841758     1.007825032230
         H            1.576998546824     0.303813831637     2.157510158242     1.007825032230
         H            2.162998546824     0.270032831637     1.869020158242     1.007825032230
         H            3.572308546824    -0.333251168363     0.881480158242     1.007825032230
         H            0.996038546824    -0.405191168363    -3.247949841758     1.007825032230
         H            0.961318546824    -1.853931168363    -2.127939841758     1.007825032230
         C           -3.204121453176    -0.089921168363     1.030870158242    12.000000000000
         C           -4.118121453176     1.175078831637     1.109870158242    12.000000000000
         C           -3.555121453176    -0.911921168363    -0.248129841758    12.000000000000
         H           -2.168121453176     0.210078831637     1.043870158242     1.007825032230
         H           -3.398121453176    -0.712921168363     1.904870158242     1.007825032230
         H           -4.059121453176     1.562078831637     2.128870158242     1.007825032230
         H           -5.155121453176     0.876078831637     0.947870158242     1.007825032230
         H           -4.641121453176    -1.027921168363    -0.278129841758     1.007825032230
         H           -3.269121453176    -0.303921168363    -1.108129841758     1.007825032230
         H           -3.868201453176     1.998540831637     0.424700158242     1.007825032230
         H           -3.128881453176    -1.916531168363    -0.386239841758     1.007825032230

  Running in c1 symmetry.

  Rotational constants: A =      0.06012  B =      0.01602  C =      0.01352 [cm^-1]
  Rotational constants: A =   1802.30709  B =    480.25626  C =    405.22093 [MHz]
  Nuclear repulsion =  555.525785911661160

  Charge       = 0
  Multiplicity = 1
  Electrons    = 82
  Nalpha       = 41
  Nbeta        = 41

  ==> Algorithm <==

  SCF Algorithm Type is PK.
  DIIS enabled.
  MOM disabled.
  Fractional occupation disabled.
  Guess Type is SAD.
  Energy threshold   = 1.00e-06
  Density threshold  = 1.00e-10
  Integral threshold = 0.00e+00

  ==> Primary Basis <==

  Basis Set: CC-PVDZ
    Blend: CC-PVDZ
    Number of shells: 117
    Number of basis function: 235
    Number of Cartesian functions: 245
    Spherical Harmonics?: true
    Max angular momentum: 2

  ==> Pre-Iterations <==

   -------------------------------------------------------
    Irrep   Nso     Nmo     Nalpha   Nbeta   Ndocc  Nsocc
   -------------------------------------------------------
     A        235     235       0       0       0       0
   -------------------------------------------------------
    Total     235     235      41      41      41       0
   -------------------------------------------------------

  ==> Integral Setup <==

  Using integral reordering PK algorithm.
  Sizing the integral batches needed.
  Building batch lookup table.
   Calculation information:
      Number of atoms:                  29
      Number of AO shells:             117
      Number of primitives:            315
      Number of atomic orbitals:       245
      Number of basis functions:       235

      Integral cutoff                 1.00e-12
      Number of threads:                 1

	Batch   1 pq = [       0,    9405] index = [             0,44231715] size =     44231715
	Batch   2 pq = [    9405,   13301] index = [      44231715,88464951] size =     44233236
	Batch   3 pq = [   13301,   16290] index = [      88464951,132690195] size =     44225244
	Batch   4 pq = [   16290,   18810] index = [     132690195,176917455] size =     44227260
	Batch   5 pq = [   18810,   21030] index = [     176917455,221140965] size =     44223510
	Batch   6 pq = [   21030,   23037] index = [     221140965,265363203] size =     44222238
	Batch   7 pq = [   23037,   24883] index = [     265363203,309594286] size =     44231083
	Batch   8 pq = [   24883,   26601] index = [     309594286,353819901] size =     44225615
	Batch   9 pq = [   26601,   27730] index = [     353819901,384490315] size =     30670414
  Task number: 35
  Buffer size: 11059200
  Buffer per thread: 2
  We computed 21513818 shell quartets total.
  Whereas there are 23829156 unique shell quartets.

  ==> DiskJK: Disk-Based J/K Matrices <==

    J tasked:                  Yes
    K tasked:                  Yes
    wK tasked:                  No
    Memory [MiB]:              375
    Schwarz Cutoff:          1E-12

    OpenMP threads:              1

  Minimum eigenvalue in the overlap matrix is 1.3662669167E-03.
  Using Symmetric Orthogonalization.

  SCF Guess: Superposition of Atomic Densities via on-the-fly atomic UHF.

  ==> Iterations <==

                        Total Energy        Delta E     RMS |[F,P]|

   @RHF iter SAD:  -442.45898473721127   -4.42459e+02   0.00000e+00
   @RHF iter   1:  -442.81941279922370   -3.60428e-01   3.10226e-03 DIIS
   @RHF iter   2:  -443.07062735446380   -2.51215e-01   1.69695e-03 DIIS
   @RHF iter   3:  -443.13424411294596   -6.36168e-02   4.17033e-04 DIIS
   @RHF iter   4:  -443.13997115600614   -5.72704e-03   1.63994e-04 DIIS
   @RHF iter   5:  -443.14088556893262   -9.14413e-04   2.82221e-05 DIIS
   @RHF iter   6:  -443.14093960780656   -5.40389e-05   1.39988e-05 DIIS
   @RHF iter   7:  -443.14095043368837   -1.08259e-05   5.05194e-06 DIIS
   @RHF iter   8:  -443.14095262305193   -2.18936e-06   2.08489e-06 DIIS
   @RHF iter   9:  -443.14095297857182   -3.55520e-07   5.94812e-07 DIIS
   @RHF iter  10:  -443.14095300304319   -2.44714e-08   1.70030e-07 DIIS
   @RHF iter  11:  -443.14095300513594   -2.09275e-09   4.98399e-08 DIIS
   @RHF iter  12:  -443.14095300528260   -1.46656e-10   1.54972e-08 DIIS
   @RHF iter  13:  -443.14095300530153   -1.89289e-11   5.01109e-09 DIIS
   @RHF iter  14:  -443.14095300529885    2.67164e-12   1.41451e-09 DIIS
   @RHF iter  15:  -443.14095300529993   -1.08002e-12   4.38546e-10 DIIS
   @RHF iter  16:  -443.14095300529635    3.58114e-12   1.92396e-10 DIIS
   @RHF iter  17:  -443.14095300530028   -3.92220e-12   8.74957e-11 DIIS
  Energy and wave function converged.

  ==> Post-Iterations <==

    Orbital Energies [Eh]
    ---------------------

    Doubly Occupied:

       1A    -20.497056     2A    -15.579879     3A    -11.339441
       4A    -11.276234     5A    -11.241609     6A    -11.237946
       7A    -11.235848     8A    -11.228286     9A    -11.228180
      10A    -11.220846    11A     -1.356954    12A     -1.260478
      13A     -1.078136    14A     -1.054203    15A     -1.012333
      16A     -0.968950    17A     -0.928928    18A     -0.855246
      19A     -0.815377    20A     -0.761280    21A     -0.727405
      22A     -0.681764    23A     -0.650204    24A     -0.633413
      25A     -0.616770    26A     -0.601917    27A     -0.595863
      28A     -0.580237    29A     -0.548753    30A     -0.547196
      31A     -0.541985    32A     -0.537185    33A     -0.534478
      34A     -0.523036    35A     -0.488940    36A     -0.481816
      37A     -0.479454    38A     -0.473073    39A     -0.399867
      40A     -0.393250    41A     -0.360327

    Virtual:

      42A      0.150081    43A      0.180270    44A      0.185955
      45A      0.189931    46A      0.207569    47A      0.223596
      48A      0.228954    49A      0.240157    50A      0.245862
      51A      0.252251    52A      0.254510    53A      0.265849
      54A      0.270556    55A      0.278038    56A      0.285973
      57A      0.299580    58A      0.301332    59A      0.307763
      60A      0.330694    61A      0.347781    62A      0.356898
      63A      0.378206    64A      0.401957    65A      0.419356
      66A      0.434024    67A      0.466770    68A      0.495781
      69A      0.518924    70A      0.535004    71A      0.563260
      72A      0.580954    73A      0.591532    74A      0.603431
      75A      0.621114    76A      0.624793    77A      0.636851
      78A      0.662932    79A      0.679122    80A      0.699048
      81A      0.711559    82A      0.741210    83A      0.744394
      84A      0.756900    85A      0.787589    86A      0.807962
      87A      0.812140    88A      0.823878    89A      0.842147
      90A      0.846325    91A      0.858318    92A      0.864560
      93A      0.870228    94A      0.876785    95A      0.880562
      96A      0.886357    97A      0.894615    98A      0.898838
      99A      0.902209   100A      0.911149   101A      0.912824
     102A      0.920836   103A      0.932219   104A      0.935226
     105A      0.940046   106A      0.946716   107A      0.958461
     108A      0.987355   109A      1.004789   110A      1.037931
     111A      1.046825   112A      1.071998   113A      1.080437
     114A      1.091527   115A      1.114933   116A      1.125635
     117A      1.137703   118A      1.174278   119A      1.196666
     120A      1.245614   121A      1.252498   122A      1.294413
     123A      1.336498   124A      1.355803   125A      1.381077
     126A      1.391106   127A      1.430590   128A      1.440082
     129A      1.449953   130A      1.459863   131A      1.485410
     132A      1.497914   133A      1.531285   134A      1.540821
     135A      1.561862   136A      1.591093   137A      1.608372
     138A      1.619255   139A      1.631290   140A      1.662976
     141A      1.665466   142A      1.689138   143A      1.697066
     144A      1.704561   145A      1.715849   146A      1.757303
     147A      1.761638   148A      1.801920   149A      1.821096
     150A      1.833223   151A      1.845477   152A      1.855677
     153A      1.877749   154A      1.885452   155A      1.889307
     156A      1.901438   157A      1.912580   158A      1.914973
     159A      1.923907   160A      1.938088   161A      1.939864
     162A      1.943060   163A      1.957977   164A      1.966779
     165A      1.973804   166A      1.980947   167A      1.990662
     168A      2.003676   169A      2.008455   170A      2.035397
     171A      2.037451   172A      2.053442   173A      2.081718
     174A      2.089382   175A      2.091640   176A      2.104947
     177A      2.125122   178A      2.140386   179A      2.155879
     180A      2.163195   181A      2.184287   182A      2.209093
     183A      2.254004   184A      2.267403   185A      2.275434
     186A      2.287817   187A      2.304125   188A      2.316703
     189A      2.320216   190A      2.331019   191A      2.372070
     192A      2.373788   193A      2.433684   194A      2.448016
     195A      2.480172   196A      2.487377   197A      2.512322
     198A      2.519782   199A      2.542321   200A      2.546608
     201A      2.549871   202A      2.601192   203A      2.603154
     204A      2.625607   205A      2.647178   206A      2.710516
     207A      2.746362   208A      2.751610   209A      2.766386
     210A      2.768933   211A      2.777655   212A      2.796536
     213A      2.802831   214A      2.806005   215A      2.822822
     216A      2.832631   217A      2.840282   218A      2.864878
     219A      2.910870   220A      2.940204   221A      2.955358
     222A      2.965318   223A      3.005998   224A      3.024877
     225A      3.089982   226A      3.110667   227A      3.123843
     228A      3.172382   229A      3.240486   230A      3.338304
     231A      3.368842   232A      3.515992   233A      3.817528
     234A      3.894226   235A      5.137170

    Final Occupation by Irrep:
              A
    DOCC [    41 ]

  @RHF Final Energy:  -443.14095300530028

   => Energetics <=

    Nuclear Repulsion Energy =            555.5257859116611598
    One-Electron Energy =               -1702.1851929657145774
    Two-Electron Energy =                 703.5184540487531422
    Total Energy =                       -443.1409530053002754

Computation Completed

Properties will be evaluated at   0.000000,   0.000000,   0.000000 [a0]

Properties computed using the SCF density matrix

  Nuclear Dipole Moment: [e a0]
     X:   -16.5871      Y:     0.1198      Z:     7.6909

  Electronic Dipole Moment: [e a0]
     X:    15.1714      Y:    -0.4133      Z:    -6.5058

  Dipole Moment: [e a0]
     X:    -1.4157      Y:    -0.2935      Z:     1.1851     Total:     1.8694

  Dipole Moment: [D]
     X:    -3.5983      Y:    -0.7460      Z:     3.0122     Total:     4.7516

*** tstop() called on ds3 at Mon Apr 27 07:58:16 2020
Module time:
	user time   =     134.38 seconds =       2.24 minutes
	system time =      52.18 seconds =       0.87 minutes
	total time  =        407 seconds =       6.78 minutes
Total time:
	user time   =     134.38 seconds =       2.24 minutes
	system time =      52.18 seconds =       0.87 minutes
	total time  =        407 seconds =       6.78 minutes
                                     G D M A

                                 by Anthony Stone

                           version 2.2.06, 22 June 2011

               Distributed Multipoles from Gaussian wavefunctions

Starting at 7:58:16 on 27 Apr 2020

Using SCF density matrix from file ./SSI/SSI-085PRO-090LYS-1-dimer.test.326.fchk

                         Distributed Multipole Analysis

Standard DMA

Positions and radii in angstrom
Multipole moments in atomic units, ea_0^k for rank k

C          x =  0.362879  y = -0.225921  z =  0.600870 angstrom
           Maximum rank =  0   Radius =  0.650 angstrom
                   Q00  =   0.011718

C          x =  0.518879  y =  0.457079  z =  1.898870 angstrom
           Maximum rank =  0   Radius =  0.650 angstrom
                   Q00  =  -0.237453

C          x =  2.689879  y =  0.323079  z =  0.904870 angstrom
           Maximum rank =  0   Radius =  0.650 angstrom
                   Q00  =  -0.099686

C          x =  0.844879  y = -0.763921  z = -2.219130 angstrom
           Maximum rank =  0   Radius =  0.650 angstrom
                   Q00  =  -0.262576

C          x =  1.941879  y = -0.146921  z = -1.333130 angstrom
           Maximum rank =  0   Radius =  0.650 angstrom
                   Q00  =   0.733941

O          x =  3.036879  y =  0.210079  z = -1.801130 angstrom
           Maximum rank =  0   Radius =  0.650 angstrom
                   Q00  =  -0.792379

N          x =  1.677879  y = -0.091921  z = -0.029130 angstrom
           Maximum rank =  0   Radius =  0.650 angstrom
                   Q00  =  -0.440124

H          x =  0.118879  y = -1.278921  z =  0.751870 angstrom
           Maximum rank =  0   Radius =  0.325 angstrom
                   Q00  =   0.060147

H          x = -0.396121  y =  0.285079  z =  0.011870 angstrom
           Maximum rank =  0   Radius =  0.325 angstrom
                   Q00  =   0.083195

H          x = -0.145121  y =  0.039079  z =  2.655870 angstrom
           Maximum rank =  0   Radius =  0.325 angstrom
                   Q00  =   0.090091

H          x =  0.325879  y =  1.524079  z =  1.774870 angstrom
           Maximum rank =  0   Radius =  0.325 angstrom
                   Q00  =   0.097748

H          x =  2.958879  y =  1.357079  z =  0.691870 angstrom
           Maximum rank =  0   Radius =  0.325 angstrom
                   Q00  =   0.099275

H          x = -0.148121  y = -0.466921  z = -1.883130 angstrom
           Maximum rank =  0   Radius =  0.325 angstrom
                   Q00  =   0.095029

H          x =  1.576999  y =  0.303814  z =  2.157510 angstrom
           Maximum rank =  0   Radius =  0.325 angstrom
                   Q00  =   0.121939

H          x =  2.162999  y =  0.270033  z =  1.869020 angstrom
           Maximum rank =  0   Radius =  0.325 angstrom
                   Q00  =   0.092292

H          x =  3.572309  y = -0.333251  z =  0.881480 angstrom
           Maximum rank =  0   Radius =  0.325 angstrom
                   Q00  =   0.102042

H          x =  0.996039  y = -0.405191  z = -3.247950 angstrom
           Maximum rank =  0   Radius =  0.325 angstrom
                   Q00  =   0.126308

H          x =  0.961319  y = -1.853931  z = -2.127940 angstrom
           Maximum rank =  0   Radius =  0.325 angstrom
                   Q00  =   0.124285

C          x = -3.204121  y = -0.089921  z =  1.030870 angstrom
           Maximum rank =  0   Radius =  0.650 angstrom
                   Q00  =  -0.095991

C          x = -4.118121  y =  1.175079  z =  1.109870 angstrom
           Maximum rank =  0   Radius =  0.650 angstrom
                   Q00  =  -0.265931

C          x = -3.555121  y = -0.911921  z = -0.248130 angstrom
           Maximum rank =  0   Radius =  0.650 angstrom
                   Q00  =  -0.249780

H          x = -2.168121  y =  0.210079  z =  1.043870 angstrom
           Maximum rank =  0   Radius =  0.325 angstrom
                   Q00  =   0.053920

H          x = -3.398121  y = -0.712921  z =  1.904870 angstrom
           Maximum rank =  0   Radius =  0.325 angstrom
                   Q00  =   0.055913

H          x = -4.059121  y =  1.562079  z =  2.128870 angstrom
           Maximum rank =  0   Radius =  0.325 angstrom
                   Q00  =   0.084253

H          x = -5.155121  y =  0.876079  z =  0.947870 angstrom
           Maximum rank =  0   Radius =  0.325 angstrom
                   Q00  =   0.082584

H          x = -4.641121  y = -1.027921  z = -0.278130 angstrom
           Maximum rank =  0   Radius =  0.325 angstrom
                   Q00  =   0.081228

H          x = -3.269121  y = -0.303921  z = -1.108130 angstrom
           Maximum rank =  0   Radius =  0.325 angstrom
                   Q00  =   0.072921

H          x = -3.868201  y =  1.998541  z =  0.424700 angstrom
           Maximum rank =  0   Radius =  0.325 angstrom
                   Q00  =   0.086159

H          x = -3.128881  y = -1.916531  z = -0.386240 angstrom
           Maximum rank =  0   Radius =  0.325 angstrom
                   Q00  =   0.088934

Total multipoles referred to origin at
           x =   0.000000,  y =    0.000000,  z =    0.000000 angstrom
                   Q00  =  -0.000000

Finished at 7:58:16 on 27 Apr 2020

  DMA results are available in the Python driver through the
	  variable('DMA DISTRIBUTED MULTIPOLES')
  and
	  variable('DMA TOTAL MULTIPOLES')
  commands.

    Psi4 stopped on: Monday, 27 April 2020 07:58AM
    Psi4 wall time for execution: 0:06:46.96

*** Psi4 exiting successfully. Buy a developer a beer!
