                               Psi4 1.3.2 release

  ==> Input File <==

--------------------------------------------------------------------------
import numpy as np
set {scf_type pk
basis cc-pvdz
d_convergence 10
gdma_switch   0
gdma_limit    0
gdma_origin   [ 0.0,  0.0,  0.0 ]
}
molecule test {
    units Angstrom
    1 1
    --
    1 1
    C               -1.253350555629222    -0.028854508523584    -2.720128463291924
    C               -0.784350555629222    -1.930854508523584    -1.232128463291924
    N               -1.244350555629222    -1.230854508523584    -0.210128463291924
    N               -0.797350555629222    -1.399854508523584    -2.449128463291924
    N               -0.344350555629222    -3.151854508523584    -1.033128463291924
    H               -1.709350555629222    -0.358854508523584    -0.381128463291924
    H               -1.285350555629222    -1.654854508523584     0.702871536708076
    H               -0.479350555629222    -1.975854508523584    -3.228128463291924
    H                0.084649444370778    -3.624854508523584    -1.831128463291924
    H               -0.190350555629222    -3.489854508523584    -0.101128463291924
    H               -2.127350555629222     0.224145491476416    -2.118128463291924
    H               -1.556350555629222     0.044145491476416    -3.767128463291924
    H               -0.446330555629222     0.694233791476416    -2.530748463291924
    C                2.403649444370777     1.668145491476416     2.496871536708076
    C                1.051649444370778     2.007145491476416     1.888871536708076
    O                0.723649444370778     3.179145491476416     1.723871536708076
    N                0.307649444370778     0.983145491476416     1.533871536708076
    H               -0.606350555629222     1.174145491476416     1.159871536708076
    H                0.670649444370778     0.043145491476416     1.605871536708076
    H                2.900649444370778     0.909145491476416     1.890871536708076
    H                2.221649444370778     1.254145491476416     3.488871536708076
    H                3.037299444370777     2.563474491476416     2.579771536708076

}
e, wfn = energy('scf', return_wfn=True)
gdma(wfn)
dmavals = variable('DMA DISTRIBUTED MULTIPOLES')
charges = np.array(dmavals)
print(charges)
np.save('SSI-039ARG-043ASN-2-dimer.npy', np.array(charges))--------------------------------------------------------------------------

*** tstart() called on ds3
*** at Sun Apr 26 17:24:44 2020

   => Loading Basis Set <=

    Name: CC-PVDZ
    Role: ORBITAL
    Keyword: BASIS
    atoms 1-2, 14-15  entry C          line   138 file /theoryfs2/ds/metcalf/miniconda2/envs/tf2gpu/share/psi4/basis/cc-pvdz.gbs
    atoms 3-5, 17     entry N          line   168 file /theoryfs2/ds/metcalf/miniconda2/envs/tf2gpu/share/psi4/basis/cc-pvdz.gbs
    atoms 6-13, 18-22 entry H          line    22 file /theoryfs2/ds/metcalf/miniconda2/envs/tf2gpu/share/psi4/basis/cc-pvdz.gbs
    atoms 16          entry O          line   198 file /theoryfs2/ds/metcalf/miniconda2/envs/tf2gpu/share/psi4/basis/cc-pvdz.gbs

         ---------------------------------------------------------
                                   SCF
               by Justin Turney, Rob Parrish, Andy Simmonett
                          and Daniel G. A. Smith
                              RHF Reference
                        1 Threads,    500 MiB Core
         ---------------------------------------------------------

  ==> Geometry <==

    Molecular point group: c1
    Full point group: C1

    Geometry (in Angstrom), charge = 1, multiplicity = 1:

       Center              X                  Y                   Z               Mass
    ------------   -----------------  -----------------  -----------------  -----------------
         C           -1.253350555629    -0.028854508524    -2.720128463292    12.000000000000
         C           -0.784350555629    -1.930854508524    -1.232128463292    12.000000000000
         N           -1.244350555629    -1.230854508524    -0.210128463292    14.003074004430
         N           -0.797350555629    -1.399854508524    -2.449128463292    14.003074004430
         N           -0.344350555629    -3.151854508524    -1.033128463292    14.003074004430
         H           -1.709350555629    -0.358854508524    -0.381128463292     1.007825032230
         H           -1.285350555629    -1.654854508524     0.702871536708     1.007825032230
         H           -0.479350555629    -1.975854508524    -3.228128463292     1.007825032230
         H            0.084649444371    -3.624854508524    -1.831128463292     1.007825032230
         H           -0.190350555629    -3.489854508524    -0.101128463292     1.007825032230
         H           -2.127350555629     0.224145491476    -2.118128463292     1.007825032230
         H           -1.556350555629     0.044145491476    -3.767128463292     1.007825032230
         H           -0.446330555629     0.694233791476    -2.530748463292     1.007825032230
         C            2.403649444371     1.668145491476     2.496871536708    12.000000000000
         C            1.051649444371     2.007145491476     1.888871536708    12.000000000000
         O            0.723649444371     3.179145491476     1.723871536708    15.994914619570
         N            0.307649444371     0.983145491476     1.533871536708    14.003074004430
         H           -0.606350555629     1.174145491476     1.159871536708     1.007825032230
         H            0.670649444371     0.043145491476     1.605871536708     1.007825032230
         H            2.900649444371     0.909145491476     1.890871536708     1.007825032230
         H            2.221649444371     1.254145491476     3.488871536708     1.007825032230
         H            3.037299444371     2.563474491476     2.579771536708     1.007825032230

  Running in c1 symmetry.

  Rotational constants: A =      0.08124  B =      0.01640  C =      0.01472 [cm^-1]
  Rotational constants: A =   2435.53748  B =    491.69196  C =    441.34097 [MHz]
  Nuclear repulsion =  447.695249380413600

  Charge       = 1
  Multiplicity = 1
  Electrons    = 72
  Nalpha       = 36
  Nbeta        = 36

  ==> Algorithm <==

  SCF Algorithm Type is PK.
  DIIS enabled.
  MOM disabled.
  Fractional occupation disabled.
  Guess Type is SAD.
  Energy threshold   = 1.00e-06
  Density threshold  = 1.00e-10
  Integral threshold = 0.00e+00

  ==> Primary Basis <==

  Basis Set: CC-PVDZ
    Blend: CC-PVDZ
    Number of shells: 93
    Number of basis function: 191
    Number of Cartesian functions: 200
    Spherical Harmonics?: true
    Max angular momentum: 2

  ==> Pre-Iterations <==

   -------------------------------------------------------
    Irrep   Nso     Nmo     Nalpha   Nbeta   Ndocc  Nsocc
   -------------------------------------------------------
     A        191     191       0       0       0       0
   -------------------------------------------------------
    Total     191     191      36      36      36       0
   -------------------------------------------------------

  ==> Integral Setup <==

  Using integral reordering PK algorithm.
  Sizing the integral batches needed.
  Building batch lookup table.
   Calculation information:
      Number of atoms:                  22
      Number of AO shells:              93
      Number of primitives:            263
      Number of atomic orbitals:       200
      Number of basis functions:       191

      Integral cutoff                 1.00e-12
      Number of threads:                 1

	Batch   1 pq = [       0,    9405] index = [             0,44231715] size =     44231715
	Batch   2 pq = [    9405,   13301] index = [      44231715,88464951] size =     44233236
	Batch   3 pq = [   13301,   16290] index = [      88464951,132690195] size =     44225244
	Batch   4 pq = [   16290,   18336] index = [     132690195,168113616] size =     35423421
  Task number: 16
  Buffer size: 11059200
  Buffer per thread: 2
  We computed 7021855 shell quartets total.
  Whereas there are 9555006 unique shell quartets.

  ==> DiskJK: Disk-Based J/K Matrices <==

    J tasked:                  Yes
    K tasked:                  Yes
    wK tasked:                  No
    Memory [MiB]:              375
    Schwarz Cutoff:          1E-12

    OpenMP threads:              1

  Minimum eigenvalue in the overlap matrix is 3.9395776919E-03.
  Using Symmetric Orthogonalization.

  SCF Guess: Superposition of Atomic Densities via on-the-fly atomic UHF.

  ==> Iterations <==

                        Total Energy        Delta E     RMS |[F,P]|

   @RHF iter SAD:  -450.74508136989857   -4.50745e+02   0.00000e+00
   @RHF iter   1:  -451.28499293307243   -5.39912e-01   3.74690e-03 DIIS
   @RHF iter   2:  -451.50378091510032   -2.18788e-01   1.98209e-03 DIIS
   @RHF iter   3:  -451.55707627301416   -5.32954e-02   4.78661e-04 DIIS
   @RHF iter   4:  -451.56174062758078   -4.66435e-03   1.81310e-04 DIIS
   @RHF iter   5:  -451.56244577809701   -7.05151e-04   3.18210e-05 DIIS
   @RHF iter   6:  -451.56249458072176   -4.88026e-05   1.41613e-05 DIIS
   @RHF iter   7:  -451.56250192311029   -7.34239e-06   5.19683e-06 DIIS
   @RHF iter   8:  -451.56250328552329   -1.36241e-06   1.67320e-06 DIIS
   @RHF iter   9:  -451.56250344179404   -1.56271e-07   5.02973e-07 DIIS
   @RHF iter  10:  -451.56250345390220   -1.21082e-08   1.71103e-07 DIIS
   @RHF iter  11:  -451.56250345493800   -1.03580e-09   3.37757e-08 DIIS
   @RHF iter  12:  -451.56250345498751   -4.95106e-11   9.38238e-09 DIIS
   @RHF iter  13:  -451.56250345498415    3.35376e-12   3.18195e-09 DIIS
   @RHF iter  14:  -451.56250345498682   -2.67164e-12   7.74402e-10 DIIS
   @RHF iter  15:  -451.56250345498711   -2.84217e-13   2.63526e-10 DIIS
   @RHF iter  16:  -451.56250345498739   -2.84217e-13   1.10405e-10 DIIS
   @RHF iter  17:  -451.56250345499046   -3.06954e-12   4.20873e-11 DIIS
  Energy and wave function converged.

  ==> Post-Iterations <==

    Orbital Energies [Eh]
    ---------------------

    Doubly Occupied:

       1A    -20.596265     2A    -15.802505     3A    -15.802473
       4A    -15.799436     5A    -15.697285     6A    -11.601585
       7A    -11.451425     8A    -11.438830     9A    -11.325410
      10A     -1.560715    11A     -1.462013    12A     -1.414330
      13A     -1.407572    14A     -1.326559    15A     -1.150630
      16A     -1.085871    17A     -1.049963    18A     -0.992264
      19A     -0.957743    20A     -0.904568    21A     -0.873183
      22A     -0.869255    23A     -0.838561    24A     -0.836235
      25A     -0.804920    26A     -0.755006    27A     -0.743990
      28A     -0.732190    29A     -0.704899    30A     -0.658979
      31A     -0.643541    32A     -0.634140    33A     -0.615458
      34A     -0.597805    35A     -0.503934    36A     -0.498699

    Virtual:

      37A     -0.025894    38A      0.007509    39A      0.010000
      40A      0.020372    41A      0.046624    42A      0.069795
      43A      0.077787    44A      0.104351    45A      0.111105
      46A      0.116015    47A      0.117245    48A      0.144933
      49A      0.168046    50A      0.181648    51A      0.192198
      52A      0.210157    53A      0.257806    54A      0.296989
      55A      0.320537    56A      0.334320    57A      0.367122
      58A      0.433971    59A      0.441173    60A      0.454015
      61A      0.494484    62A      0.500764    63A      0.518243
      64A      0.524417    65A      0.533571    66A      0.546089
      67A      0.551913    68A      0.579118    69A      0.614823
      70A      0.631475    71A      0.640292    72A      0.651950
      73A      0.676346    74A      0.680966    75A      0.694471
      76A      0.705816    77A      0.726694    78A      0.743019
      79A      0.757900    80A      0.761552    81A      0.779771
      82A      0.801136    83A      0.805629    84A      0.815479
      85A      0.837610    86A      0.841901    87A      0.859501
      88A      0.871285    89A      0.899069    90A      0.910225
      91A      0.929801    92A      0.947560    93A      0.977369
      94A      1.013392    95A      1.024612    96A      1.035660
      97A      1.046287    98A      1.056064    99A      1.116676
     100A      1.143052   101A      1.175895   102A      1.213102
     103A      1.218761   104A      1.225855   105A      1.246539
     106A      1.278340   107A      1.284003   108A      1.308675
     109A      1.312109   110A      1.363745   111A      1.387167
     112A      1.421983   113A      1.452961   114A      1.478172
     115A      1.500358   116A      1.523184   117A      1.553683
     118A      1.563421   119A      1.573965   120A      1.591609
     121A      1.612676   122A      1.631838   123A      1.663751
     124A      1.694714   125A      1.700158   126A      1.728651
     127A      1.737326   128A      1.742438   129A      1.763904
     130A      1.778061   131A      1.780399   132A      1.787484
     133A      1.811327   134A      1.823434   135A      1.830529
     136A      1.850138   137A      1.864464   138A      1.886350
     139A      1.891796   140A      1.950605   141A      1.984929
     142A      1.998901   143A      2.001906   144A      2.014591
     145A      2.077890   146A      2.116182   147A      2.123220
     148A      2.135789   149A      2.149336   150A      2.169730
     151A      2.214179   152A      2.239296   153A      2.274008
     154A      2.308395   155A      2.313365   156A      2.318907
     157A      2.350848   158A      2.363911   159A      2.399994
     160A      2.412576   161A      2.463498   162A      2.468960
     163A      2.481176   164A      2.513942   165A      2.552773
     166A      2.574869   167A      2.592430   168A      2.614419
     169A      2.629245   170A      2.659930   171A      2.705842
     172A      2.708844   173A      2.711639   174A      2.772648
     175A      2.780577   176A      2.785996   177A      2.800830
     178A      2.871741   179A      2.900211   180A      2.999123
     181A      3.046326   182A      3.048846   183A      3.068557
     184A      3.126223   185A      3.202622   186A      3.425978
     187A      3.446470   188A      3.535377   189A      3.621294
     190A      3.767098   191A      3.808099

    Final Occupation by Irrep:
              A
    DOCC [    36 ]

  @RHF Final Energy:  -451.56250345499046

   => Energetics <=

    Nuclear Repulsion Energy =            447.6952493804135997
    One-Electron Energy =               -1490.2390315331670081
    Two-Electron Energy =                 590.9812786977629457
    Total Energy =                       -451.5625034549905195

Computation Completed

Properties will be evaluated at   0.000000,   0.000000,   0.000000 [a0]

Properties computed using the SCF density matrix

  Nuclear Dipole Moment: [e a0]
     X:     0.4915      Y:    -3.9060      Z:    -2.3567

  Electronic Dipole Moment: [e a0]
     X:    -1.7013      Y:    -0.9692      Z:    -0.1062

  Dipole Moment: [e a0]
     X:    -1.2098      Y:    -4.8752      Z:    -2.4629     Total:     5.5944

  Dipole Moment: [D]
     X:    -3.0750      Y:   -12.3916      Z:    -6.2600     Total:    14.2195

*** tstop() called on ds3 at Sun Apr 26 17:26:16 2020
Module time:
	user time   =      51.89 seconds =       0.86 minutes
	system time =      28.06 seconds =       0.47 minutes
	total time  =         92 seconds =       1.53 minutes
Total time:
	user time   =      51.89 seconds =       0.86 minutes
	system time =      28.06 seconds =       0.47 minutes
	total time  =         92 seconds =       1.53 minutes
                                     G D M A

                                 by Anthony Stone

                           version 2.2.06, 22 June 2011

               Distributed Multipoles from Gaussian wavefunctions

Starting at 17:26:16 on 26 Apr 2020

Using SCF density matrix from file ./SSI/SSI-039ARG-043ASN-2-dimer.test.18465.fchk

                         Distributed Multipole Analysis

Standard DMA

Positions and radii in angstrom
Multipole moments in atomic units, ea_0^k for rank k

C          x = -1.253351  y = -0.028855  z = -2.720128 angstrom
           Maximum rank =  0   Radius =  0.650 angstrom
                   Q00  =  -0.130206

C          x = -0.784351  y = -1.930855  z = -1.232128 angstrom
           Maximum rank =  0   Radius =  0.650 angstrom
                   Q00  =   1.081115

N          x = -1.244351  y = -1.230855  z = -0.210128 angstrom
           Maximum rank =  0   Radius =  0.650 angstrom
                   Q00  =  -0.582863

N          x = -0.797351  y = -1.399855  z = -2.449128 angstrom
           Maximum rank =  0   Radius =  0.650 angstrom
                   Q00  =  -0.501880

N          x = -0.344351  y = -3.151855  z = -1.033128 angstrom
           Maximum rank =  0   Radius =  0.650 angstrom
                   Q00  =  -0.589814

H          x = -1.709351  y = -0.358855  z = -0.381128 angstrom
           Maximum rank =  0   Radius =  0.325 angstrom
                   Q00  =   0.268852

H          x = -1.285351  y = -1.654855  z =  0.702872 angstrom
           Maximum rank =  0   Radius =  0.325 angstrom
                   Q00  =   0.262120

H          x = -0.479351  y = -1.975855  z = -3.228128 angstrom
           Maximum rank =  0   Radius =  0.325 angstrom
                   Q00  =   0.245517

H          x =  0.084649  y = -3.624855  z = -1.831128 angstrom
           Maximum rank =  0   Radius =  0.325 angstrom
                   Q00  =   0.268185

H          x = -0.190351  y = -3.489855  z = -0.101128 angstrom
           Maximum rank =  0   Radius =  0.325 angstrom
                   Q00  =   0.268666

H          x = -2.127351  y =  0.224145  z = -2.118128 angstrom
           Maximum rank =  0   Radius =  0.325 angstrom
                   Q00  =   0.109512

H          x = -1.556351  y =  0.044145  z = -3.767128 angstrom
           Maximum rank =  0   Radius =  0.325 angstrom
                   Q00  =   0.165043

H          x = -0.446331  y =  0.694234  z = -2.530748 angstrom
           Maximum rank =  0   Radius =  0.325 angstrom
                   Q00  =   0.134174

C          x =  2.403649  y =  1.668145  z =  2.496872 angstrom
           Maximum rank =  0   Radius =  0.650 angstrom
                   Q00  =  -0.253470

C          x =  1.051649  y =  2.007145  z =  1.888872 angstrom
           Maximum rank =  0   Radius =  0.650 angstrom
                   Q00  =   0.793004

O          x =  0.723649  y =  3.179145  z =  1.723872 angstrom
           Maximum rank =  0   Radius =  0.650 angstrom
                   Q00  =  -0.773889

N          x =  0.307649  y =  0.983145  z =  1.533872 angstrom
           Maximum rank =  0   Radius =  0.650 angstrom
                   Q00  =  -0.502521

H          x = -0.606351  y =  1.174145  z =  1.159872 angstrom
           Maximum rank =  0   Radius =  0.325 angstrom
                   Q00  =   0.194577

H          x =  0.670649  y =  0.043145  z =  1.605872 angstrom
           Maximum rank =  0   Radius =  0.325 angstrom
                   Q00  =   0.193012

H          x =  2.900649  y =  0.909145  z =  1.890872 angstrom
           Maximum rank =  0   Radius =  0.325 angstrom
                   Q00  =   0.084313

H          x =  2.221649  y =  1.254145  z =  3.488872 angstrom
           Maximum rank =  0   Radius =  0.325 angstrom
                   Q00  =   0.120056

H          x =  3.037299  y =  2.563474  z =  2.579772 angstrom
           Maximum rank =  0   Radius =  0.325 angstrom
                   Q00  =   0.146498

Total multipoles referred to origin at
           x =   0.000000,  y =    0.000000,  z =    0.000000 angstrom
                   Q00  =   1.000000

Finished at 17:26:16 on 26 Apr 2020

  DMA results are available in the Python driver through the
	  variable('DMA DISTRIBUTED MULTIPOLES')
  and
	  variable('DMA TOTAL MULTIPOLES')
  commands.

    Psi4 stopped on: Sunday, 26 April 2020 05:26PM
    Psi4 wall time for execution: 0:01:32.34

*** Psi4 exiting successfully. Buy a developer a beer!
