                               Psi4 1.3.2 release

  ==> Input File <==

--------------------------------------------------------------------------
import numpy as np
set {scf_type pk
basis cc-pvdz
d_convergence 10
gdma_switch   0
gdma_limit    0
gdma_origin   [ 0.0,  0.0,  0.0 ]
}
molecule test {
    units Angstrom
    -1 1
    --
    -1 1
    C                0.417433112088975     0.005596843336568    -2.684413872470905
    C               -0.438566887911025     0.516596843336568    -1.565413872470905
    O               -0.899566887911025    -0.310403156663432    -0.745413872470905
    O               -0.652566887911025     1.763596843336568    -1.547413872470905
    H                1.207433112088975     0.719596843336568    -2.907413872470905
    H               -0.196566887911025    -0.167403156663432    -3.565413872470905
    H                0.838583612088975    -0.942203156663432    -2.317873872470905
    C                0.400433112088975    -1.102403156663432     1.851586127529095
    C                1.692433112088975    -0.368403156663432     1.741586127529095
    C               -0.532566887911025    -0.547403156663432     2.952586127529095
    H               -0.053566887911025    -1.064403156663432     0.938586127529095
    H                0.650433112088975    -2.084403156663432     2.050586127529095
    H                1.494433112088975     0.689596843336568     1.586586127529095
    H                2.267433112088975    -0.764403156663432     0.903586127529095
    H                0.081433112088975    -0.537403156663432     3.849586127529095
    H               -0.731566887911025     0.479596843336568     2.641586127529095
    H                2.231669112088975    -0.528503156663432     2.686886127529095
    H               -1.482808887911025    -1.050503156663432     3.184886127529095

}
e, wfn = energy('scf', return_wfn=True)
gdma(wfn)
dmavals = variable('DMA DISTRIBUTED MULTIPOLES')
charges = np.array(dmavals)
print(charges)
np.save('SSI-096GLU-121LYS-1-dimer.npy', np.array(charges))--------------------------------------------------------------------------

*** tstart() called on ds3
*** at Tue Apr 28 11:00:35 2020

   => Loading Basis Set <=

    Name: CC-PVDZ
    Role: ORBITAL
    Keyword: BASIS
    atoms 1-2, 8-10  entry C          line   138 file /theoryfs2/ds/metcalf/miniconda2/envs/tf2gpu/share/psi4/basis/cc-pvdz.gbs
    atoms 3-4        entry O          line   198 file /theoryfs2/ds/metcalf/miniconda2/envs/tf2gpu/share/psi4/basis/cc-pvdz.gbs
    atoms 5-7, 11-18 entry H          line    22 file /theoryfs2/ds/metcalf/miniconda2/envs/tf2gpu/share/psi4/basis/cc-pvdz.gbs

         ---------------------------------------------------------
                                   SCF
               by Justin Turney, Rob Parrish, Andy Simmonett
                          and Daniel G. A. Smith
                              RHF Reference
                        1 Threads,    500 MiB Core
         ---------------------------------------------------------

  ==> Geometry <==

    Molecular point group: c1
    Full point group: C1

    Geometry (in Angstrom), charge = -1, multiplicity = 1:

       Center              X                  Y                   Z               Mass
    ------------   -----------------  -----------------  -----------------  -----------------
         C            0.417433112089     0.005596843337    -2.684413872471    12.000000000000
         C           -0.438566887911     0.516596843337    -1.565413872471    12.000000000000
         O           -0.899566887911    -0.310403156663    -0.745413872471    15.994914619570
         O           -0.652566887911     1.763596843337    -1.547413872471    15.994914619570
         H            1.207433112089     0.719596843337    -2.907413872471     1.007825032230
         H           -0.196566887911    -0.167403156663    -3.565413872471     1.007825032230
         H            0.838583612089    -0.942203156663    -2.317873872471     1.007825032230
         C            0.400433112089    -1.102403156663     1.851586127529    12.000000000000
         C            1.692433112089    -0.368403156663     1.741586127529    12.000000000000
         C           -0.532566887911    -0.547403156663     2.952586127529    12.000000000000
         H           -0.053566887911    -1.064403156663     0.938586127529     1.007825032230
         H            0.650433112089    -2.084403156663     2.050586127529     1.007825032230
         H            1.494433112089     0.689596843337     1.586586127529     1.007825032230
         H            2.267433112089    -0.764403156663     0.903586127529     1.007825032230
         H            0.081433112089    -0.537403156663     3.849586127529     1.007825032230
         H           -0.731566887911     0.479596843337     2.641586127529     1.007825032230
         H            2.231669112089    -0.528503156663     2.686886127529     1.007825032230
         H           -1.482808887911    -1.050503156663     3.184886127529     1.007825032230

  Running in c1 symmetry.

  Rotational constants: A =      0.13504  B =      0.03331  C =      0.03117 [cm^-1]
  Rotational constants: A =   4048.31227  B =    998.48992  C =    934.54206 [MHz]
  Nuclear repulsion =  296.110955764084849

  Charge       = -1
  Multiplicity = 1
  Electrons    = 58
  Nalpha       = 29
  Nbeta        = 29

  ==> Algorithm <==

  SCF Algorithm Type is PK.
  DIIS enabled.
  MOM disabled.
  Fractional occupation disabled.
  Guess Type is SAD.
  Energy threshold   = 1.00e-06
  Density threshold  = 1.00e-10
  Integral threshold = 0.00e+00

  ==> Primary Basis <==

  Basis Set: CC-PVDZ
    Blend: CC-PVDZ
    Number of shells: 75
    Number of basis function: 153
    Number of Cartesian functions: 160
    Spherical Harmonics?: true
    Max angular momentum: 2

  ==> Pre-Iterations <==

   -------------------------------------------------------
    Irrep   Nso     Nmo     Nalpha   Nbeta   Ndocc  Nsocc
   -------------------------------------------------------
     A        153     153       0       0       0       0
   -------------------------------------------------------
    Total     153     153      29      29      29       0
   -------------------------------------------------------

  ==> Integral Setup <==

  Using integral reordering PK algorithm.
  Sizing the integral batches needed.
  Building batch lookup table.
   Calculation information:
      Number of atoms:                  18
      Number of AO shells:              75
      Number of primitives:            209
      Number of atomic orbitals:       160
      Number of basis functions:       153

      Integral cutoff                 1.00e-12
      Number of threads:                 1

	Batch   1 pq = [       0,    9405] index = [             0,44231715] size =     44231715
	Batch   2 pq = [    9405,   11781] index = [      44231715,69401871] size =     25170156
  Task number: 7
  Buffer size: 11059200
  Buffer per thread: 2
  We computed 3584268 shell quartets total.
  Whereas there are 4062675 unique shell quartets.

  ==> DiskJK: Disk-Based J/K Matrices <==

    J tasked:                  Yes
    K tasked:                  Yes
    wK tasked:                  No
    Memory [MiB]:              375
    Schwarz Cutoff:          1E-12

    OpenMP threads:              1

  Minimum eigenvalue in the overlap matrix is 5.0161683788E-03.
  Using Symmetric Orthogonalization.

  SCF Guess: Superposition of Atomic Densities via on-the-fly atomic UHF.

  ==> Iterations <==

                        Total Energy        Delta E     RMS |[F,P]|

   @RHF iter SAD:  -344.02876200276080   -3.44029e+02   0.00000e+00
   @RHF iter   1:  -345.19759469952515   -1.16883e+00   4.98614e-03 DIIS
   @RHF iter   2:  -345.42987080625829   -2.32276e-01   2.74725e-03 DIIS
   @RHF iter   3:  -345.49691901449307   -6.70482e-02   4.33314e-04 DIIS
   @RHF iter   4:  -345.49993107166233   -3.01206e-03   1.64601e-04 DIIS
   @RHF iter   5:  -345.50036069369787   -4.29622e-04   2.45619e-05 DIIS
   @RHF iter   6:  -345.50037326758303   -1.25739e-05   6.88813e-06 DIIS
   @RHF iter   7:  -345.50037415191122   -8.84328e-07   2.06087e-06 DIIS
   @RHF iter   8:  -345.50037423868400   -8.67728e-08   1.00500e-06 DIIS
   @RHF iter   9:  -345.50037425429650   -1.56125e-08   3.09399e-07 DIIS
   @RHF iter  10:  -345.50037425834768   -4.05117e-09   1.43430e-07 DIIS
   @RHF iter  11:  -345.50037425911717   -7.69489e-10   3.57388e-08 DIIS
   @RHF iter  12:  -345.50037425916634   -4.91696e-11   7.93035e-09 DIIS
   @RHF iter  13:  -345.50037425916946   -3.12639e-12   2.25458e-09 DIIS
   @RHF iter  14:  -345.50037425916929    1.70530e-13   6.62390e-10 DIIS
   @RHF iter  15:  -345.50037425916844    8.52651e-13   1.96744e-10 DIIS
   @RHF iter  16:  -345.50037425916878   -3.41061e-13   7.77913e-11 DIIS
  Energy and wave function converged.

  ==> Post-Iterations <==

    Orbital Energies [Eh]
    ---------------------

    Doubly Occupied:

       1A    -20.269920     2A    -20.259171     3A    -11.119127
       4A    -11.089136     5A    -11.084587     6A    -11.052632
       7A    -11.048322     8A     -1.148858     9A     -1.039876
      10A     -0.928014    11A     -0.802040    12A     -0.795072
      13A     -0.669813    14A     -0.511967    15A     -0.496528
      16A     -0.473514    17A     -0.419741    18A     -0.414450
      19A     -0.409394    20A     -0.404236    21A     -0.403828
      22A     -0.352305    23A     -0.349684    24A     -0.332307
      25A     -0.323618    26A     -0.299297    27A     -0.187650
      28A     -0.176190    29A     -0.165265

    Virtual:

      30A      0.305419    31A      0.338043    32A      0.355934
      33A      0.365172    34A      0.374896    35A      0.390732
      36A      0.394651    37A      0.406854    38A      0.427438
      39A      0.442130    40A      0.481010    41A      0.487299
      42A      0.549342    43A      0.561416    44A      0.571381
      45A      0.698879    46A      0.702538    47A      0.724460
      48A      0.735194    49A      0.753146    50A      0.765522
      51A      0.788858    52A      0.827626    53A      0.853438
      54A      0.906461    55A      0.954466    56A      0.964491
      57A      0.974715    58A      0.992289    59A      1.010975
      60A      1.017108    61A      1.021404    62A      1.029077
      63A      1.033454    64A      1.033616    65A      1.040851
      66A      1.051143    67A      1.073073    68A      1.087113
      69A      1.092774    70A      1.113070    71A      1.143286
      72A      1.189961    73A      1.217241    74A      1.255720
      75A      1.274673    76A      1.333788    77A      1.350597
      78A      1.359222    79A      1.466699    80A      1.477918
      81A      1.547809    82A      1.565774    83A      1.585551
      84A      1.613141    85A      1.641718    86A      1.658378
      87A      1.677782    88A      1.693566    89A      1.741298
      90A      1.757672    91A      1.794879    92A      1.802168
      93A      1.827719    94A      1.830195    95A      1.839074
      96A      1.860494    97A      1.972939    98A      2.014808
      99A      2.026057   100A      2.032915   101A      2.047701
     102A      2.049585   103A      2.067156   104A      2.084464
     105A      2.114796   106A      2.122047   107A      2.146129
     108A      2.151633   109A      2.187734   110A      2.200625
     111A      2.203156   112A      2.208104   113A      2.232660
     114A      2.280639   115A      2.286793   116A      2.328247
     117A      2.400625   118A      2.413496   119A      2.423331
     120A      2.432035   121A      2.445399   122A      2.463271
     123A      2.486864   124A      2.566181   125A      2.679696
     126A      2.696932   127A      2.724336   128A      2.735796
     129A      2.740717   130A      2.749945   131A      2.791807
     132A      2.814090   133A      2.901205   134A      2.919813
     135A      2.926359   136A      2.934326   137A      2.953416
     138A      2.973227   139A      2.985912   140A      3.080710
     141A      3.139299   142A      3.214570   143A      3.244232
     144A      3.261992   145A      3.292639   146A      3.336432
     147A      3.386756   148A      3.608399   149A      3.783043
     150A      3.842694   151A      4.044182   152A      4.097427
     153A      4.178767

    Final Occupation by Irrep:
              A
    DOCC [    29 ]

  @RHF Final Energy:  -345.50037425916878

   => Energetics <=

    Nuclear Repulsion Energy =            296.1109557640848493
    One-Electron Energy =               -1069.1695731195316057
    Two-Electron Energy =                 427.5582430962780336
    Total Energy =                       -345.5003742591687796

Computation Completed

Properties will be evaluated at   0.000000,   0.000000,   0.000000 [a0]

Properties computed using the SCF density matrix

  Nuclear Dipole Moment: [e a0]
     X:     5.9051      Y:    -4.9151      Z:     8.4746

  Electronic Dipole Moment: [e a0]
     X:    -4.6042      Y:     3.6082      Z:    -7.1634

  Dipole Moment: [e a0]
     X:     1.3009      Y:    -1.3070      Z:     1.3111     Total:     2.2627

  Dipole Moment: [D]
     X:     3.3066      Y:    -3.3220      Z:     3.3326     Total:     5.7511

*** tstop() called on ds3 at Tue Apr 28 11:01:07 2020
Module time:
	user time   =      22.85 seconds =       0.38 minutes
	system time =       9.41 seconds =       0.16 minutes
	total time  =         32 seconds =       0.53 minutes
Total time:
	user time   =      22.85 seconds =       0.38 minutes
	system time =       9.41 seconds =       0.16 minutes
	total time  =         32 seconds =       0.53 minutes
                                     G D M A

                                 by Anthony Stone

                           version 2.2.06, 22 June 2011

               Distributed Multipoles from Gaussian wavefunctions

Starting at 11:1:7 on 28 Apr 2020

Using SCF density matrix from file ./SSI/SSI-096GLU-121LYS-1-dimer.test.26160.fchk

                         Distributed Multipole Analysis

Standard DMA

Positions and radii in angstrom
Multipole moments in atomic units, ea_0^k for rank k

C          x =  0.417433  y =  0.005597  z = -2.684414 angstrom
           Maximum rank =  0   Radius =  0.650 angstrom
                   Q00  =  -0.276820

C          x = -0.438567  y =  0.516597  z = -1.565414 angstrom
           Maximum rank =  0   Radius =  0.650 angstrom
                   Q00  =   0.982249

O          x = -0.899567  y = -0.310403  z = -0.745414 angstrom
           Maximum rank =  0   Radius =  0.650 angstrom
                   Q00  =  -0.924110

O          x = -0.652567  y =  1.763597  z = -1.547414 angstrom
           Maximum rank =  0   Radius =  0.650 angstrom
                   Q00  =  -0.941937

H          x =  1.207433  y =  0.719597  z = -2.907414 angstrom
           Maximum rank =  0   Radius =  0.325 angstrom
                   Q00  =   0.060887

H          x = -0.196567  y = -0.167403  z = -3.565414 angstrom
           Maximum rank =  0   Radius =  0.325 angstrom
                   Q00  =   0.083508

H          x =  0.838584  y = -0.942203  z = -2.317874 angstrom
           Maximum rank =  0   Radius =  0.325 angstrom
                   Q00  =   0.045807

C          x =  0.400433  y = -1.102403  z =  1.851586 angstrom
           Maximum rank =  0   Radius =  0.650 angstrom
                   Q00  =  -0.049310

C          x =  1.692433  y = -0.368403  z =  1.741586 angstrom
           Maximum rank =  0   Radius =  0.650 angstrom
                   Q00  =  -0.229913

C          x = -0.532567  y = -0.547403  z =  2.952586 angstrom
           Maximum rank =  0   Radius =  0.650 angstrom
                   Q00  =  -0.229523

H          x = -0.053567  y = -1.064403  z =  0.938586 angstrom
           Maximum rank =  0   Radius =  0.325 angstrom
                   Q00  =   0.121549

H          x =  0.650433  y = -2.084403  z =  2.050586 angstrom
           Maximum rank =  0   Radius =  0.325 angstrom
                   Q00  =  -0.009722

H          x =  1.494433  y =  0.689597  z =  1.586586 angstrom
           Maximum rank =  0   Radius =  0.325 angstrom
                   Q00  =   0.088579

H          x =  2.267433  y = -0.764403  z =  0.903586 angstrom
           Maximum rank =  0   Radius =  0.325 angstrom
                   Q00  =   0.076559

H          x =  0.081433  y = -0.537403  z =  3.849586 angstrom
           Maximum rank =  0   Radius =  0.325 angstrom
                   Q00  =   0.023590

H          x = -0.731567  y =  0.479597  z =  2.641586 angstrom
           Maximum rank =  0   Radius =  0.325 angstrom
                   Q00  =   0.088694

H          x =  2.231669  y = -0.528503  z =  2.686886 angstrom
           Maximum rank =  0   Radius =  0.325 angstrom
                   Q00  =   0.016267

H          x = -1.482809  y = -1.050503  z =  3.184886 angstrom
           Maximum rank =  0   Radius =  0.325 angstrom
                   Q00  =   0.073644

Total multipoles referred to origin at
           x =   0.000000,  y =    0.000000,  z =    0.000000 angstrom
                   Q00  =  -1.000000

Finished at 11:1:7 on 28 Apr 2020

  DMA results are available in the Python driver through the
	  variable('DMA DISTRIBUTED MULTIPOLES')
  and
	  variable('DMA TOTAL MULTIPOLES')
  commands.

    Psi4 stopped on: Tuesday, 28 April 2020 11:01AM
    Psi4 wall time for execution: 0:00:31.71

*** Psi4 exiting successfully. Buy a developer a beer!
