                               Psi4 1.3.2 release

  ==> Input File <==

--------------------------------------------------------------------------
import numpy as np
set {scf_type pk
basis cc-pvdz
d_convergence 10
gdma_switch   0
gdma_limit    0
gdma_origin   [ 0.0,  0.0,  0.0 ]
}
molecule test {
    units Angstrom
    0 1
    --
    0 1
    C                0.921878939757113     1.297171747481545     1.667901984608676
    C                1.333878939757113     0.137171747481545     2.565901984608676
    H                1.046878939757113     1.049171747481545     0.618901984608676
    H               -0.119121060242887     1.542171747481545     1.858901984608676
    H                1.531878939757113     2.171171747481545     1.895901984608676
    H                0.660878939757113    -0.699828252518455     2.379901984608676
    H                1.171878939757113     0.452171747481545     3.594901984608676
    H                2.370795939757113    -0.202978252518455     2.427693984608676
    C               -0.784121060242887     0.093171747481545    -1.480098015391324
    C               -1.962121060242887    -0.867828252518455    -1.394098015391324
    O                0.426878939757113    -0.587828252518455    -1.232098015391324
    H               -0.760121060242887     0.569171747481545    -2.457098015391324
    H               -0.903121060242887     0.868171747481545    -0.723098015391324
    H               -1.893121060242887    -1.574828252518455    -2.219098015391324
    H                0.777878939757113    -0.948828252518455    -2.069098015391324
    H               -2.906352060242888    -0.311108252518455    -1.486255015391324
    H               -1.913121060242887    -1.439978252518455    -0.455886015391324

}
e, wfn = energy('scf', return_wfn=True)
gdma(wfn)
dmavals = variable('DMA DISTRIBUTED MULTIPOLES')
charges = np.array(dmavals)
print(charges)
np.save('SSI-005ILE-054SER-1-dimer.npy', np.array(charges))--------------------------------------------------------------------------

*** tstart() called on ds3
*** at Mon Apr 27 14:02:41 2020

   => Loading Basis Set <=

    Name: CC-PVDZ
    Role: ORBITAL
    Keyword: BASIS
    atoms 1-2, 9-10  entry C          line   138 file /theoryfs2/ds/metcalf/miniconda2/envs/tf2gpu/share/psi4/basis/cc-pvdz.gbs
    atoms 3-8, 12-17 entry H          line    22 file /theoryfs2/ds/metcalf/miniconda2/envs/tf2gpu/share/psi4/basis/cc-pvdz.gbs
    atoms 11         entry O          line   198 file /theoryfs2/ds/metcalf/miniconda2/envs/tf2gpu/share/psi4/basis/cc-pvdz.gbs

         ---------------------------------------------------------
                                   SCF
               by Justin Turney, Rob Parrish, Andy Simmonett
                          and Daniel G. A. Smith
                              RHF Reference
                        1 Threads,    500 MiB Core
         ---------------------------------------------------------

  ==> Geometry <==

    Molecular point group: c1
    Full point group: C1

    Geometry (in Angstrom), charge = 0, multiplicity = 1:

       Center              X                  Y                   Z               Mass
    ------------   -----------------  -----------------  -----------------  -----------------
         C            0.921878939757     1.297171747482     1.667901984609    12.000000000000
         C            1.333878939757     0.137171747482     2.565901984609    12.000000000000
         H            1.046878939757     1.049171747482     0.618901984609     1.007825032230
         H           -0.119121060243     1.542171747482     1.858901984609     1.007825032230
         H            1.531878939757     2.171171747482     1.895901984609     1.007825032230
         H            0.660878939757    -0.699828252518     2.379901984609     1.007825032230
         H            1.171878939757     0.452171747482     3.594901984609     1.007825032230
         H            2.370795939757    -0.202978252518     2.427693984609     1.007825032230
         C           -0.784121060243     0.093171747482    -1.480098015391    12.000000000000
         C           -1.962121060243    -0.867828252518    -1.394098015391    12.000000000000
         O            0.426878939757    -0.587828252518    -1.232098015391    15.994914619570
         H           -0.760121060243     0.569171747482    -2.457098015391     1.007825032230
         H           -0.903121060243     0.868171747482    -0.723098015391     1.007825032230
         H           -1.893121060243    -1.574828252518    -2.219098015391     1.007825032230
         H            0.777878939757    -0.948828252518    -2.069098015391     1.007825032230
         H           -2.906352060243    -0.311108252518    -1.486255015391     1.007825032230
         H           -1.913121060243    -1.439978252518    -0.455886015391     1.007825032230

  Running in c1 symmetry.

  Rotational constants: A =      0.24355  B =      0.04624  C =      0.04496 [cm^-1]
  Rotational constants: A =   7301.45655  B =   1386.22445  C =   1347.81205 [MHz]
  Nuclear repulsion =  182.247937708730603

  Charge       = 0
  Multiplicity = 1
  Electrons    = 44
  Nalpha       = 22
  Nbeta        = 22

  ==> Algorithm <==

  SCF Algorithm Type is PK.
  DIIS enabled.
  MOM disabled.
  Fractional occupation disabled.
  Guess Type is SAD.
  Energy threshold   = 1.00e-06
  Density threshold  = 1.00e-10
  Integral threshold = 0.00e+00

  ==> Primary Basis <==

  Basis Set: CC-PVDZ
    Blend: CC-PVDZ
    Number of shells: 66
    Number of basis function: 130
    Number of Cartesian functions: 135
    Spherical Harmonics?: true
    Max angular momentum: 2

  ==> Pre-Iterations <==

   -------------------------------------------------------
    Irrep   Nso     Nmo     Nalpha   Nbeta   Ndocc  Nsocc
   -------------------------------------------------------
     A        130     130       0       0       0       0
   -------------------------------------------------------
    Total     130     130      22      22      22       0
   -------------------------------------------------------

  ==> Integral Setup <==

  Using integral reordering PK algorithm.
  Sizing the integral batches needed.
  Building batch lookup table.
   Calculation information:
      Number of atoms:                  17
      Number of AO shells:              66
      Number of primitives:            170
      Number of atomic orbitals:       135
      Number of basis functions:       130

      Integral cutoff                 1.00e-12
      Number of threads:                 1

	Batch   1 pq = [       0,    8515] index = [             0,36256870] size =     36256870
  Task number: 4
  Buffer size: 11059200
  Buffer per thread: 2
  We computed 2071687 shell quartets total.
  Whereas there are 2445366 unique shell quartets.

  ==> DiskJK: Disk-Based J/K Matrices <==

    J tasked:                  Yes
    K tasked:                  Yes
    wK tasked:                  No
    Memory [MiB]:              375
    Schwarz Cutoff:          1E-12

    OpenMP threads:              1

  Minimum eigenvalue in the overlap matrix is 6.2394184944E-03.
  Using Symmetric Orthogonalization.

  SCF Guess: Superposition of Atomic Densities via on-the-fly atomic UHF.

  ==> Iterations <==

                        Total Energy        Delta E     RMS |[F,P]|

   @RHF iter SAD:  -232.10783190459614   -2.32108e+02   0.00000e+00
   @RHF iter   1:  -233.14093365815015   -1.03310e+00   4.23078e-03 DIIS
   @RHF iter   2:  -233.29166008551135   -1.50726e-01   1.97463e-03 DIIS
   @RHF iter   3:  -233.32110877949324   -2.94487e-02   3.85207e-04 DIIS
   @RHF iter   4:  -233.32320408527193   -2.09531e-03   1.28289e-04 DIIS
   @RHF iter   5:  -233.32335395912060   -1.49874e-04   2.48310e-05 DIIS
   @RHF iter   6:  -233.32336253986597   -8.58075e-06   4.53285e-06 DIIS
   @RHF iter   7:  -233.32336294511657   -4.05251e-07   1.14034e-06 DIIS
   @RHF iter   8:  -233.32336297056412   -2.54475e-08   3.88839e-07 DIIS
   @RHF iter   9:  -233.32336297371890   -3.15478e-09   1.01651e-07 DIIS
   @RHF iter  10:  -233.32336297397782   -2.58922e-10   2.14698e-08 DIIS
   @RHF iter  11:  -233.32336297398797   -1.01466e-11   5.86768e-09 DIIS
   @RHF iter  12:  -233.32336297398834   -3.69482e-13   1.79909e-09 DIIS
   @RHF iter  13:  -233.32336297398896   -6.25278e-13   5.27253e-10 DIIS
   @RHF iter  14:  -233.32336297398945   -4.83169e-13   1.65179e-10 DIIS
   @RHF iter  15:  -233.32336297398953   -8.52651e-14   5.35377e-11 DIIS
  Energy and wave function converged.

  ==> Post-Iterations <==

    Orbital Energies [Eh]
    ---------------------

    Doubly Occupied:

       1A    -20.553532     2A    -11.275187     3A    -11.220619
       4A    -11.206513     5A    -11.202379     6A     -1.355246
       7A     -1.009155     8A     -1.008157     9A     -0.840472
      10A     -0.826260    11A     -0.693890    12A     -0.628592
      13A     -0.589935    14A     -0.585607    15A     -0.581298
      16A     -0.547127    17A     -0.522865    18A     -0.492183
      19A     -0.476637    20A     -0.474535    21A     -0.469277
      22A     -0.434651

    Virtual:

      23A      0.168716    24A      0.198120    25A      0.213923
      26A      0.228686    27A      0.248276    28A      0.256860
      29A      0.261663    30A      0.271960    31A      0.280742
      32A      0.312114    33A      0.315194    34A      0.328290
      35A      0.394561    36A      0.401728    37A      0.411744
      38A      0.592710    39A      0.605605    40A      0.612733
      41A      0.622543    42A      0.631475    43A      0.668206
      44A      0.685860    45A      0.701782    46A      0.747897
      47A      0.792139    48A      0.831705    49A      0.850281
      50A      0.858295    51A      0.882929    52A      0.887401
      53A      0.894201    54A      0.905655    55A      0.907366
      56A      0.914464    57A      0.920971    58A      0.935740
      59A      0.947869    60A      0.974722    61A      0.993197
      62A      1.132112    63A      1.137223    64A      1.141128
      65A      1.188722    66A      1.198366    67A      1.248478
      68A      1.284776    69A      1.347460    70A      1.376364
      71A      1.464971    72A      1.479669    73A      1.511685
      74A      1.542025    75A      1.567759    76A      1.616792
      77A      1.667074    78A      1.679341    79A      1.699380
      80A      1.723074    81A      1.746465    82A      1.840422
      83A      1.869088    84A      1.875558    85A      1.887905
      86A      1.891784    87A      1.920067    88A      1.941037
      89A      1.944877    90A      1.958512    91A      1.963301
      92A      1.973372    93A      1.977153    94A      1.989825
      95A      1.996271    96A      2.007033    97A      2.052130
      98A      2.067015    99A      2.102029   100A      2.142473
     101A      2.195219   102A      2.256762   103A      2.284077
     104A      2.318127   105A      2.331234   106A      2.357728
     107A      2.434574   108A      2.470298   109A      2.494758
     110A      2.521248   111A      2.535233   112A      2.555181
     113A      2.573054   114A      2.599217   115A      2.754937
     116A      2.771875   117A      2.783509   118A      2.796511
     119A      2.814108   120A      2.863777   121A      2.882976
     122A      2.890113   123A      2.917663   124A      2.973765
     125A      2.990958   126A      3.313835   127A      3.405137
     128A      3.469595   129A      3.646622   130A      4.088840

    Final Occupation by Irrep:
              A
    DOCC [    22 ]

  @RHF Final Energy:  -233.32336297398953

   => Energetics <=

    Nuclear Repulsion Energy =            182.2479377087306034
    One-Electron Energy =                -677.1543672025837850
    Two-Electron Energy =                 261.5830665198636780
    Total Energy =                       -233.3233629739895036

Computation Completed

Properties will be evaluated at   0.000000,   0.000000,   0.000000 [a0]

Properties computed using the SCF density matrix

  Nuclear Dipole Moment: [e a0]
     X:    -0.8743      Y:     1.3795      Z:     3.1493

  Electronic Dipole Moment: [e a0]
     X:     0.6005      Y:    -1.3794      Z:    -3.8721

  Dipole Moment: [e a0]
     X:    -0.2738      Y:     0.0001      Z:    -0.7228     Total:     0.7729

  Dipole Moment: [D]
     X:    -0.6958      Y:     0.0001      Z:    -1.8372     Total:     1.9645

*** tstop() called on ds3 at Mon Apr 27 14:02:58 2020
Module time:
	user time   =      12.31 seconds =       0.21 minutes
	system time =       4.59 seconds =       0.08 minutes
	total time  =         17 seconds =       0.28 minutes
Total time:
	user time   =      12.31 seconds =       0.21 minutes
	system time =       4.59 seconds =       0.08 minutes
	total time  =         17 seconds =       0.28 minutes
                                     G D M A

                                 by Anthony Stone

                           version 2.2.06, 22 June 2011

               Distributed Multipoles from Gaussian wavefunctions

Starting at 14:2:58 on 27 Apr 2020

Using SCF density matrix from file ./SSI/SSI-005ILE-054SER-1-dimer.test.8616.fchk

                         Distributed Multipole Analysis

Standard DMA

Positions and radii in angstrom
Multipole moments in atomic units, ea_0^k for rank k

C          x =  0.921879  y =  1.297172  z =  1.667902 angstrom
           Maximum rank =  0   Radius =  0.650 angstrom
                   Q00  =  -0.239011

C          x =  1.333879  y =  0.137172  z =  2.565902 angstrom
           Maximum rank =  0   Radius =  0.650 angstrom
                   Q00  =  -0.232639

H          x =  1.046879  y =  1.049172  z =  0.618902 angstrom
           Maximum rank =  0   Radius =  0.325 angstrom
                   Q00  =   0.092352

H          x = -0.119121  y =  1.542172  z =  1.858902 angstrom
           Maximum rank =  0   Radius =  0.325 angstrom
                   Q00  =   0.069391

H          x =  1.531879  y =  2.171172  z =  1.895902 angstrom
           Maximum rank =  0   Radius =  0.325 angstrom
                   Q00  =   0.068785

H          x =  0.660879  y = -0.699828  z =  2.379902 angstrom
           Maximum rank =  0   Radius =  0.325 angstrom
                   Q00  =   0.077601

H          x =  1.171879  y =  0.452172  z =  3.594902 angstrom
           Maximum rank =  0   Radius =  0.325 angstrom
                   Q00  =   0.067869

H          x =  2.370796  y = -0.202978  z =  2.427694 angstrom
           Maximum rank =  0   Radius =  0.325 angstrom
                   Q00  =   0.082162

C          x = -0.784121  y =  0.093172  z = -1.480098 angstrom
           Maximum rank =  0   Radius =  0.650 angstrom
                   Q00  =   0.132387

C          x = -1.962121  y = -0.867828  z = -1.394098 angstrom
           Maximum rank =  0   Radius =  0.650 angstrom
                   Q00  =  -0.257440

O          x =  0.426879  y = -0.587828  z = -1.232098 angstrom
           Maximum rank =  0   Radius =  0.650 angstrom
                   Q00  =  -0.605939

H          x = -0.760121  y =  0.569172  z = -2.457098 angstrom
           Maximum rank =  0   Radius =  0.325 angstrom
                   Q00  =   0.037340

H          x = -0.903121  y =  0.868172  z = -0.723098 angstrom
           Maximum rank =  0   Radius =  0.325 angstrom
                   Q00  =   0.069249

H          x = -1.893121  y = -1.574828  z = -2.219098 angstrom
           Maximum rank =  0   Radius =  0.325 angstrom
                   Q00  =   0.074525

H          x =  0.777879  y = -0.948828  z = -2.069098 angstrom
           Maximum rank =  0   Radius =  0.325 angstrom
                   Q00  =   0.388008

H          x = -2.906352  y = -0.311108  z = -1.486255 angstrom
           Maximum rank =  0   Radius =  0.325 angstrom
                   Q00  =   0.080497

H          x = -1.913121  y = -1.439978  z = -0.455886 angstrom
           Maximum rank =  0   Radius =  0.325 angstrom
                   Q00  =   0.094862

Total multipoles referred to origin at
           x =   0.000000,  y =    0.000000,  z =    0.000000 angstrom
                   Q00  =  -0.000000

Finished at 14:2:58 on 27 Apr 2020

  DMA results are available in the Python driver through the
	  variable('DMA DISTRIBUTED MULTIPOLES')
  and
	  variable('DMA TOTAL MULTIPOLES')
  commands.

    Psi4 stopped on: Monday, 27 April 2020 02:02PM
    Psi4 wall time for execution: 0:00:17.43

*** Psi4 exiting successfully. Buy a developer a beer!
