                               Psi4 1.3.2 release

  ==> Input File <==

--------------------------------------------------------------------------
import numpy as np
set {scf_type pk
basis cc-pvdz
d_convergence 10
gdma_switch   0
gdma_limit    0
gdma_origin   [ 0.0,  0.0,  0.0 ]
}
molecule test {
    units Angstrom
    0 1
    --
    0 1
    C               -3.227758731686314    -1.059736372902400     1.112230509955032
    C               -3.240758731686314    -1.698736372902400     2.488230509955032
    H               -2.404758731686314    -0.354736372902400     1.039230509955032
    H               -3.096758731686315    -1.826736372902400     0.350230509955032
    H               -4.169758731686314    -0.542736372902400     0.932230509955032
    H               -2.277758731686315    -2.173736372902400     2.666230509955032
    H               -3.425456831686315    -0.954196372902400     3.276610509955032
    H               -4.021916691686314    -2.471266372902400     2.542850509955032
    C                3.445241268313686     0.542263627097600    -0.032769490044968
    C               -0.756758731686314     0.385263627097600    -1.019769490044968
    C                0.021241268313686    -0.771736372902400    -1.077769490044968
    C               -0.172758731686314     1.589263627097600    -0.627769490044968
    C                1.382241268313686    -0.722736372902400    -0.749769490044968
    C                1.191241268313686     1.637263627097600    -0.315769490044968
    C                1.975241268313686     0.483263627097600    -0.364769490044968
    H               -1.803758731686314     0.343263627097600    -1.280769490044968
    H               -0.423758731686314    -1.715736372902400    -1.356769490044968
    H               -0.769758731686314     2.490263627097600    -0.580769490044968
    H                1.963241268313686    -1.632736372902400    -0.781769490044968
    H                1.636241268313686     2.579263627097600    -0.026769490044968
    H                3.623241268313686    -0.055736372902400     0.858230509955032
    H                3.726241268313685     1.572263627097600     0.197230509955032
    H                4.096165268313687     0.165903627097600    -0.835669490044968

}
e, wfn = energy('scf', return_wfn=True)
gdma(wfn)
dmavals = variable('DMA DISTRIBUTED MULTIPOLES')
charges = np.array(dmavals)
print(charges)
np.save('SSI-052LEU-152PHE-1-dimer.npy', np.array(charges))--------------------------------------------------------------------------

*** tstart() called on ds3
*** at Sun Apr 26 23:21:42 2020

   => Loading Basis Set <=

    Name: CC-PVDZ
    Role: ORBITAL
    Keyword: BASIS
    atoms 1-2, 9-15  entry C          line   138 file /theoryfs2/ds/metcalf/miniconda2/envs/tf2gpu/share/psi4/basis/cc-pvdz.gbs
    atoms 3-8, 16-23 entry H          line    22 file /theoryfs2/ds/metcalf/miniconda2/envs/tf2gpu/share/psi4/basis/cc-pvdz.gbs

         ---------------------------------------------------------
                                   SCF
               by Justin Turney, Rob Parrish, Andy Simmonett
                          and Daniel G. A. Smith
                              RHF Reference
                        1 Threads,    500 MiB Core
         ---------------------------------------------------------

  ==> Geometry <==

    Molecular point group: c1
    Full point group: C1

    Geometry (in Angstrom), charge = 0, multiplicity = 1:

       Center              X                  Y                   Z               Mass
    ------------   -----------------  -----------------  -----------------  -----------------
         C           -3.227758731686    -1.059736372902     1.112230509955    12.000000000000
         C           -3.240758731686    -1.698736372902     2.488230509955    12.000000000000
         H           -2.404758731686    -0.354736372902     1.039230509955     1.007825032230
         H           -3.096758731686    -1.826736372902     0.350230509955     1.007825032230
         H           -4.169758731686    -0.542736372902     0.932230509955     1.007825032230
         H           -2.277758731686    -2.173736372902     2.666230509955     1.007825032230
         H           -3.425456831686    -0.954196372902     3.276610509955     1.007825032230
         H           -4.021916691686    -2.471266372902     2.542850509955     1.007825032230
         C            3.445241268314     0.542263627098    -0.032769490045    12.000000000000
         C           -0.756758731686     0.385263627098    -1.019769490045    12.000000000000
         C            0.021241268314    -0.771736372902    -1.077769490045    12.000000000000
         C           -0.172758731686     1.589263627098    -0.627769490045    12.000000000000
         C            1.382241268314    -0.722736372902    -0.749769490045    12.000000000000
         C            1.191241268314     1.637263627098    -0.315769490045    12.000000000000
         C            1.975241268314     0.483263627098    -0.364769490045    12.000000000000
         H           -1.803758731686     0.343263627098    -1.280769490045     1.007825032230
         H           -0.423758731686    -1.715736372902    -1.356769490045     1.007825032230
         H           -0.769758731686     2.490263627098    -0.580769490045     1.007825032230
         H            1.963241268314    -1.632736372902    -0.781769490045     1.007825032230
         H            1.636241268314     2.579263627098    -0.026769490045     1.007825032230
         H            3.623241268314    -0.055736372902     0.858230509955     1.007825032230
         H            3.726241268314     1.572263627098     0.197230509955     1.007825032230
         H            4.096165268314     0.165903627098    -0.835669490045     1.007825032230

  Running in c1 symmetry.

  Rotational constants: A =      0.08697  B =      0.02051  C =      0.01951 [cm^-1]
  Rotational constants: A =   2607.32131  B =    614.78445  C =    584.83938 [MHz]
  Nuclear repulsion =  402.061706176594328

  Charge       = 0
  Multiplicity = 1
  Electrons    = 68
  Nalpha       = 34
  Nbeta        = 34

  ==> Algorithm <==

  SCF Algorithm Type is PK.
  DIIS enabled.
  MOM disabled.
  Fractional occupation disabled.
  Guess Type is SAD.
  Energy threshold   = 1.00e-06
  Density threshold  = 1.00e-10
  Integral threshold = 0.00e+00

  ==> Primary Basis <==

  Basis Set: CC-PVDZ
    Blend: CC-PVDZ
    Number of shells: 96
    Number of basis function: 196
    Number of Cartesian functions: 205
    Spherical Harmonics?: true
    Max angular momentum: 2

  ==> Pre-Iterations <==

   -------------------------------------------------------
    Irrep   Nso     Nmo     Nalpha   Nbeta   Ndocc  Nsocc
   -------------------------------------------------------
     A        196     196       0       0       0       0
   -------------------------------------------------------
    Total     196     196      34      34      34       0
   -------------------------------------------------------

  ==> Integral Setup <==

  Using integral reordering PK algorithm.
  Sizing the integral batches needed.
  Building batch lookup table.
   Calculation information:
      Number of atoms:                  23
      Number of AO shells:              96
      Number of primitives:            268
      Number of atomic orbitals:       205
      Number of basis functions:       196

      Integral cutoff                 1.00e-12
      Number of threads:                 1

	Batch   1 pq = [       0,    9405] index = [             0,44231715] size =     44231715
	Batch   2 pq = [    9405,   13301] index = [      44231715,88464951] size =     44233236
	Batch   3 pq = [   13301,   16290] index = [      88464951,132690195] size =     44225244
	Batch   4 pq = [   16290,   18810] index = [     132690195,176917455] size =     44227260
	Batch   5 pq = [   18810,   19306] index = [     176917455,186370471] size =      9453016
  Task number: 17
  Buffer size: 11059200
  Buffer per thread: 2
  We computed 8811534 shell quartets total.
  Whereas there are 10841496 unique shell quartets.

  ==> DiskJK: Disk-Based J/K Matrices <==

    J tasked:                  Yes
    K tasked:                  Yes
    wK tasked:                  No
    Memory [MiB]:              375
    Schwarz Cutoff:          1E-12

    OpenMP threads:              1

  Minimum eigenvalue in the overlap matrix is 3.2069259916E-04.
  Using Symmetric Orthogonalization.

  SCF Guess: Superposition of Atomic Densities via on-the-fly atomic UHF.

  ==> Iterations <==

                        Total Energy        Delta E     RMS |[F,P]|

   @RHF iter SAD:  -347.83328302206837   -3.47833e+02   0.00000e+00
   @RHF iter   1:  -348.76815233372974   -9.34869e-01   2.88939e-03 DIIS
   @RHF iter   2:  -348.96017505049485   -1.92023e-01   1.19712e-03 DIIS
   @RHF iter   3:  -348.99017959849067   -3.00045e-02   2.58511e-04 DIIS
   @RHF iter   4:  -348.99265608678672   -2.47649e-03   5.34924e-05 DIIS
   @RHF iter   5:  -348.99273067827949   -7.45915e-05   1.87063e-05 DIIS
   @RHF iter   6:  -348.99273921001475   -8.53174e-06   4.96631e-06 DIIS
   @RHF iter   7:  -348.99273994772290   -7.37708e-07   1.32766e-06 DIIS
   @RHF iter   8:  -348.99274002355099   -7.58281e-08   4.27691e-07 DIIS
   @RHF iter   9:  -348.99274004099470   -1.74437e-08   2.09295e-07 DIIS
   @RHF iter  10:  -348.99274004585834   -4.86364e-09   9.30304e-08 DIIS
   @RHF iter  11:  -348.99274004708849   -1.23015e-09   2.72635e-08 DIIS
   @RHF iter  12:  -348.99274004715403   -6.55405e-11   9.55655e-09 DIIS
   @RHF iter  13:  -348.99274004715875   -4.71800e-12   3.79222e-09 DIIS
   @RHF iter  14:  -348.99274004716176   -3.01270e-12   1.09889e-09 DIIS
   @RHF iter  15:  -348.99274004716091    8.52651e-13   5.71333e-10 DIIS
   @RHF iter  16:  -348.99274004715960    1.30740e-12   3.03577e-10 DIIS
   @RHF iter  17:  -348.99274004716153   -1.93268e-12   9.84050e-11 DIIS
  Energy and wave function converged.

  ==> Post-Iterations <==

    Orbital Energies [Eh]
    ---------------------

    Doubly Occupied:

       1A    -11.242142     2A    -11.236908     3A    -11.236767
       4A    -11.232134     5A    -11.232013     6A    -11.231816
       7A    -11.229904     8A    -11.214250     9A    -11.210261
      10A     -1.149754    11A     -1.043391    12A     -1.016882
      13A     -1.009092    14A     -0.931079    15A     -0.832734
      16A     -0.824149    17A     -0.794826    18A     -0.690021
      19A     -0.631393    20A     -0.629073    21A     -0.596241
      22A     -0.593847    23A     -0.581259    24A     -0.575252
      25A     -0.563570    26A     -0.535853    27A     -0.500578
      28A     -0.488135    29A     -0.485369    30A     -0.482551
      31A     -0.481040    32A     -0.474596    33A     -0.330672
      34A     -0.321129

    Virtual:

      35A      0.133204    36A      0.141703    37A      0.177885
      38A      0.191622    39A      0.204419    40A      0.214054
      41A      0.234382    42A      0.242333    43A      0.255447
      44A      0.265889    45A      0.268215    46A      0.275502
      47A      0.279611    48A      0.292932    49A      0.298518
      50A      0.313545    51A      0.362447    52A      0.374855
      53A      0.412305    54A      0.450178    55A      0.462445
      56A      0.471956    57A      0.500858    58A      0.562292
      59A      0.593026    60A      0.599544    61A      0.603691
      62A      0.624646    63A      0.628147    64A      0.654206
      65A      0.679638    66A      0.684070    67A      0.702179
      68A      0.711790    69A      0.724155    70A      0.738404
      71A      0.743024    72A      0.746164    73A      0.756083
      74A      0.757568    75A      0.787023    76A      0.824375
      77A      0.837936    78A      0.847202    79A      0.862257
      80A      0.872559    81A      0.883772    82A      0.891077
      83A      0.892978    84A      0.898024    85A      0.900832
      86A      0.902698    87A      0.909739    88A      0.923290
      89A      0.923683    90A      0.940979    91A      0.948470
      92A      0.960812    93A      0.993559    94A      1.001565
      95A      1.021787    96A      1.061466    97A      1.112258
      98A      1.130065    99A      1.135985   100A      1.151417
     101A      1.154378   102A      1.161268   103A      1.199639
     104A      1.224700   105A      1.235688   106A      1.242703
     107A      1.251514   108A      1.267429   109A      1.294585
     110A      1.304457   111A      1.313672   112A      1.328585
     113A      1.414104   114A      1.480163   115A      1.485825
     116A      1.507007   117A      1.534973   118A      1.553104
     119A      1.581131   120A      1.601784   121A      1.677589
     122A      1.684342   123A      1.689132   124A      1.701707
     125A      1.736135   126A      1.741972   127A      1.760049
     128A      1.789038   129A      1.813513   130A      1.848447
     131A      1.863768   132A      1.881203   133A      1.890482
     134A      1.898527   135A      1.901311   136A      1.915199
     137A      1.918018   138A      1.926926   139A      1.938475
     140A      1.947330   141A      1.950295   142A      1.958032
     143A      1.960298   144A      1.964789   145A      1.976876
     146A      1.987935   147A      2.004366   148A      2.014998
     149A      2.036727   150A      2.051429   151A      2.076882
     152A      2.097571   153A      2.109445   154A      2.120397
     155A      2.127246   156A      2.151272   157A      2.162176
     158A      2.170234   159A      2.197436   160A      2.246363
     161A      2.259058   162A      2.281300   163A      2.294464
     164A      2.312045   165A      2.323545   166A      2.338068
     167A      2.363284   168A      2.437668   169A      2.468075
     170A      2.470352   171A      2.471048   172A      2.510346
     173A      2.533278   174A      2.566776   175A      2.583057
     176A      2.631297   177A      2.721663   178A      2.748941
     179A      2.764206   180A      2.766626   181A      2.781328
     182A      2.803612   183A      2.812896   184A      2.846311
     185A      2.861551   186A      2.866423   187A      2.867501
     188A      2.958499   189A      2.961222   190A      2.982513
     191A      3.009343   192A      3.036145   193A      3.156999
     194A      3.195582   195A      3.288802   196A      3.952295

    Final Occupation by Irrep:
              A
    DOCC [    34 ]

  @RHF Final Energy:  -348.99274004716153

   => Energetics <=

    Nuclear Repulsion Energy =            402.0617061765943276
    One-Electron Energy =               -1266.8515282787070646
    Two-Electron Energy =                 515.7970820549512609
    Total Energy =                       -348.9927400471615329

Computation Completed

Properties will be evaluated at   0.000000,   0.000000,   0.000000 [a0]

Properties computed using the SCF density matrix

  Nuclear Dipole Moment: [e a0]
     X:    -6.8890      Y:    -4.2905      Z:     6.5626

  Electronic Dipole Moment: [e a0]
     X:     7.0627      Y:     4.3020      Z:    -6.5478

  Dipole Moment: [e a0]
     X:     0.1737      Y:     0.0115      Z:     0.0148     Total:     0.1747

  Dipole Moment: [D]
     X:     0.4414      Y:     0.0292      Z:     0.0376     Total:     0.4440

*** tstop() called on ds3 at Sun Apr 26 23:23:09 2020
Module time:
	user time   =      61.19 seconds =       1.02 minutes
	system time =      29.03 seconds =       0.48 minutes
	total time  =         87 seconds =       1.45 minutes
Total time:
	user time   =      61.19 seconds =       1.02 minutes
	system time =      29.03 seconds =       0.48 minutes
	total time  =         87 seconds =       1.45 minutes
                                     G D M A

                                 by Anthony Stone

                           version 2.2.06, 22 June 2011

               Distributed Multipoles from Gaussian wavefunctions

Starting at 23:23:9 on 26 Apr 2020

Using SCF density matrix from file ./SSI/SSI-052LEU-152PHE-1-dimer.test.29688.fchk

                         Distributed Multipole Analysis

Standard DMA

Positions and radii in angstrom
Multipole moments in atomic units, ea_0^k for rank k

C          x = -3.227759  y = -1.059736  z =  1.112231 angstrom
           Maximum rank =  0   Radius =  0.650 angstrom
                   Q00  =  -0.238293

C          x = -3.240759  y = -1.698736  z =  2.488231 angstrom
           Maximum rank =  0   Radius =  0.650 angstrom
                   Q00  =  -0.230671

H          x = -2.404759  y = -0.354736  z =  1.039231 angstrom
           Maximum rank =  0   Radius =  0.325 angstrom
                   Q00  =   0.092464

H          x = -3.096759  y = -1.826736  z =  0.350231 angstrom
           Maximum rank =  0   Radius =  0.325 angstrom
                   Q00  =   0.073055

H          x = -4.169759  y = -0.542736  z =  0.932231 angstrom
           Maximum rank =  0   Radius =  0.325 angstrom
                   Q00  =   0.073339

H          x = -2.277759  y = -2.173736  z =  2.666231 angstrom
           Maximum rank =  0   Radius =  0.325 angstrom
                   Q00  =   0.078672

H          x = -3.425457  y = -0.954196  z =  3.276611 angstrom
           Maximum rank =  0   Radius =  0.325 angstrom
                   Q00  =   0.078192

H          x = -4.021917  y = -2.471266  z =  2.542851 angstrom
           Maximum rank =  0   Radius =  0.325 angstrom
                   Q00  =   0.073055

C          x =  3.445241  y =  0.542264  z = -0.032769 angstrom
           Maximum rank =  0   Radius =  0.650 angstrom
                   Q00  =  -0.207034

C          x = -0.756759  y =  0.385264  z = -1.019769 angstrom
           Maximum rank =  0   Radius =  0.650 angstrom
                   Q00  =  -0.088285

C          x =  0.021241  y = -0.771736  z = -1.077769 angstrom
           Maximum rank =  0   Radius =  0.650 angstrom
                   Q00  =  -0.056073

C          x = -0.172759  y =  1.589264  z = -0.627769 angstrom
           Maximum rank =  0   Radius =  0.650 angstrom
                   Q00  =  -0.079536

C          x =  1.382241  y = -0.722736  z = -0.749769 angstrom
           Maximum rank =  0   Radius =  0.650 angstrom
                   Q00  =  -0.094255

C          x =  1.191241  y =  1.637264  z = -0.315769 angstrom
           Maximum rank =  0   Radius =  0.650 angstrom
                   Q00  =   0.002296

C          x =  1.975241  y =  0.483264  z = -0.364769 angstrom
           Maximum rank =  0   Radius =  0.650 angstrom
                   Q00  =  -0.094258

H          x = -1.803759  y =  0.343264  z = -1.280769 angstrom
           Maximum rank =  0   Radius =  0.325 angstrom
                   Q00  =   0.065766

H          x = -0.423759  y = -1.715736  z = -1.356769 angstrom
           Maximum rank =  0   Radius =  0.325 angstrom
                   Q00  =   0.065969

H          x = -0.769759  y =  2.490264  z = -0.580769 angstrom
           Maximum rank =  0   Radius =  0.325 angstrom
                   Q00  =   0.066616

H          x =  1.963241  y = -1.632736  z = -0.781769 angstrom
           Maximum rank =  0   Radius =  0.325 angstrom
                   Q00  =   0.056863

H          x =  1.636241  y =  2.579264  z = -0.026769 angstrom
           Maximum rank =  0   Radius =  0.325 angstrom
                   Q00  =   0.059848

H          x =  3.623241  y = -0.055736  z =  0.858231 angstrom
           Maximum rank =  0   Radius =  0.325 angstrom
                   Q00  =   0.102398

H          x =  3.726241  y =  1.572264  z =  0.197231 angstrom
           Maximum rank =  0   Radius =  0.325 angstrom
                   Q00  =   0.097131

H          x =  4.096165  y =  0.165904  z = -0.835669 angstrom
           Maximum rank =  0   Radius =  0.325 angstrom
                   Q00  =   0.102741

Total multipoles referred to origin at
           x =   0.000000,  y =    0.000000,  z =    0.000000 angstrom
                   Q00  =  -0.000000

Finished at 23:23:9 on 26 Apr 2020

  DMA results are available in the Python driver through the
	  variable('DMA DISTRIBUTED MULTIPOLES')
  and
	  variable('DMA TOTAL MULTIPOLES')
  commands.

    Psi4 stopped on: Sunday, 26 April 2020 11:23PM
    Psi4 wall time for execution: 0:01:27.34

*** Psi4 exiting successfully. Buy a developer a beer!
