                               Psi4 1.3.2 release

  ==> Input File <==

--------------------------------------------------------------------------
import numpy as np
set {scf_type pk
basis cc-pvdz
d_convergence 10
gdma_switch   0
gdma_limit    0
gdma_origin   [ 0.0,  0.0,  0.0 ]
}
molecule test {
    units Angstrom
    0 1
    --
    0 1
    C               -4.169455298033130     0.193476034339464    -0.041236967348204
    C               -1.881455298033130     1.234476034339464     0.310763032651796
    C               -3.115455298033130     1.226476034339464    -0.343236967348204
    C               -0.941455298033130     2.201476034339464     0.036763032651796
    C               -3.414455298033130     2.269476034339463    -1.211236967348204
    C               -1.213455298033130     3.203476034339463    -0.896236967348204
    C               -2.457455298033130     3.250476034339464    -1.499236967348204
    H               -1.558455298033130     0.452476034339464     0.960763032651797
    H                0.026544701966870     2.170476034339464     0.518763032651796
    H               -4.556455298033129    -0.143523965660536    -1.003236967348204
    H               -4.986455298033129     0.676476034339464     0.493763032651796
    H               -4.381455298033130     2.310476034339464    -1.695236967348204
    H               -0.467455298033130     3.953476034339463    -1.123236967348203
    H               -2.686455298033130     4.041476034339464    -2.201236967348204
    H               -3.810405298033130    -0.687304965660536     0.511313032651796
    C                3.933544701966871    -3.654523965660537    -0.403236967348204
    C                1.113544701966870    -1.083523965660536    -0.039236967348204
    C                1.954544701966870    -2.100523965660536    -0.601236967348204
    C                1.386544701966870    -0.576523965660536     1.253763032651796
    C                3.069544701966870    -2.561523965660537     0.116763032651796
    C                2.490544701966871    -1.078523965660537     1.953763032651797
    C                3.285544701966870    -2.077523965660537     1.418763032651796
    H                0.252544701966870    -0.724523965660536    -0.584236967348204
    H                1.731544701966871    -2.497523965660537    -1.582236967348204
    H                0.755544701966870     0.180476034339464     1.697763032651797
    H                2.704544701966870    -0.707523965660536     2.947763032651796
    H                3.438544701966870    -4.111523965660536    -1.261236967348204
    H                4.020544701966871    -4.427523965660537     0.360763032651796
    H                4.094544701966870    -2.473523965660537     2.006763032651796
    H                4.939054701966870    -3.330716965660537    -0.709996967348204

}
e, wfn = energy('scf', return_wfn=True)
gdma(wfn)
dmavals = variable('DMA DISTRIBUTED MULTIPOLES')
charges = np.array(dmavals)
print(charges)
np.save('SSI-026PHE-036PHE-1-dimer.npy', np.array(charges))--------------------------------------------------------------------------

*** tstart() called on ds3
*** at Mon Apr 27 06:52:06 2020

   => Loading Basis Set <=

    Name: CC-PVDZ
    Role: ORBITAL
    Keyword: BASIS
    atoms 1-7, 16-22  entry C          line   138 file /theoryfs2/ds/metcalf/miniconda2/envs/tf2gpu/share/psi4/basis/cc-pvdz.gbs
    atoms 8-15, 23-30 entry H          line    22 file /theoryfs2/ds/metcalf/miniconda2/envs/tf2gpu/share/psi4/basis/cc-pvdz.gbs

         ---------------------------------------------------------
                                   SCF
               by Justin Turney, Rob Parrish, Andy Simmonett
                          and Daniel G. A. Smith
                              RHF Reference
                        1 Threads,    500 MiB Core
         ---------------------------------------------------------

  ==> Geometry <==

    Molecular point group: c1
    Full point group: C1

    Geometry (in Angstrom), charge = 0, multiplicity = 1:

       Center              X                  Y                   Z               Mass
    ------------   -----------------  -----------------  -----------------  -----------------
         C           -4.169455298033     0.193476034339    -0.041236967348    12.000000000000
         C           -1.881455298033     1.234476034339     0.310763032652    12.000000000000
         C           -3.115455298033     1.226476034339    -0.343236967348    12.000000000000
         C           -0.941455298033     2.201476034339     0.036763032652    12.000000000000
         C           -3.414455298033     2.269476034339    -1.211236967348    12.000000000000
         C           -1.213455298033     3.203476034339    -0.896236967348    12.000000000000
         C           -2.457455298033     3.250476034339    -1.499236967348    12.000000000000
         H           -1.558455298033     0.452476034339     0.960763032652     1.007825032230
         H            0.026544701967     2.170476034339     0.518763032652     1.007825032230
         H           -4.556455298033    -0.143523965661    -1.003236967348     1.007825032230
         H           -4.986455298033     0.676476034339     0.493763032652     1.007825032230
         H           -4.381455298033     2.310476034339    -1.695236967348     1.007825032230
         H           -0.467455298033     3.953476034339    -1.123236967348     1.007825032230
         H           -2.686455298033     4.041476034339    -2.201236967348     1.007825032230
         H           -3.810405298033    -0.687304965661     0.511313032652     1.007825032230
         C            3.933544701967    -3.654523965661    -0.403236967348    12.000000000000
         C            1.113544701967    -1.083523965661    -0.039236967348    12.000000000000
         C            1.954544701967    -2.100523965661    -0.601236967348    12.000000000000
         C            1.386544701967    -0.576523965661     1.253763032652    12.000000000000
         C            3.069544701967    -2.561523965661     0.116763032652    12.000000000000
         C            2.490544701967    -1.078523965661     1.953763032652    12.000000000000
         C            3.285544701967    -2.077523965661     1.418763032652    12.000000000000
         H            0.252544701967    -0.724523965661    -0.584236967348     1.007825032230
         H            1.731544701967    -2.497523965661    -1.582236967348     1.007825032230
         H            0.755544701967     0.180476034339     1.697763032652     1.007825032230
         H            2.704544701967    -0.707523965661     2.947763032652     1.007825032230
         H            3.438544701967    -4.111523965661    -1.261236967348     1.007825032230
         H            4.020544701967    -4.427523965661     0.360763032652     1.007825032230
         H            4.094544701967    -2.473523965661     2.006763032652     1.007825032230
         H            4.939054701967    -3.330716965661    -0.709996967348     1.007825032230

  Running in c1 symmetry.

  Rotational constants: A =      0.04880  B =      0.00756  C =      0.00733 [cm^-1]
  Rotational constants: A =   1462.94800  B =    226.68552  C =    219.70690 [MHz]
  Nuclear repulsion =  749.620328282280298

  Charge       = 0
  Multiplicity = 1
  Electrons    = 100
  Nalpha       = 50
  Nbeta        = 50

  ==> Algorithm <==

  SCF Algorithm Type is PK.
  DIIS enabled.
  MOM disabled.
  Fractional occupation disabled.
  Guess Type is SAD.
  Energy threshold   = 1.00e-06
  Density threshold  = 1.00e-10
  Integral threshold = 0.00e+00

  ==> Primary Basis <==

  Basis Set: CC-PVDZ
    Blend: CC-PVDZ
    Number of shells: 132
    Number of basis function: 276
    Number of Cartesian functions: 290
    Spherical Harmonics?: true
    Max angular momentum: 2

  ==> Pre-Iterations <==

   -------------------------------------------------------
    Irrep   Nso     Nmo     Nalpha   Nbeta   Ndocc  Nsocc
   -------------------------------------------------------
     A        276     276       0       0       0       0
   -------------------------------------------------------
    Total     276     276      50      50      50       0
   -------------------------------------------------------

  ==> Integral Setup <==

  Using integral reordering PK algorithm.
  Sizing the integral batches needed.
  Building batch lookup table.
   Calculation information:
      Number of atoms:                  30
      Number of AO shells:             132
      Number of primitives:            388
      Number of atomic orbitals:       290
      Number of basis functions:       276

      Integral cutoff                 1.00e-12
      Number of threads:                 1

	Batch   1 pq = [       0,    9405] index = [             0,44231715] size =     44231715
	Batch   2 pq = [    9405,   13301] index = [      44231715,88464951] size =     44233236
	Batch   3 pq = [   13301,   16290] index = [      88464951,132690195] size =     44225244
	Batch   4 pq = [   16290,   18810] index = [     132690195,176917455] size =     44227260
	Batch   5 pq = [   18810,   21030] index = [     176917455,221140965] size =     44223510
	Batch   6 pq = [   21030,   23037] index = [     221140965,265363203] size =     44222238
	Batch   7 pq = [   23037,   24883] index = [     265363203,309594286] size =     44231083
	Batch   8 pq = [   24883,   26601] index = [     309594286,353819901] size =     44225615
	Batch   9 pq = [   26601,   28214] index = [     353819901,398029005] size =     44209104
	Batch  10 pq = [   28214,   29740] index = [     398029005,442248670] size =     44219665
	Batch  11 pq = [   29740,   31191] index = [     442248670,486454836] size =     44206166
	Batch  12 pq = [   31191,   32578] index = [     486454836,530679331] size =     44224495
	Batch  13 pq = [   32578,   33908] index = [     530679331,574893186] size =     44213855
	Batch  14 pq = [   33908,   35188] index = [     574893186,619115266] size =     44222080
	Batch  15 pq = [   35188,   36423] index = [     619115266,663335676] size =     44220410
	Batch  16 pq = [   36423,   37617] index = [     663335676,707538153] size =     44202477
	Batch  17 pq = [   37617,   38226] index = [     707538153,730632651] size =     23094498
  Task number: 67
  Buffer size: 11059200
  Buffer per thread: 2
  We computed 30908203 shell quartets total.
  Whereas there are 38531031 unique shell quartets.

  ==> DiskJK: Disk-Based J/K Matrices <==

    J tasked:                  Yes
    K tasked:                  Yes
    wK tasked:                  No
    Memory [MiB]:              375
    Schwarz Cutoff:          1E-12

    OpenMP threads:              1

  Minimum eigenvalue in the overlap matrix is 3.1028212297E-04.
  Using Symmetric Orthogonalization.

  SCF Guess: Superposition of Atomic Densities via on-the-fly atomic UHF.

  ==> Iterations <==

                        Total Energy        Delta E     RMS |[F,P]|

   @RHF iter SAD:  -538.30817410698648   -5.38308e+02   0.00000e+00
   @RHF iter   1:  -539.22387303088112   -9.15699e-01   2.28845e-03 DIIS
   @RHF iter   2:  -539.47402477494620   -2.50152e-01   9.25632e-04 DIIS
   @RHF iter   3:  -539.50998747967105   -3.59627e-02   2.16629e-04 DIIS
   @RHF iter   4:  -539.51314151880274   -3.15404e-03   5.47992e-05 DIIS
   @RHF iter   5:  -539.51328616338799   -1.44645e-04   1.67996e-05 DIIS
   @RHF iter   6:  -539.51330009207277   -1.39287e-05   4.59583e-06 DIIS
   @RHF iter   7:  -539.51330150385547   -1.41178e-06   1.28727e-06 DIIS
   @RHF iter   8:  -539.51330170639335   -2.02538e-07   5.16547e-07 DIIS
   @RHF iter   9:  -539.51330176437693   -5.79836e-08   2.64726e-07 DIIS
   @RHF iter  10:  -539.51330177928389   -1.49070e-08   1.18578e-07 DIIS
   @RHF iter  11:  -539.51330178306841   -3.78452e-09   3.42549e-08 DIIS
   @RHF iter  12:  -539.51330178329260   -2.24190e-10   1.27234e-08 DIIS
   @RHF iter  13:  -539.51330178331000   -1.73941e-11   4.57562e-09 DIIS
   @RHF iter  14:  -539.51330178330397    6.02540e-12   1.47590e-09 DIIS
   @RHF iter  15:  -539.51330178330659   -2.61480e-12   6.93746e-10 DIIS
   @RHF iter  16:  -539.51330178331364   -7.04858e-12   3.43050e-10 DIIS
   @RHF iter  17:  -539.51330178330704    6.59384e-12   1.58752e-10 DIIS
   @RHF iter  18:  -539.51330178331375   -6.70752e-12   4.83682e-11 DIIS
  Energy and wave function converged.

  ==> Post-Iterations <==

    Orbital Energies [Eh]
    ---------------------

    Doubly Occupied:

       1A    -11.242840     2A    -11.242429     3A    -11.242100
       4A    -11.236590     5A    -11.236480     6A    -11.235929
       7A    -11.235368     8A    -11.232743     9A    -11.230794
      10A    -11.229904    11A    -11.229502    12A    -11.229390
      13A    -11.228266    14A    -11.227157    15A     -1.154464
      16A     -1.144920    17A     -1.044978    18A     -1.044016
      19A     -1.013875    20A     -1.004666    21A     -0.932105
      22A     -0.930024    23A     -0.823775    24A     -0.822449
      25A     -0.798084    26A     -0.792180    27A     -0.694351
      28A     -0.685668    29A     -0.633567    30A     -0.632359
      31A     -0.629298    32A     -0.626697    33A     -0.585294
      34A     -0.578657    35A     -0.577716    36A     -0.577543
      37A     -0.563766    38A     -0.562778    39A     -0.537004
      40A     -0.532363    41A     -0.489298    42A     -0.485561
      43A     -0.484265    44A     -0.481808    45A     -0.480564
      46A     -0.478945    47A     -0.333499    48A     -0.327867
      49A     -0.321656    50A     -0.318824

    Virtual:

      51A      0.129855    52A      0.134946    53A      0.139365
      54A      0.142431    55A      0.181209    56A      0.190660
      57A      0.201400    58A      0.208117    59A      0.220500
      60A      0.229106    61A      0.239312    62A      0.251850
      63A      0.260822    64A      0.264153    65A      0.265892
      66A      0.274120    67A      0.277197    68A      0.288624
      69A      0.297997    70A      0.338257    71A      0.360782
      72A      0.368084    73A      0.377265    74A      0.384870
      75A      0.440399    76A      0.454607    77A      0.458398
      78A      0.465679    79A      0.471428    80A      0.479114
      81A      0.497656    82A      0.514673    83A      0.553918
      84A      0.578355    85A      0.598398    86A      0.620589
      87A      0.625145    88A      0.632096    89A      0.666173
      90A      0.672277    91A      0.689693    92A      0.697127
      93A      0.700497    94A      0.706959    95A      0.715358
      96A      0.718797    97A      0.732956    98A      0.734563
      99A      0.739576   100A      0.742067   101A      0.743536
     102A      0.749615   103A      0.750786   104A      0.762690
     105A      0.766029   106A      0.771564   107A      0.776757
     108A      0.792260   109A      0.800784   110A      0.814919
     111A      0.821833   112A      0.841867   113A      0.851406
     114A      0.861218   115A      0.867121   116A      0.873073
     117A      0.882174   118A      0.883142   119A      0.885869
     120A      0.890838   121A      0.898074   122A      0.908909
     123A      0.919530   124A      0.925208   125A      0.927963
     126A      0.933503   127A      0.940496   128A      0.941566
     129A      0.950191   130A      0.958128   131A      0.984013
     132A      1.004716   133A      1.015168   134A      1.017797
     135A      1.036790   136A      1.052980   137A      1.100665
     138A      1.124435   139A      1.134167   140A      1.141378
     141A      1.150965   142A      1.164599   143A      1.171758
     144A      1.185997   145A      1.199405   146A      1.200436
     147A      1.214549   148A      1.233564   149A      1.236830
     150A      1.248228   151A      1.252728   152A      1.258793
     153A      1.272241   154A      1.282452   155A      1.298143
     156A      1.303000   157A      1.309033   158A      1.312196
     159A      1.318264   160A      1.323863   161A      1.330804
     162A      1.349584   163A      1.418202   164A      1.421711
     165A      1.509237   166A      1.515622   167A      1.523882
     168A      1.537483   169A      1.547945   170A      1.574779
     171A      1.602282   172A      1.618813   173A      1.667030
     174A      1.683375   175A      1.687987   176A      1.692869
     177A      1.728054   178A      1.738645   179A      1.743239
     180A      1.750626   181A      1.753358   182A      1.761860
     183A      1.787304   184A      1.789193   185A      1.807281
     186A      1.812904   187A      1.845642   188A      1.856327
     189A      1.868407   190A      1.881346   191A      1.888921
     192A      1.895415   193A      1.901224   194A      1.907641
     195A      1.913989   196A      1.917320   197A      1.920745
     198A      1.925462   199A      1.936705   200A      1.950693
     201A      1.958550   202A      1.960071   203A      1.965718
     204A      1.969309   205A      1.977129   206A      1.989369
     207A      2.006103   208A      2.010528   209A      2.023414
     210A      2.031945   211A      2.035283   212A      2.059667
     213A      2.066284   214A      2.083151   215A      2.100127
     216A      2.114229   217A      2.125219   218A      2.136237
     219A      2.156040   220A      2.157981   221A      2.168465
     222A      2.173464   223A      2.183465   224A      2.187390
     225A      2.201139   226A      2.236202   227A      2.240278
     228A      2.252695   229A      2.266156   230A      2.280047
     231A      2.282059   232A      2.292535   233A      2.301917
     234A      2.304358   235A      2.322284   236A      2.325289
     237A      2.350295   238A      2.382624   239A      2.440745
     240A      2.456371   241A      2.477590   242A      2.491104
     243A      2.511792   244A      2.513737   245A      2.524448
     246A      2.529394   247A      2.624791   248A      2.637920
     249A      2.727261   250A      2.733983   251A      2.741255
     252A      2.745611   253A      2.768775   254A      2.771793
     255A      2.783113   256A      2.795359   257A      2.808167
     258A      2.833590   259A      2.842907   260A      2.852010
     261A      2.855997   262A      2.872342   263A      2.956551
     264A      2.988028   265A      2.991050   266A      3.002426
     267A      3.005368   268A      3.039512   269A      3.140621
     270A      3.163569   271A      3.180623   272A      3.218945
     273A      3.277490   274A      3.305936   275A      3.917371
     276A      3.968962

    Final Occupation by Irrep:
              A
    DOCC [    50 ]

  @RHF Final Energy:  -539.51330178331375

   => Energetics <=

    Nuclear Repulsion Energy =            749.6203282822802976
    One-Electron Energy =               -2215.4585011078715979
    Two-Electron Energy =                 926.3248710422775503
    Total Energy =                       -539.5133017833137501

Computation Completed

Properties will be evaluated at   0.000000,   0.000000,   0.000000 [a0]

Properties computed using the SCF density matrix

  Nuclear Dipole Moment: [e a0]
     X:    -0.4535      Y:    -4.9858      Z:    -0.6215

  Electronic Dipole Moment: [e a0]
     X:     0.4151      Y:     4.7801      Z:     0.5695

  Dipole Moment: [e a0]
     X:    -0.0383      Y:    -0.2057      Z:    -0.0520     Total:     0.2157

  Dipole Moment: [D]
     X:    -0.0974      Y:    -0.5229      Z:    -0.1323     Total:     0.5481

*** tstop() called on ds3 at Mon Apr 27 06:58:43 2020
Module time:
	user time   =     263.74 seconds =       4.40 minutes
	system time =     115.53 seconds =       1.93 minutes
	total time  =        397 seconds =       6.62 minutes
Total time:
	user time   =     263.74 seconds =       4.40 minutes
	system time =     115.53 seconds =       1.93 minutes
	total time  =        397 seconds =       6.62 minutes
                                     G D M A

                                 by Anthony Stone

                           version 2.2.06, 22 June 2011

               Distributed Multipoles from Gaussian wavefunctions

Starting at 6:58:43 on 27 Apr 2020

Using SCF density matrix from file ./SSI/SSI-026PHE-036PHE-1-dimer.test.5648.fchk

                         Distributed Multipole Analysis

Standard DMA

Positions and radii in angstrom
Multipole moments in atomic units, ea_0^k for rank k

C          x = -4.169455  y =  0.193476  z = -0.041237 angstrom
           Maximum rank =  0   Radius =  0.650 angstrom
                   Q00  =  -0.206213

C          x = -1.881455  y =  1.234476  z =  0.310763 angstrom
           Maximum rank =  0   Radius =  0.650 angstrom
                   Q00  =  -0.016307

C          x = -3.115455  y =  1.226476  z = -0.343237 angstrom
           Maximum rank =  0   Radius =  0.650 angstrom
                   Q00  =  -0.082358

C          x = -0.941455  y =  2.201476  z =  0.036763 angstrom
           Maximum rank =  0   Radius =  0.650 angstrom
                   Q00  =  -0.045625

C          x = -3.414455  y =  2.269476  z = -1.211237 angstrom
           Maximum rank =  0   Radius =  0.650 angstrom
                   Q00  =  -0.100630

C          x = -1.213455  y =  3.203476  z = -0.896237 angstrom
           Maximum rank =  0   Radius =  0.650 angstrom
                   Q00  =  -0.078279

C          x = -2.457455  y =  3.250476  z = -1.499237 angstrom
           Maximum rank =  0   Radius =  0.650 angstrom
                   Q00  =  -0.074279

H          x = -1.558455  y =  0.452476  z =  0.960763 angstrom
           Maximum rank =  0   Radius =  0.325 angstrom
                   Q00  =   0.052230

H          x =  0.026545  y =  2.170476  z =  0.518763 angstrom
           Maximum rank =  0   Radius =  0.325 angstrom
                   Q00  =   0.063062

H          x = -4.556455  y = -0.143524  z = -1.003237 angstrom
           Maximum rank =  0   Radius =  0.325 angstrom
                   Q00  =   0.096626

H          x = -4.986455  y =  0.676476  z =  0.493763 angstrom
           Maximum rank =  0   Radius =  0.325 angstrom
                   Q00  =   0.104871

H          x = -4.381455  y =  2.310476  z = -1.695237 angstrom
           Maximum rank =  0   Radius =  0.325 angstrom
                   Q00  =   0.055921

H          x = -0.467455  y =  3.953476  z = -1.123237 angstrom
           Maximum rank =  0   Radius =  0.325 angstrom
                   Q00  =   0.062086

H          x = -2.686455  y =  4.041476  z = -2.201237 angstrom
           Maximum rank =  0   Radius =  0.325 angstrom
                   Q00  =   0.064719

H          x = -3.810405  y = -0.687305  z =  0.511313 angstrom
           Maximum rank =  0   Radius =  0.325 angstrom
                   Q00  =   0.103598

C          x =  3.933545  y = -3.654524  z = -0.403237 angstrom
           Maximum rank =  0   Radius =  0.650 angstrom
                   Q00  =  -0.204512

C          x =  1.113545  y = -1.083524  z = -0.039237 angstrom
           Maximum rank =  0   Radius =  0.650 angstrom
                   Q00  =  -0.083831

C          x =  1.954545  y = -2.100524  z = -0.601237 angstrom
           Maximum rank =  0   Radius =  0.650 angstrom
                   Q00  =  -0.096251

C          x =  1.386545  y = -0.576524  z =  1.253763 angstrom
           Maximum rank =  0   Radius =  0.650 angstrom
                   Q00  =  -0.109347

C          x =  3.069545  y = -2.561524  z =  0.116763 angstrom
           Maximum rank =  0   Radius =  0.650 angstrom
                   Q00  =  -0.085669

C          x =  2.490545  y = -1.078524  z =  1.953763 angstrom
           Maximum rank =  0   Radius =  0.650 angstrom
                   Q00  =  -0.025046

C          x =  3.285545  y = -2.077524  z =  1.418763 angstrom
           Maximum rank =  0   Radius =  0.650 angstrom
                   Q00  =  -0.020765

H          x =  0.252545  y = -0.724524  z = -0.584237 angstrom
           Maximum rank =  0   Radius =  0.325 angstrom
                   Q00  =   0.080687

H          x =  1.731545  y = -2.497524  z = -1.582237 angstrom
           Maximum rank =  0   Radius =  0.325 angstrom
                   Q00  =   0.066123

H          x =  0.755545  y =  0.180476  z =  1.697763 angstrom
           Maximum rank =  0   Radius =  0.325 angstrom
                   Q00  =   0.062090

H          x =  2.704545  y = -0.707524  z =  2.947763 angstrom
           Maximum rank =  0   Radius =  0.325 angstrom
                   Q00  =   0.063679

H          x =  3.438545  y = -4.111524  z = -1.261237 angstrom
           Maximum rank =  0   Radius =  0.325 angstrom
                   Q00  =   0.095326

H          x =  4.020545  y = -4.427524  z =  0.360763 angstrom
           Maximum rank =  0   Radius =  0.325 angstrom
                   Q00  =   0.098154

H          x =  4.094545  y = -2.473524  z =  2.006763 angstrom
           Maximum rank =  0   Radius =  0.325 angstrom
                   Q00  =   0.055475

H          x =  4.939055  y = -3.330717  z = -0.709997 angstrom
           Maximum rank =  0   Radius =  0.325 angstrom
                   Q00  =   0.104466

Total multipoles referred to origin at
           x =   0.000000,  y =    0.000000,  z =    0.000000 angstrom
                   Q00  =  -0.000000

Finished at 6:58:43 on 27 Apr 2020

  DMA results are available in the Python driver through the
	  variable('DMA DISTRIBUTED MULTIPOLES')
  and
	  variable('DMA TOTAL MULTIPOLES')
  commands.

    Psi4 stopped on: Monday, 27 April 2020 06:58AM
    Psi4 wall time for execution: 0:06:36.92

*** Psi4 exiting successfully. Buy a developer a beer!
