                               Psi4 1.3.2 release

  ==> Input File <==

--------------------------------------------------------------------------
import numpy as np
set {scf_type pk
basis cc-pvdz
d_convergence 10
gdma_switch   0
gdma_limit    0
gdma_origin   [ 0.0,  0.0,  0.0 ]
}
molecule test {
    units Angstrom
    0 1
    --
    0 1
    C                3.220244651669084     0.850922126834594    -2.071522352170544
    C               -0.508755348330916    -0.024077873165406    -0.129522352170544
    C               -0.029755348330916     1.273922126834594    -0.173522352170544
    C                0.228244651669084    -1.056077873165406    -0.711522352170544
    C                1.154244651669084     1.559922126834594    -0.827522352170544
    C                1.429244651669084    -0.770077873165406    -1.361522352170544
    C                1.901244651669084     0.543922126834594    -1.420522352170543
    H               -1.447755348330916    -0.233077873165406     0.362477647829456
    H               -0.591755348330916     2.070922126834594     0.285477647829456
    H               -0.130755348330916    -2.072077873165406    -0.645522352170544
    H                1.494244651669084     2.583922126834594    -0.876522352170544
    H                1.998244651669084    -1.571077873165406    -1.811522352170544
    H                3.237244651669084     1.905922126834594    -2.346522352170544
    H                3.305244651669084     0.281922126834594    -2.996522352170544
    H                4.084034651669084     0.632102126834594    -1.426552352170543
    C               -2.596755348330916    -1.183077873165406     2.893477647829456
    C               -4.110755348330916    -0.958077873165406     3.091477647829457
    H               -2.193755348330916    -1.818077873165406     3.682477647829456
    H               -2.423755348330916    -1.670077873165406     1.932477647829456
    H               -2.073755348330916    -0.227077873165406     2.908477647829456
    H               -4.483755348330916    -0.329077873165406     2.282477647829456
    H               -4.302635348330917    -0.465547873165406     4.056147647829456
    H               -4.653485348330916    -1.914177873165406     3.055347647829457

}
e, wfn = energy('scf', return_wfn=True)
gdma(wfn)
dmavals = variable('DMA DISTRIBUTED MULTIPOLES')
charges = np.array(dmavals)
print(charges)
np.save('SSI-031PHE-076ALA-1-dimer.npy', np.array(charges))--------------------------------------------------------------------------

*** tstart() called on ds3
*** at Tue Apr 28 13:58:19 2020

   => Loading Basis Set <=

    Name: CC-PVDZ
    Role: ORBITAL
    Keyword: BASIS
    atoms 1-7, 16-17  entry C          line   138 file /theoryfs2/ds/metcalf/miniconda2/envs/tf2gpu/share/psi4/basis/cc-pvdz.gbs
    atoms 8-15, 18-23 entry H          line    22 file /theoryfs2/ds/metcalf/miniconda2/envs/tf2gpu/share/psi4/basis/cc-pvdz.gbs

         ---------------------------------------------------------
                                   SCF
               by Justin Turney, Rob Parrish, Andy Simmonett
                          and Daniel G. A. Smith
                              RHF Reference
                        1 Threads,    500 MiB Core
         ---------------------------------------------------------

  ==> Geometry <==

    Molecular point group: c1
    Full point group: C1

    Geometry (in Angstrom), charge = 0, multiplicity = 1:

       Center              X                  Y                   Z               Mass
    ------------   -----------------  -----------------  -----------------  -----------------
         C            3.220244651669     0.850922126835    -2.071522352171    12.000000000000
         C           -0.508755348331    -0.024077873165    -0.129522352171    12.000000000000
         C           -0.029755348331     1.273922126835    -0.173522352171    12.000000000000
         C            0.228244651669    -1.056077873165    -0.711522352171    12.000000000000
         C            1.154244651669     1.559922126835    -0.827522352171    12.000000000000
         C            1.429244651669    -0.770077873165    -1.361522352171    12.000000000000
         C            1.901244651669     0.543922126835    -1.420522352171    12.000000000000
         H           -1.447755348331    -0.233077873165     0.362477647829     1.007825032230
         H           -0.591755348331     2.070922126835     0.285477647829     1.007825032230
         H           -0.130755348331    -2.072077873165    -0.645522352171     1.007825032230
         H            1.494244651669     2.583922126835    -0.876522352171     1.007825032230
         H            1.998244651669    -1.571077873165    -1.811522352171     1.007825032230
         H            3.237244651669     1.905922126835    -2.346522352171     1.007825032230
         H            3.305244651669     0.281922126835    -2.996522352171     1.007825032230
         H            4.084034651669     0.632102126835    -1.426552352171     1.007825032230
         C           -2.596755348331    -1.183077873165     2.893477647829    12.000000000000
         C           -4.110755348331    -0.958077873165     3.091477647829    12.000000000000
         H           -2.193755348331    -1.818077873165     3.682477647829     1.007825032230
         H           -2.423755348331    -1.670077873165     1.932477647829     1.007825032230
         H           -2.073755348331    -0.227077873165     2.908477647829     1.007825032230
         H           -4.483755348331    -0.329077873165     2.282477647829     1.007825032230
         H           -4.302635348331    -0.465547873165     4.056147647829     1.007825032230
         H           -4.653485348331    -1.914177873165     3.055347647829     1.007825032230

  Running in c1 symmetry.

  Rotational constants: A =      0.14830  B =      0.01572  C =      0.01469 [cm^-1]
  Rotational constants: A =   4445.82569  B =    471.18927  C =    440.48676 [MHz]
  Nuclear repulsion =  392.935416249345167

  Charge       = 0
  Multiplicity = 1
  Electrons    = 68
  Nalpha       = 34
  Nbeta        = 34

  ==> Algorithm <==

  SCF Algorithm Type is PK.
  DIIS enabled.
  MOM disabled.
  Fractional occupation disabled.
  Guess Type is SAD.
  Energy threshold   = 1.00e-06
  Density threshold  = 1.00e-10
  Integral threshold = 0.00e+00

  ==> Primary Basis <==

  Basis Set: CC-PVDZ
    Blend: CC-PVDZ
    Number of shells: 96
    Number of basis function: 196
    Number of Cartesian functions: 205
    Spherical Harmonics?: true
    Max angular momentum: 2

  ==> Pre-Iterations <==

   -------------------------------------------------------
    Irrep   Nso     Nmo     Nalpha   Nbeta   Ndocc  Nsocc
   -------------------------------------------------------
     A        196     196       0       0       0       0
   -------------------------------------------------------
    Total     196     196      34      34      34       0
   -------------------------------------------------------

  ==> Integral Setup <==

  Using integral reordering PK algorithm.
  Sizing the integral batches needed.
  Building batch lookup table.
   Calculation information:
      Number of atoms:                  23
      Number of AO shells:              96
      Number of primitives:            268
      Number of atomic orbitals:       205
      Number of basis functions:       196

      Integral cutoff                 1.00e-12
      Number of threads:                 1

	Batch   1 pq = [       0,    9405] index = [             0,44231715] size =     44231715
	Batch   2 pq = [    9405,   13301] index = [      44231715,88464951] size =     44233236
	Batch   3 pq = [   13301,   16290] index = [      88464951,132690195] size =     44225244
	Batch   4 pq = [   16290,   18810] index = [     132690195,176917455] size =     44227260
	Batch   5 pq = [   18810,   19306] index = [     176917455,186370471] size =      9453016
  Task number: 17
  Buffer size: 11059200
  Buffer per thread: 2
  We computed 7809545 shell quartets total.
  Whereas there are 10841496 unique shell quartets.

  ==> DiskJK: Disk-Based J/K Matrices <==

    J tasked:                  Yes
    K tasked:                  Yes
    wK tasked:                  No
    Memory [MiB]:              375
    Schwarz Cutoff:          1E-12

    OpenMP threads:              1

  Minimum eigenvalue in the overlap matrix is 3.0461164916E-04.
  Using Symmetric Orthogonalization.

  SCF Guess: Superposition of Atomic Densities via on-the-fly atomic UHF.

  ==> Iterations <==

                        Total Energy        Delta E     RMS |[F,P]|

   @RHF iter SAD:  -347.85951708468559   -3.47860e+02   0.00000e+00
   @RHF iter   1:  -348.76893606263292   -9.09419e-01   2.88645e-03 DIIS
   @RHF iter   2:  -348.96108297865874   -1.92147e-01   1.19297e-03 DIIS
   @RHF iter   3:  -348.99090553371803   -2.98226e-02   2.58212e-04 DIIS
   @RHF iter   4:  -348.99337442107731   -2.46889e-03   5.43346e-05 DIIS
   @RHF iter   5:  -348.99345088205007   -7.64610e-05   1.84631e-05 DIIS
   @RHF iter   6:  -348.99345918423137   -8.30218e-06   4.85757e-06 DIIS
   @RHF iter   7:  -348.99345985440743   -6.70176e-07   1.21834e-06 DIIS
   @RHF iter   8:  -348.99345990328317   -4.88757e-08   3.00298e-07 DIIS
   @RHF iter   9:  -348.99345990899189   -5.70873e-09   1.33883e-07 DIIS
   @RHF iter  10:  -348.99345991022597   -1.23407e-09   6.31047e-08 DIIS
   @RHF iter  11:  -348.99345991068333   -4.57362e-10   2.65337e-08 DIIS
   @RHF iter  12:  -348.99345991075916   -7.58291e-11   1.29032e-08 DIIS
   @RHF iter  13:  -348.99345991077365   -1.44951e-11   3.97778e-09 DIIS
   @RHF iter  14:  -348.99345991077416   -5.11591e-13   1.10542e-09 DIIS
   @RHF iter  15:  -348.99345991077661   -2.44427e-12   4.16936e-10 DIIS
   @RHF iter  16:  -348.99345991077553    1.08002e-12   1.64321e-10 DIIS
   @RHF iter  17:  -348.99345991077502    5.11591e-13   6.82286e-11 DIIS
  Energy and wave function converged.

  ==> Post-Iterations <==

    Orbital Energies [Eh]
    ---------------------

    Doubly Occupied:

       1A    -11.239583     2A    -11.235162     3A    -11.231595
       4A    -11.230354     5A    -11.228538     6A    -11.228208
       7A    -11.227897     8A    -11.221741     9A    -11.219524
      10A     -1.152292    11A     -1.043676    12A     -1.015770
      13A     -1.011721    14A     -0.930346    15A     -0.839683
      16A     -0.823726    17A     -0.794905    18A     -0.690665
      19A     -0.630940    20A     -0.629122    21A     -0.598454
      22A     -0.596575    23A     -0.582544    24A     -0.576925
      25A     -0.561212    26A     -0.533440    27A     -0.499019
      28A     -0.490669    29A     -0.488417    30A     -0.485557
      31A     -0.483073    32A     -0.479434    33A     -0.332125
      34A     -0.320284

    Virtual:

      35A      0.137552    36A      0.141332    37A      0.171656
      38A      0.191826    39A      0.207139    40A      0.211806
      41A      0.236587    42A      0.239558    43A      0.245237
      44A      0.260181    45A      0.265910    46A      0.274440
      47A      0.281776    48A      0.293498    49A      0.305704
      50A      0.332843    51A      0.366801    52A      0.379509
      53A      0.390224    54A      0.461007    55A      0.465393
      56A      0.481543    57A      0.496018    58A      0.569074
      59A      0.592900    60A      0.596094    61A      0.601147
      62A      0.613068    63A      0.637033    64A      0.678167
      65A      0.686243    66A      0.688384    67A      0.692383
      68A      0.713991    69A      0.731936    70A      0.739102
      71A      0.743122    72A      0.746832    73A      0.754504
      74A      0.766273    75A      0.778365    76A      0.804473
      77A      0.832038    78A      0.836623    79A      0.861009
      80A      0.863582    81A      0.877548    82A      0.886614
      83A      0.891063    84A      0.893012    85A      0.896833
      86A      0.898807    87A      0.914351    88A      0.922512
      89A      0.926056    90A      0.932296    91A      0.940367
      92A      0.949246    93A      0.972724    94A      1.010727
      95A      1.032551    96A      1.052402    97A      1.120544
      98A      1.127589    99A      1.136971   100A      1.154550
     101A      1.159631   102A      1.174861   103A      1.202308
     104A      1.232333   105A      1.243201   106A      1.248770
     107A      1.253143   108A      1.261041   109A      1.298132
     110A      1.313034   111A      1.321166   112A      1.330539
     113A      1.413800   114A      1.467884   115A      1.474656
     116A      1.508934   117A      1.523531   118A      1.557718
     119A      1.584146   120A      1.606922   121A      1.674681
     122A      1.682067   123A      1.693674   124A      1.702684
     125A      1.738796   126A      1.744545   127A      1.760703
     128A      1.790162   129A      1.812936   130A      1.860877
     131A      1.863995   132A      1.877112   133A      1.881095
     134A      1.888001   135A      1.900369   136A      1.910613
     137A      1.917912   138A      1.929730   139A      1.937750
     140A      1.938452   141A      1.942268   142A      1.946499
     143A      1.955110   144A      1.959977   145A      1.972047
     146A      1.979344   147A      1.993372   148A      2.002298
     149A      2.044462   150A      2.061619   151A      2.075453
     152A      2.095659   153A      2.100426   154A      2.115369
     155A      2.140883   156A      2.160862   157A      2.174825
     158A      2.178330   159A      2.193954   160A      2.253852
     161A      2.281095   162A      2.292724   163A      2.296235
     164A      2.304890   165A      2.311746   166A      2.322344
     167A      2.335948   168A      2.455933   169A      2.459139
     170A      2.466794   171A      2.480071   172A      2.509455
     173A      2.537634   174A      2.556519   175A      2.564397
     176A      2.627267   177A      2.743551   178A      2.755961
     179A      2.764096   180A      2.770976   181A      2.785792
     182A      2.802198   183A      2.811825   184A      2.848122
     185A      2.850540   186A      2.851843   187A      2.877466
     188A      2.948087   189A      2.958974   190A      2.988072
     191A      3.010460   192A      3.029999   193A      3.159352
     194A      3.210320   195A      3.304515   196A      3.976940

    Final Occupation by Irrep:
              A
    DOCC [    34 ]

  @RHF Final Energy:  -348.99345991077502

   => Energetics <=

    Nuclear Repulsion Energy =            392.9354162493451668
    One-Electron Energy =               -1248.5513995826497649
    Two-Electron Energy =                 506.6225234225295821
    Total Energy =                       -348.9934599107750159

Computation Completed

Properties will be evaluated at   0.000000,   0.000000,   0.000000 [a0]

Properties computed using the SCF density matrix

  Nuclear Dipole Moment: [e a0]
     X:    -7.6707      Y:    -2.6488      Z:     7.9331

  Electronic Dipole Moment: [e a0]
     X:     7.7818      Y:     2.6621      Z:    -7.9585

  Dipole Moment: [e a0]
     X:     0.1110      Y:     0.0133      Z:    -0.0254     Total:     0.1147

  Dipole Moment: [D]
     X:     0.2822      Y:     0.0338      Z:    -0.0646     Total:     0.2914

*** tstop() called on ds3 at Tue Apr 28 13:59:44 2020
Module time:
	user time   =      60.49 seconds =       1.01 minutes
	system time =      29.20 seconds =       0.49 minutes
	total time  =         85 seconds =       1.42 minutes
Total time:
	user time   =      60.49 seconds =       1.01 minutes
	system time =      29.20 seconds =       0.49 minutes
	total time  =         85 seconds =       1.42 minutes
                                     G D M A

                                 by Anthony Stone

                           version 2.2.06, 22 June 2011

               Distributed Multipoles from Gaussian wavefunctions

Starting at 13:59:44 on 28 Apr 2020

Using SCF density matrix from file ./SSI/SSI-031PHE-076ALA-1-dimer.test.3593.fchk

                         Distributed Multipole Analysis

Standard DMA

Positions and radii in angstrom
Multipole moments in atomic units, ea_0^k for rank k

C          x =  3.220245  y =  0.850922  z = -2.071522 angstrom
           Maximum rank =  0   Radius =  0.650 angstrom
                   Q00  =  -0.198230

C          x = -0.508755  y = -0.024078  z = -0.129522 angstrom
           Maximum rank =  0   Radius =  0.650 angstrom
                   Q00  =  -0.089348

C          x = -0.029755  y =  1.273922  z = -0.173522 angstrom
           Maximum rank =  0   Radius =  0.650 angstrom
                   Q00  =  -0.028549

C          x =  0.228245  y = -1.056078  z = -0.711522 angstrom
           Maximum rank =  0   Radius =  0.650 angstrom
                   Q00  =  -0.077791

C          x =  1.154245  y =  1.559922  z = -0.827522 angstrom
           Maximum rank =  0   Radius =  0.650 angstrom
                   Q00  =  -0.010356

C          x =  1.429245  y = -0.770078  z = -1.361522 angstrom
           Maximum rank =  0   Radius =  0.650 angstrom
                   Q00  =  -0.094423

C          x =  1.901245  y =  0.543922  z = -1.420522 angstrom
           Maximum rank =  0   Radius =  0.650 angstrom
                   Q00  =  -0.100686

H          x = -1.447755  y = -0.233078  z =  0.362478 angstrom
           Maximum rank =  0   Radius =  0.325 angstrom
                   Q00  =   0.063521

H          x = -0.591755  y =  2.070922  z =  0.285478 angstrom
           Maximum rank =  0   Radius =  0.325 angstrom
                   Q00  =   0.060655

H          x = -0.130755  y = -2.072078  z = -0.645522 angstrom
           Maximum rank =  0   Radius =  0.325 angstrom
                   Q00  =   0.063553

H          x =  1.494245  y =  2.583922  z = -0.876522 angstrom
           Maximum rank =  0   Radius =  0.325 angstrom
                   Q00  =   0.055293

H          x =  1.998245  y = -1.571078  z = -1.811522 angstrom
           Maximum rank =  0   Radius =  0.325 angstrom
                   Q00  =   0.056163

H          x =  3.237245  y =  1.905922  z = -2.346522 angstrom
           Maximum rank =  0   Radius =  0.325 angstrom
                   Q00  =   0.096104

H          x =  3.305245  y =  0.281922  z = -2.996522 angstrom
           Maximum rank =  0   Radius =  0.325 angstrom
                   Q00  =   0.098529

H          x =  4.084035  y =  0.632102  z = -1.426552 angstrom
           Maximum rank =  0   Radius =  0.325 angstrom
                   Q00  =   0.105140

C          x = -2.596755  y = -1.183078  z =  2.893478 angstrom
           Maximum rank =  0   Radius =  0.650 angstrom
                   Q00  =  -0.233629

C          x = -4.110755  y = -0.958078  z =  3.091478 angstrom
           Maximum rank =  0   Radius =  0.650 angstrom
                   Q00  =  -0.247129

H          x = -2.193755  y = -1.818078  z =  3.682478 angstrom
           Maximum rank =  0   Radius =  0.325 angstrom
                   Q00  =   0.083543

H          x = -2.423755  y = -1.670078  z =  1.932478 angstrom
           Maximum rank =  0   Radius =  0.325 angstrom
                   Q00  =   0.076081

H          x = -2.073755  y = -0.227078  z =  2.908478 angstrom
           Maximum rank =  0   Radius =  0.325 angstrom
                   Q00  =   0.081050

H          x = -4.483755  y = -0.329078  z =  2.282478 angstrom
           Maximum rank =  0   Radius =  0.325 angstrom
                   Q00  =   0.078853

H          x = -4.302635  y = -0.465548  z =  4.056148 angstrom
           Maximum rank =  0   Radius =  0.325 angstrom
                   Q00  =   0.081378

H          x = -4.653485  y = -1.914178  z =  3.055348 angstrom
           Maximum rank =  0   Radius =  0.325 angstrom
                   Q00  =   0.080278

Total multipoles referred to origin at
           x =   0.000000,  y =    0.000000,  z =    0.000000 angstrom
                   Q00  =  -0.000000

Finished at 13:59:44 on 28 Apr 2020

  DMA results are available in the Python driver through the
	  variable('DMA DISTRIBUTED MULTIPOLES')
  and
	  variable('DMA TOTAL MULTIPOLES')
  commands.

    Psi4 stopped on: Tuesday, 28 April 2020 01:59PM
    Psi4 wall time for execution: 0:01:25.37

*** Psi4 exiting successfully. Buy a developer a beer!
