                               Psi4 1.3.2 release

  ==> Input File <==

--------------------------------------------------------------------------
import numpy as np
set {scf_type pk
basis cc-pvdz
d_convergence 10
gdma_switch   0
gdma_limit    0
gdma_origin   [ 0.0,  0.0,  0.0 ]
}
molecule test {
    units Angstrom
    0 1
    --
    0 1
    C               -0.153081952988823     0.248736009996702    -1.582295772622243
    C               -0.911081952988823     0.148736009996702    -2.911295772622243
    C                1.038918047011177    -0.676263990003298    -1.571295772622243
    O                0.267918047011177     1.583736009996702    -1.340295772622243
    H               -0.824081952988823    -0.056263990003298    -0.779295772622243
    H               -1.154081952988823    -0.901263990003298    -3.073295772622243
    H                1.789918047011178    -0.347263990003298    -2.287295772622243
    H                1.482918047011177    -0.679263990003298    -0.576295772622243
    H                0.725918047011177    -1.691263990003297    -1.814295772622243
    H                0.946918047011177     1.559736009996702    -0.656295772622243
    H               -0.270704952988823     0.517805009996702    -3.725975772622243
    H               -1.869152952988823     0.682779009996702    -2.828235772622242
    C                0.149918047011177    -0.874263990003298     2.070704227377757
    C                0.245918047011177     0.630736009996702     2.121704227377757
    C               -0.705081952988823    -1.223263990003297     3.264704227377758
    H                1.142918047011177    -1.309263990003298     2.190704227377757
    H               -0.305081952988823    -1.222263990003298     1.143704227377757
    H                1.199918047011177     0.964736009996702     1.711704227377757
    H               -0.590081952988823     1.074736009996702     1.579704227377757
    H               -0.580081952988823    -2.266263990003298     3.557704227377757
    H               -1.753081952988823    -1.031263990003298     3.024704227377757
    H                0.161537047011177     0.864464009996702     3.193264227377757
    H               -0.373013952988823    -0.510550990003298     4.033974227377757

}
e, wfn = energy('scf', return_wfn=True)
gdma(wfn)
dmavals = variable('DMA DISTRIBUTED MULTIPOLES')
charges = np.array(dmavals)
print(charges)
np.save('SSI-084THR-107PRO-1-dimer.npy', np.array(charges))--------------------------------------------------------------------------

*** tstart() called on ds3
*** at Mon Apr 27 22:47:17 2020

   => Loading Basis Set <=

    Name: CC-PVDZ
    Role: ORBITAL
    Keyword: BASIS
    atoms 1-3, 13-15  entry C          line   138 file /theoryfs2/ds/metcalf/miniconda2/envs/tf2gpu/share/psi4/basis/cc-pvdz.gbs
    atoms 4           entry O          line   198 file /theoryfs2/ds/metcalf/miniconda2/envs/tf2gpu/share/psi4/basis/cc-pvdz.gbs
    atoms 5-12, 16-23 entry H          line    22 file /theoryfs2/ds/metcalf/miniconda2/envs/tf2gpu/share/psi4/basis/cc-pvdz.gbs

         ---------------------------------------------------------
                                   SCF
               by Justin Turney, Rob Parrish, Andy Simmonett
                          and Daniel G. A. Smith
                              RHF Reference
                        1 Threads,    500 MiB Core
         ---------------------------------------------------------

  ==> Geometry <==

    Molecular point group: c1
    Full point group: C1

    Geometry (in Angstrom), charge = 0, multiplicity = 1:

       Center              X                  Y                   Z               Mass
    ------------   -----------------  -----------------  -----------------  -----------------
         C           -0.153081952989     0.248736009997    -1.582295772622    12.000000000000
         C           -0.911081952989     0.148736009997    -2.911295772622    12.000000000000
         C            1.038918047011    -0.676263990003    -1.571295772622    12.000000000000
         O            0.267918047011     1.583736009997    -1.340295772622    15.994914619570
         H           -0.824081952989    -0.056263990003    -0.779295772622     1.007825032230
         H           -1.154081952989    -0.901263990003    -3.073295772622     1.007825032230
         H            1.789918047011    -0.347263990003    -2.287295772622     1.007825032230
         H            1.482918047011    -0.679263990003    -0.576295772622     1.007825032230
         H            0.725918047011    -1.691263990003    -1.814295772622     1.007825032230
         H            0.946918047011     1.559736009997    -0.656295772622     1.007825032230
         H           -0.270704952989     0.517805009997    -3.725975772622     1.007825032230
         H           -1.869152952989     0.682779009997    -2.828235772622     1.007825032230
         C            0.149918047011    -0.874263990003     2.070704227378    12.000000000000
         C            0.245918047011     0.630736009997     2.121704227378    12.000000000000
         C           -0.705081952989    -1.223263990003     3.264704227378    12.000000000000
         H            1.142918047011    -1.309263990003     2.190704227378     1.007825032230
         H           -0.305081952989    -1.222263990003     1.143704227378     1.007825032230
         H            1.199918047011     0.964736009997     1.711704227378     1.007825032230
         H           -0.590081952989     1.074736009997     1.579704227378     1.007825032230
         H           -0.580081952989    -2.266263990003     3.557704227378     1.007825032230
         H           -1.753081952989    -1.031263990003     3.024704227378     1.007825032230
         H            0.161537047011     0.864464009997     3.193264227378     1.007825032230
         H           -0.373013952989    -0.510550990003     4.033974227378     1.007825032230

  Running in c1 symmetry.

  Rotational constants: A =      0.13050  B =      0.02835  C =      0.02696 [cm^-1]
  Rotational constants: A =   3912.22363  B =    850.02905  C =    808.18440 [MHz]
  Nuclear repulsion =  323.361419381762175

  Charge       = 0
  Multiplicity = 1
  Electrons    = 60
  Nalpha       = 30
  Nbeta        = 30

  ==> Algorithm <==

  SCF Algorithm Type is PK.
  DIIS enabled.
  MOM disabled.
  Fractional occupation disabled.
  Guess Type is SAD.
  Energy threshold   = 1.00e-06
  Density threshold  = 1.00e-10
  Integral threshold = 0.00e+00

  ==> Primary Basis <==

  Basis Set: CC-PVDZ
    Blend: CC-PVDZ
    Number of shells: 90
    Number of basis function: 178
    Number of Cartesian functions: 185
    Spherical Harmonics?: true
    Max angular momentum: 2

  ==> Pre-Iterations <==

   -------------------------------------------------------
    Irrep   Nso     Nmo     Nalpha   Nbeta   Ndocc  Nsocc
   -------------------------------------------------------
     A        178     178       0       0       0       0
   -------------------------------------------------------
    Total     178     178      30      30      30       0
   -------------------------------------------------------

  ==> Integral Setup <==

  Using integral reordering PK algorithm.
  Sizing the integral batches needed.
  Building batch lookup table.
   Calculation information:
      Number of atoms:                  23
      Number of AO shells:              90
      Number of primitives:            234
      Number of atomic orbitals:       185
      Number of basis functions:       178

      Integral cutoff                 1.00e-12
      Number of threads:                 1

	Batch   1 pq = [       0,    9405] index = [             0,44231715] size =     44231715
	Batch   2 pq = [    9405,   13301] index = [      44231715,88464951] size =     44233236
	Batch   3 pq = [   13301,   15931] index = [      88464951,126906346] size =     38441395
  Task number: 12
  Buffer size: 11059200
  Buffer per thread: 2
  We computed 7733095 shell quartets total.
  Whereas there are 8386560 unique shell quartets.

  ==> DiskJK: Disk-Based J/K Matrices <==

    J tasked:                  Yes
    K tasked:                  Yes
    wK tasked:                  No
    Memory [MiB]:              375
    Schwarz Cutoff:          1E-12

    OpenMP threads:              1

  Minimum eigenvalue in the overlap matrix is 4.3213798297E-03.
  Using Symmetric Orthogonalization.

  SCF Guess: Superposition of Atomic Densities via on-the-fly atomic UHF.

  ==> Iterations <==

                        Total Energy        Delta E     RMS |[F,P]|

   @RHF iter SAD:  -310.35754961628669   -3.10358e+02   0.00000e+00
   @RHF iter   1:  -311.12596624401971   -7.68417e-01   3.60480e-03 DIIS
   @RHF iter   2:  -311.33951199919699   -2.13546e-01   1.64346e-03 DIIS
   @RHF iter   3:  -311.37931285331695   -3.98009e-02   3.26741e-04 DIIS
   @RHF iter   4:  -311.38220994057258   -2.89709e-03   9.82003e-05 DIIS
   @RHF iter   5:  -311.38237617294612   -1.66232e-04   2.11839e-05 DIIS
   @RHF iter   6:  -311.38238655125861   -1.03783e-05   5.06404e-06 DIIS
   @RHF iter   7:  -311.38238723548039   -6.84222e-07   1.35519e-06 DIIS
   @RHF iter   8:  -311.38238728956770   -5.40873e-08   3.73454e-07 DIIS
   @RHF iter   9:  -311.38238729539893   -5.83123e-09   8.88058e-08 DIIS
   @RHF iter  10:  -311.38238729575772   -3.58796e-10   2.19423e-08 DIIS
   @RHF iter  11:  -311.38238729577859   -2.08615e-11   5.67193e-09 DIIS
   @RHF iter  12:  -311.38238729577949   -9.09495e-13   1.92883e-09 DIIS
   @RHF iter  13:  -311.38238729577836    1.13687e-12   5.89474e-10 DIIS
   @RHF iter  14:  -311.38238729577967   -1.30740e-12   1.56177e-10 DIIS
   @RHF iter  15:  -311.38238729577967    0.00000e+00   5.17709e-11 DIIS
  Energy and wave function converged.

  ==> Post-Iterations <==

    Orbital Energies [Eh]
    ---------------------

    Doubly Occupied:

       1A    -20.545537     2A    -11.274958     3A    -11.219871
       4A    -11.219766     5A    -11.219713     6A    -11.218704
       7A    -11.217322     8A     -1.352645     9A     -1.076626
      10A     -1.043846    11A     -0.937700    12A     -0.920996
      13A     -0.804362    14A     -0.797766    15A     -0.685857
      16A     -0.644339    17A     -0.628851    18A     -0.621700
      19A     -0.605147    20A     -0.549806    21A     -0.547532
      22A     -0.530199    23A     -0.526926    24A     -0.518250
      25A     -0.509233    26A     -0.488696    27A     -0.474297
      28A     -0.467207    29A     -0.460356    30A     -0.427564

    Virtual:

      31A      0.164413    32A      0.191394    33A      0.199207
      34A      0.217022    35A      0.225881    36A      0.235396
      37A      0.241364    38A      0.244526    39A      0.275176
      40A      0.281100    41A      0.289060    42A      0.304713
      43A      0.308286    44A      0.317164    45A      0.331114
      46A      0.346446    47A      0.364900    48A      0.393781
      49A      0.413642    50A      0.432904    51A      0.436200
      52A      0.561480    53A      0.571534    54A      0.576026
      55A      0.617435    56A      0.640193    57A      0.650755
      58A      0.664041    59A      0.676985    60A      0.731133
      61A      0.758743    62A      0.766755    63A      0.786609
      64A      0.793415    65A      0.821587    66A      0.827901
      67A      0.839203    68A      0.859591    69A      0.863309
      70A      0.886098    71A      0.890811    72A      0.895182
      73A      0.899408    74A      0.901710    75A      0.909002
      76A      0.909929    77A      0.920536    78A      0.931159
      79A      0.935453    80A      0.942781    81A      0.952664
      82A      0.969692    83A      0.991194    84A      0.994323
      85A      1.036530    86A      1.085404    87A      1.129657
      88A      1.133411    89A      1.156681    90A      1.171857
      91A      1.206950    92A      1.300575    93A      1.342200
      94A      1.383146    95A      1.417371    96A      1.431307
      97A      1.461328    98A      1.480354    99A      1.501411
     100A      1.521773   101A      1.558980   102A      1.606478
     103A      1.621587   104A      1.629869   105A      1.649084
     106A      1.666296   107A      1.688456   108A      1.709999
     109A      1.719058   110A      1.727227   111A      1.745573
     112A      1.804016   113A      1.816260   114A      1.855188
     115A      1.865991   116A      1.870680   117A      1.885215
     118A      1.900076   119A      1.919408   120A      1.923368
     121A      1.937628   122A      1.949221   123A      1.957131
     124A      1.973187   125A      1.991042   126A      1.993893
     127A      2.003143   128A      2.009030   129A      2.019707
     130A      2.030255   131A      2.048872   132A      2.064299
     133A      2.077036   134A      2.107287   135A      2.140595
     136A      2.145766   137A      2.163455   138A      2.203095
     139A      2.229405   140A      2.245640   141A      2.256236
     142A      2.293927   143A      2.301700   144A      2.312029
     145A      2.359361   146A      2.377596   147A      2.449061
     148A      2.451829   149A      2.464308   150A      2.501360
     151A      2.513314   152A      2.540774   153A      2.550741
     154A      2.561626   155A      2.609779   156A      2.638253
     157A      2.665291   158A      2.693840   159A      2.755779
     160A      2.765031   161A      2.770579   162A      2.776680
     163A      2.797545   164A      2.807450   165A      2.831677
     166A      2.850056   167A      2.870951   168A      2.901385
     169A      2.908176   170A      2.933149   171A      2.946719
     172A      3.011612   173A      3.061029   174A      3.330965
     175A      3.429106   176A      3.478042   177A      3.673707
     178A      4.149381

    Final Occupation by Irrep:
              A
    DOCC [    30 ]

  @RHF Final Energy:  -311.38238729577967

   => Energetics <=

    Nuclear Repulsion Energy =            323.3614193817621754
    One-Electron Energy =               -1062.4160709613329345
    Two-Electron Energy =                 427.6722642837910939
    Total Energy =                       -311.3823872957796652

Computation Completed

Properties will be evaluated at   0.000000,   0.000000,   0.000000 [a0]

Properties computed using the SCF density matrix

  Nuclear Dipole Moment: [e a0]
     X:    -0.2512      Y:    -4.0710      Z:     4.3945

  Electronic Dipole Moment: [e a0]
     X:     0.4597      Y:     3.4718      Z:    -4.0916

  Dipole Moment: [e a0]
     X:     0.2085      Y:    -0.5992      Z:     0.3029     Total:     0.7030

  Dipole Moment: [D]
     X:     0.5300      Y:    -1.5229      Z:     0.7699     Total:     1.7869

*** tstop() called on ds3 at Mon Apr 27 22:48:25 2020
Module time:
	user time   =      49.38 seconds =       0.82 minutes
	system time =      21.54 seconds =       0.36 minutes
	total time  =         68 seconds =       1.13 minutes
Total time:
	user time   =      49.38 seconds =       0.82 minutes
	system time =      21.54 seconds =       0.36 minutes
	total time  =         68 seconds =       1.13 minutes
                                     G D M A

                                 by Anthony Stone

                           version 2.2.06, 22 June 2011

               Distributed Multipoles from Gaussian wavefunctions

Starting at 22:48:25 on 27 Apr 2020

Using SCF density matrix from file ./SSI/SSI-084THR-107PRO-1-dimer.test.20887.fchk

                         Distributed Multipole Analysis

Standard DMA

Positions and radii in angstrom
Multipole moments in atomic units, ea_0^k for rank k

C          x = -0.153082  y =  0.248736  z = -1.582296 angstrom
           Maximum rank =  0   Radius =  0.650 angstrom
                   Q00  =   0.160663

C          x = -0.911082  y =  0.148736  z = -2.911296 angstrom
           Maximum rank =  0   Radius =  0.650 angstrom
                   Q00  =  -0.237242

C          x =  1.038918  y = -0.676264  z = -1.571296 angstrom
           Maximum rank =  0   Radius =  0.650 angstrom
                   Q00  =  -0.268918

O          x =  0.267918  y =  1.583736  z = -1.340296 angstrom
           Maximum rank =  0   Radius =  0.650 angstrom
                   Q00  =  -0.559583

H          x = -0.824082  y = -0.056264  z = -0.779296 angstrom
           Maximum rank =  0   Radius =  0.325 angstrom
                   Q00  =  -0.007479

H          x = -1.154082  y = -0.901264  z = -3.073296 angstrom
           Maximum rank =  0   Radius =  0.325 angstrom
                   Q00  =   0.078567

H          x =  1.789918  y = -0.347264  z = -2.287296 angstrom
           Maximum rank =  0   Radius =  0.325 angstrom
                   Q00  =   0.087799

H          x =  1.482918  y = -0.679264  z = -0.576296 angstrom
           Maximum rank =  0   Radius =  0.325 angstrom
                   Q00  =   0.075854

H          x =  0.725918  y = -1.691264  z = -1.814296 angstrom
           Maximum rank =  0   Radius =  0.325 angstrom
                   Q00  =   0.085786

H          x =  0.946918  y =  1.559736  z = -0.656296 angstrom
           Maximum rank =  0   Radius =  0.325 angstrom
                   Q00  =   0.393496

H          x = -0.270705  y =  0.517805  z = -3.725976 angstrom
           Maximum rank =  0   Radius =  0.325 angstrom
                   Q00  =   0.092856

H          x = -1.869153  y =  0.682779  z = -2.828236 angstrom
           Maximum rank =  0   Radius =  0.325 angstrom
                   Q00  =   0.096100

C          x =  0.149918  y = -0.874264  z =  2.070704 angstrom
           Maximum rank =  0   Radius =  0.650 angstrom
                   Q00  =  -0.116418

C          x =  0.245918  y =  0.630736  z =  2.121704 angstrom
           Maximum rank =  0   Radius =  0.650 angstrom
                   Q00  =  -0.227784

C          x = -0.705082  y = -1.223264  z =  3.264704 angstrom
           Maximum rank =  0   Radius =  0.650 angstrom
                   Q00  =  -0.195220

H          x =  1.142918  y = -1.309264  z =  2.190704 angstrom
           Maximum rank =  0   Radius =  0.325 angstrom
                   Q00  =   0.052257

H          x = -0.305082  y = -1.222264  z =  1.143704 angstrom
           Maximum rank =  0   Radius =  0.325 angstrom
                   Q00  =   0.053256

H          x =  1.199918  y =  0.964736  z =  1.711704 angstrom
           Maximum rank =  0   Radius =  0.325 angstrom
                   Q00  =   0.072454

H          x = -0.590082  y =  1.074736  z =  1.579704 angstrom
           Maximum rank =  0   Radius =  0.325 angstrom
                   Q00  =   0.084633

H          x = -0.580082  y = -2.266264  z =  3.557704 angstrom
           Maximum rank =  0   Radius =  0.325 angstrom
                   Q00  =   0.083034

H          x = -1.753082  y = -1.031264  z =  3.024704 angstrom
           Maximum rank =  0   Radius =  0.325 angstrom
                   Q00  =   0.076811

H          x =  0.161537  y =  0.864464  z =  3.193264 angstrom
           Maximum rank =  0   Radius =  0.325 angstrom
                   Q00  =   0.066681

H          x = -0.373014  y = -0.510551  z =  4.033974 angstrom
           Maximum rank =  0   Radius =  0.325 angstrom
                   Q00  =   0.052397

Total multipoles referred to origin at
           x =   0.000000,  y =    0.000000,  z =    0.000000 angstrom
                   Q00  =  -0.000000

Finished at 22:48:25 on 27 Apr 2020

  DMA results are available in the Python driver through the
	  variable('DMA DISTRIBUTED MULTIPOLES')
  and
	  variable('DMA TOTAL MULTIPOLES')
  commands.

    Psi4 stopped on: Monday, 27 April 2020 10:48PM
    Psi4 wall time for execution: 0:01:08.46

*** Psi4 exiting successfully. Buy a developer a beer!
