                               Psi4 1.3.2 release

  ==> Input File <==

--------------------------------------------------------------------------
import numpy as np
set {scf_type pk
basis cc-pvdz
d_convergence 10
gdma_switch   0
gdma_limit    0
gdma_origin   [ 0.0,  0.0,  0.0 ]
}
molecule test {
    units Angstrom
    0 1
    --
    0 1
    C               -0.425263068583012     1.329726828985064     1.045432987435297
    C                0.599736931416988     2.228726828985064     1.687432987435297
    C               -1.722263068583013     2.104726828985064     1.244432987435297
    H               -0.444263068583013     0.337726828985064     1.499432987435297
    H               -0.241263068583013     1.269726828985064    -0.022567012564703
    H                0.570736931416988     2.093726828985064     2.769432987435297
    H                1.604736931416987     2.030726828985064     1.316432987435296
    H               -2.389263068583013     1.921726828985064     0.399432987435297
    H                0.273176931416987     3.248666828985064     1.436290987435297
    H               -1.402263068583013     3.157006828985064     1.261831987435297
    H               -2.221013068583012     1.806206828985065     2.178314987435297
    C                1.631736931416987    -1.049273171014936    -1.641567012564703
    C                0.354736931416987    -1.494273171014936    -0.957567012564703
    O                0.396736931416988    -2.209273171014936     0.040432987435297
    N               -0.768263068583012    -0.971273171014936    -1.391567012564703
    H                1.429736931416987    -0.728273171014936    -2.664567012564703
    H                2.317736931416988    -1.894273171014935    -1.679567012564703
    H               -1.629263068583013    -1.244273171014936    -0.941567012564703
    H               -0.778263068583013    -0.369273171014936    -2.201567012564704
    H                2.064136931416988    -0.216393171014936    -1.067690012564704

}
e, wfn = energy('scf', return_wfn=True)
gdma(wfn)
dmavals = variable('DMA DISTRIBUTED MULTIPOLES')
charges = np.array(dmavals)
print(charges)
np.save('SSI-063PRO-090GLN-2-dimer.npy', np.array(charges))--------------------------------------------------------------------------

*** tstart() called on ds3
*** at Sun Apr 26 18:49:02 2020

   => Loading Basis Set <=

    Name: CC-PVDZ
    Role: ORBITAL
    Keyword: BASIS
    atoms 1-3, 12-13  entry C          line   138 file /theoryfs2/ds/metcalf/miniconda2/envs/tf2gpu/share/psi4/basis/cc-pvdz.gbs
    atoms 4-11, 16-20 entry H          line    22 file /theoryfs2/ds/metcalf/miniconda2/envs/tf2gpu/share/psi4/basis/cc-pvdz.gbs
    atoms 14          entry O          line   198 file /theoryfs2/ds/metcalf/miniconda2/envs/tf2gpu/share/psi4/basis/cc-pvdz.gbs
    atoms 15          entry N          line   168 file /theoryfs2/ds/metcalf/miniconda2/envs/tf2gpu/share/psi4/basis/cc-pvdz.gbs

         ---------------------------------------------------------
                                   SCF
               by Justin Turney, Rob Parrish, Andy Simmonett
                          and Daniel G. A. Smith
                              RHF Reference
                        1 Threads,    500 MiB Core
         ---------------------------------------------------------

  ==> Geometry <==

    Molecular point group: c1
    Full point group: C1

    Geometry (in Angstrom), charge = 0, multiplicity = 1:

       Center              X                  Y                   Z               Mass
    ------------   -----------------  -----------------  -----------------  -----------------
         C           -0.425263068583     1.329726828985     1.045432987435    12.000000000000
         C            0.599736931417     2.228726828985     1.687432987435    12.000000000000
         C           -1.722263068583     2.104726828985     1.244432987435    12.000000000000
         H           -0.444263068583     0.337726828985     1.499432987435     1.007825032230
         H           -0.241263068583     1.269726828985    -0.022567012565     1.007825032230
         H            0.570736931417     2.093726828985     2.769432987435     1.007825032230
         H            1.604736931417     2.030726828985     1.316432987435     1.007825032230
         H           -2.389263068583     1.921726828985     0.399432987435     1.007825032230
         H            0.273176931417     3.248666828985     1.436290987435     1.007825032230
         H           -1.402263068583     3.157006828985     1.261831987435     1.007825032230
         H           -2.221013068583     1.806206828985     2.178314987435     1.007825032230
         C            1.631736931417    -1.049273171015    -1.641567012565    12.000000000000
         C            0.354736931417    -1.494273171015    -0.957567012565    12.000000000000
         O            0.396736931417    -2.209273171015     0.040432987435    15.994914619570
         N           -0.768263068583    -0.971273171015    -1.391567012565    14.003074004430
         H            1.429736931417    -0.728273171015    -2.664567012565     1.007825032230
         H            2.317736931417    -1.894273171015    -1.679567012565     1.007825032230
         H           -1.629263068583    -1.244273171015    -0.941567012565     1.007825032230
         H           -0.778263068583    -0.369273171015    -2.201567012565     1.007825032230
         H            2.064136931417    -0.216393171015    -1.067690012565     1.007825032230

  Running in c1 symmetry.

  Rotational constants: A =      0.11785  B =      0.03321  C =      0.03067 [cm^-1]
  Rotational constants: A =   3532.91517  B =    995.68258  C =    919.38557 [MHz]
  Nuclear repulsion =  307.518338257652545

  Charge       = 0
  Multiplicity = 1
  Electrons    = 58
  Nalpha       = 29
  Nbeta        = 29

  ==> Algorithm <==

  SCF Algorithm Type is PK.
  DIIS enabled.
  MOM disabled.
  Fractional occupation disabled.
  Guess Type is SAD.
  Energy threshold   = 1.00e-06
  Density threshold  = 1.00e-10
  Integral threshold = 0.00e+00

  ==> Primary Basis <==

  Basis Set: CC-PVDZ
    Blend: CC-PVDZ
    Number of shells: 81
    Number of basis function: 163
    Number of Cartesian functions: 170
    Spherical Harmonics?: true
    Max angular momentum: 2

  ==> Pre-Iterations <==

   -------------------------------------------------------
    Irrep   Nso     Nmo     Nalpha   Nbeta   Ndocc  Nsocc
   -------------------------------------------------------
     A        163     163       0       0       0       0
   -------------------------------------------------------
    Total     163     163      29      29      29       0
   -------------------------------------------------------

  ==> Integral Setup <==

  Using integral reordering PK algorithm.
  Sizing the integral batches needed.
  Building batch lookup table.
   Calculation information:
      Number of atoms:                  20
      Number of AO shells:              81
      Number of primitives:            219
      Number of atomic orbitals:       170
      Number of basis functions:       163

      Integral cutoff                 1.00e-12
      Number of threads:                 1

	Batch   1 pq = [       0,    9405] index = [             0,44231715] size =     44231715
	Batch   2 pq = [    9405,   13366] index = [      44231715,89331661] size =     45099946
  Task number: 9
  Buffer size: 11059200
  Buffer per thread: 2
  We computed 5069390 shell quartets total.
  Whereas there are 5516181 unique shell quartets.

  ==> DiskJK: Disk-Based J/K Matrices <==

    J tasked:                  Yes
    K tasked:                  Yes
    wK tasked:                  No
    Memory [MiB]:              375
    Schwarz Cutoff:          1E-12

    OpenMP threads:              1

  Minimum eigenvalue in the overlap matrix is 4.2125083582E-03.
  Using Symmetric Orthogonalization.

  SCF Guess: Superposition of Atomic Densities via on-the-fly atomic UHF.

  ==> Iterations <==

                        Total Energy        Delta E     RMS |[F,P]|

   @RHF iter SAD:  -325.14091900347569   -3.25141e+02   0.00000e+00
   @RHF iter   1:  -325.97650825289645   -8.35589e-01   4.20779e-03 DIIS
   @RHF iter   2:  -326.18151888411325   -2.05011e-01   2.32311e-03 DIIS
   @RHF iter   3:  -326.23831664029382   -5.67978e-02   4.85515e-04 DIIS
   @RHF iter   4:  -326.24204664749573   -3.73001e-03   2.02283e-04 DIIS
   @RHF iter   5:  -326.24270040609508   -6.53759e-04   3.11284e-05 DIIS
   @RHF iter   6:  -326.24273229640431   -3.18903e-05   1.34721e-05 DIIS
   @RHF iter   7:  -326.24273762597011   -5.32957e-06   5.21753e-06 DIIS
   @RHF iter   8:  -326.24273868646674   -1.06050e-06   1.81175e-06 DIIS
   @RHF iter   9:  -326.24273881930475   -1.32838e-07   4.80790e-07 DIIS
   @RHF iter  10:  -326.24273882575659   -6.45184e-09   1.59816e-07 DIIS
   @RHF iter  11:  -326.24273882656337   -8.06779e-10   3.78693e-08 DIIS
   @RHF iter  12:  -326.24273882660702   -4.36557e-11   9.30323e-09 DIIS
   @RHF iter  13:  -326.24273882660822   -1.19371e-12   2.32339e-09 DIIS
   @RHF iter  14:  -326.24273882661186   -3.63798e-12   8.15715e-10 DIIS
   @RHF iter  15:  -326.24273882661123    6.25278e-13   2.51277e-10 DIIS
   @RHF iter  16:  -326.24273882660907    2.16005e-12   9.72563e-11 DIIS
  Energy and wave function converged.

  ==> Post-Iterations <==

    Orbital Energies [Eh]
    ---------------------

    Doubly Occupied:

       1A    -20.500992     2A    -15.590701     3A    -11.345316
       4A    -11.242514     5A    -11.213529     6A    -11.210384
       7A    -11.209721     8A     -1.368780     9A     -1.221590
      10A     -1.066457    11A     -1.000235    12A     -0.911886
      13A     -0.803047    14A     -0.796795    15A     -0.731455
      16A     -0.654420    17A     -0.636677    18A     -0.619723
      19A     -0.607652    20A     -0.567226    21A     -0.556964
      22A     -0.538873    23A     -0.526572    24A     -0.512163
      25A     -0.482296    26A     -0.466549    27A     -0.454573
      28A     -0.408675    29A     -0.402254

    Virtual:

      30A      0.152328    31A      0.183631    32A      0.194101
      33A      0.207831    34A      0.224380    35A      0.231989
      36A      0.243899    37A      0.250399    38A      0.262228
      39A      0.281502    40A      0.290608    41A      0.319773
      42A      0.325590    43A      0.339192    44A      0.379411
      45A      0.384885    46A      0.436201    47A      0.470975
      48A      0.543249    49A      0.582114    50A      0.595984
      51A      0.611684    52A      0.630456    53A      0.652388
      54A      0.664355    55A      0.682962    56A      0.694665
      57A      0.709060    58A      0.741108    59A      0.784087
      60A      0.812195    61A      0.829984    62A      0.842599
      63A      0.858029    64A      0.863379    65A      0.869892
      66A      0.886189    67A      0.899382    68A      0.905138
      69A      0.912017    70A      0.914141    71A      0.921535
      72A      0.939070    73A      0.948623    74A      0.954540
      75A      0.970567    76A      0.984489    77A      1.022455
      78A      1.052338    79A      1.061523    80A      1.115091
      81A      1.123007    82A      1.143931    83A      1.179080
      84A      1.205239    85A      1.327319    86A      1.354468
      87A      1.393786    88A      1.406323    89A      1.416207
      90A      1.449342    91A      1.461854    92A      1.469918
      93A      1.483293    94A      1.491055    95A      1.619073
      96A      1.621438    97A      1.640673    98A      1.651762
      99A      1.653779   100A      1.707932   101A      1.743035
     102A      1.756477   103A      1.819400   104A      1.826066
     105A      1.862334   106A      1.864589   107A      1.875383
     108A      1.885254   109A      1.901917   110A      1.909414
     111A      1.921770   112A      1.930995   113A      1.948816
     114A      1.961773   115A      1.974813   116A      1.988727
     117A      2.004101   118A      2.015381   119A      2.047475
     120A      2.052215   121A      2.062401   122A      2.097284
     123A      2.103829   124A      2.147951   125A      2.173166
     126A      2.204637   127A      2.229353   128A      2.248653
     129A      2.276361   130A      2.311248   131A      2.352532
     132A      2.435401   133A      2.439891   134A      2.465312
     135A      2.468395   136A      2.484635   137A      2.526484
     138A      2.547799   139A      2.553738   140A      2.564891
     141A      2.626080   142A      2.634915   143A      2.700195
     144A      2.748889   145A      2.758634   146A      2.774345
     147A      2.784169   148A      2.789019   149A      2.800132
     150A      2.835079   151A      2.845931   152A      2.869743
     153A      2.929563   154A      2.967946   155A      2.997498
     156A      3.070135   157A      3.094095   158A      3.140453
     159A      3.282701   160A      3.473930   161A      3.561942
     162A      3.876023   163A      3.914003

    Final Occupation by Irrep:
              A
    DOCC [    29 ]

  @RHF Final Energy:  -326.24273882660907

   => Energetics <=

    Nuclear Repulsion Energy =            307.5183382576525446
    One-Electron Energy =               -1052.2261162480313033
    Two-Electron Energy =                 418.4650391637696885
    Total Energy =                       -326.2427388266090702

Computation Completed

Properties will be evaluated at   0.000000,   0.000000,   0.000000 [a0]

Properties computed using the SCF density matrix

  Nuclear Dipole Moment: [e a0]
     X:    -0.7883      Y:    10.6916      Z:     2.1451

  Electronic Dipole Moment: [e a0]
     X:     0.4250      Y:    -9.8158      Z:    -3.4585

  Dipole Moment: [e a0]
     X:    -0.3634      Y:     0.8757      Z:    -1.3135     Total:     1.6199

  Dipole Moment: [D]
     X:    -0.9236      Y:     2.2259      Z:    -3.3385     Total:     4.1174

*** tstop() called on ds3 at Sun Apr 26 18:49:45 2020
Module time:
	user time   =      31.62 seconds =       0.53 minutes
	system time =      12.78 seconds =       0.21 minutes
	total time  =         43 seconds =       0.72 minutes
Total time:
	user time   =      31.62 seconds =       0.53 minutes
	system time =      12.78 seconds =       0.21 minutes
	total time  =         43 seconds =       0.72 minutes
                                     G D M A

                                 by Anthony Stone

                           version 2.2.06, 22 June 2011

               Distributed Multipoles from Gaussian wavefunctions

Starting at 18:49:45 on 26 Apr 2020

Using SCF density matrix from file ./SSI/SSI-063PRO-090GLN-2-dimer.test.18740.fchk

                         Distributed Multipole Analysis

Standard DMA

Positions and radii in angstrom
Multipole moments in atomic units, ea_0^k for rank k

C          x = -0.425263  y =  1.329727  z =  1.045433 angstrom
           Maximum rank =  0   Radius =  0.650 angstrom
                   Q00  =  -0.090028

C          x =  0.599737  y =  2.228727  z =  1.687433 angstrom
           Maximum rank =  0   Radius =  0.650 angstrom
                   Q00  =  -0.200564

C          x = -1.722263  y =  2.104727  z =  1.244433 angstrom
           Maximum rank =  0   Radius =  0.650 angstrom
                   Q00  =  -0.235281

H          x = -0.444263  y =  0.337727  z =  1.499433 angstrom
           Maximum rank =  0   Radius =  0.325 angstrom
                   Q00  =   0.071289

H          x = -0.241263  y =  1.269727  z = -0.022567 angstrom
           Maximum rank =  0   Radius =  0.325 angstrom
                   Q00  =   0.029730

H          x =  0.570737  y =  2.093727  z =  2.769433 angstrom
           Maximum rank =  0   Radius =  0.325 angstrom
                   Q00  =   0.079892

H          x =  1.604737  y =  2.030727  z =  1.316433 angstrom
           Maximum rank =  0   Radius =  0.325 angstrom
                   Q00  =   0.074881

H          x = -2.389263  y =  1.921727  z =  0.399433 angstrom
           Maximum rank =  0   Radius =  0.325 angstrom
                   Q00  =   0.072444

H          x =  0.273177  y =  3.248667  z =  1.436291 angstrom
           Maximum rank =  0   Radius =  0.325 angstrom
                   Q00  =   0.044974

H          x = -1.402263  y =  3.157007  z =  1.261832 angstrom
           Maximum rank =  0   Radius =  0.325 angstrom
                   Q00  =   0.061518

H          x = -2.221013  y =  1.806207  z =  2.178315 angstrom
           Maximum rank =  0   Radius =  0.325 angstrom
                   Q00  =   0.082488

C          x =  1.631737  y = -1.049273  z = -1.641567 angstrom
           Maximum rank =  0   Radius =  0.650 angstrom
                   Q00  =  -0.261725

C          x =  0.354737  y = -1.494273  z = -0.957567 angstrom
           Maximum rank =  0   Radius =  0.650 angstrom
                   Q00  =   0.810015

O          x =  0.396737  y = -2.209273  z =  0.040433 angstrom
           Maximum rank =  0   Radius =  0.650 angstrom
                   Q00  =  -0.799158

N          x = -0.768263  y = -0.971273  z = -1.391567 angstrom
           Maximum rank =  0   Radius =  0.650 angstrom
                   Q00  =  -0.508793

H          x =  1.429737  y = -0.728273  z = -2.664567 angstrom
           Maximum rank =  0   Radius =  0.325 angstrom
                   Q00  =   0.075389

H          x =  2.317737  y = -1.894273  z = -1.679567 angstrom
           Maximum rank =  0   Radius =  0.325 angstrom
                   Q00  =   0.131324

H          x = -1.629263  y = -1.244273  z = -0.941567 angstrom
           Maximum rank =  0   Radius =  0.325 angstrom
                   Q00  =   0.222661

H          x = -0.778263  y = -0.369273  z = -2.201567 angstrom
           Maximum rank =  0   Radius =  0.325 angstrom
                   Q00  =   0.206391

H          x =  2.064137  y = -0.216393  z = -1.067690 angstrom
           Maximum rank =  0   Radius =  0.325 angstrom
                   Q00  =   0.132548

Total multipoles referred to origin at
           x =   0.000000,  y =    0.000000,  z =    0.000000 angstrom
                   Q00  =  -0.000000

Finished at 18:49:45 on 26 Apr 2020

  DMA results are available in the Python driver through the
	  variable('DMA DISTRIBUTED MULTIPOLES')
  and
	  variable('DMA TOTAL MULTIPOLES')
  commands.

    Psi4 stopped on: Sunday, 26 April 2020 06:49PM
    Psi4 wall time for execution: 0:00:43.69

*** Psi4 exiting successfully. Buy a developer a beer!
