                               Psi4 1.3.2 release

  ==> Input File <==

--------------------------------------------------------------------------
import numpy as np
set {scf_type pk
basis cc-pvdz
d_convergence 10
gdma_switch   0
gdma_limit    0
gdma_origin   [ 0.0,  0.0,  0.0 ]
}
molecule test {
    units Angstrom
    0 1
    --
    0 1
    C               -1.620021097766416     0.398750677976793    -1.480665182281376
    C               -2.110021097766416     1.126750677976794    -2.741665182281376
    H               -1.848021097766416    -0.665249322023207    -1.556665182281376
    H               -0.542021097766416     0.530750677976794    -1.375665182281376
    H               -2.116021097766416     0.810750677976793    -0.601665182281376
    H               -1.873021097766416     2.188750677976794    -2.663665182281376
    H               -3.196232097766416     1.022050677976793    -2.880135182281376
    H               -1.622779097766416     0.702750677976793    -3.632065182281377
    C                0.745978902233584    -0.529249322023207     1.209334817718624
    C                1.085978902233584    -1.279249322023207     2.493334817718624
    C                1.953978902233584     0.242750677976794     0.600334817718624
    H                0.373978902233584    -1.259249322023207     0.491334817718624
    H               -0.051021097766416     0.177750677976794     1.445334817718624
    H                1.313978902233584    -0.503249322023206     3.224334817718624
    H                2.754978902233585    -0.453249322023207     0.350334817718624
    H                1.642978902233584     0.756750677976794    -0.310665182281376
    H                2.326978902233584     0.977750677976793     1.316334817718624
    H                0.217826902233584    -1.858449322023207     2.840884817718623
    H                1.952868902233584    -1.948649322023207     2.391394817718624

}
e, wfn = energy('scf', return_wfn=True)
gdma(wfn)
dmavals = variable('DMA DISTRIBUTED MULTIPOLES')
charges = np.array(dmavals)
print(charges)
np.save('SSI-120VAL-123ILE-1-dimer.npy', np.array(charges))--------------------------------------------------------------------------

*** tstart() called on ds3
*** at Mon Apr 27 16:49:06 2020

   => Loading Basis Set <=

    Name: CC-PVDZ
    Role: ORBITAL
    Keyword: BASIS
    atoms 1-2, 9-11  entry C          line   138 file /theoryfs2/ds/metcalf/miniconda2/envs/tf2gpu/share/psi4/basis/cc-pvdz.gbs
    atoms 3-8, 12-19 entry H          line    22 file /theoryfs2/ds/metcalf/miniconda2/envs/tf2gpu/share/psi4/basis/cc-pvdz.gbs

         ---------------------------------------------------------
                                   SCF
               by Justin Turney, Rob Parrish, Andy Simmonett
                          and Daniel G. A. Smith
                              RHF Reference
                        1 Threads,    500 MiB Core
         ---------------------------------------------------------

  ==> Geometry <==

    Molecular point group: c1
    Full point group: C1

    Geometry (in Angstrom), charge = 0, multiplicity = 1:

       Center              X                  Y                   Z               Mass
    ------------   -----------------  -----------------  -----------------  -----------------
         C           -1.620021097766     0.398750677977    -1.480665182281    12.000000000000
         C           -2.110021097766     1.126750677977    -2.741665182281    12.000000000000
         H           -1.848021097766    -0.665249322023    -1.556665182281     1.007825032230
         H           -0.542021097766     0.530750677977    -1.375665182281     1.007825032230
         H           -2.116021097766     0.810750677977    -0.601665182281     1.007825032230
         H           -1.873021097766     2.188750677977    -2.663665182281     1.007825032230
         H           -3.196232097766     1.022050677977    -2.880135182281     1.007825032230
         H           -1.622779097766     0.702750677977    -3.632065182281     1.007825032230
         C            0.745978902234    -0.529249322023     1.209334817719    12.000000000000
         C            1.085978902234    -1.279249322023     2.493334817719    12.000000000000
         C            1.953978902234     0.242750677977     0.600334817719    12.000000000000
         H            0.373978902234    -1.259249322023     0.491334817719     1.007825032230
         H           -0.051021097766     0.177750677977     1.445334817719     1.007825032230
         H            1.313978902234    -0.503249322023     3.224334817719     1.007825032230
         H            2.754978902234    -0.453249322023     0.350334817719     1.007825032230
         H            1.642978902234     0.756750677977    -0.310665182281     1.007825032230
         H            2.326978902234     0.977750677977     1.316334817719     1.007825032230
         H            0.217826902234    -1.858449322023     2.840884817719     1.007825032230
         H            1.952868902234    -1.948649322023     2.391394817719     1.007825032230

  Running in c1 symmetry.

  Rotational constants: A =      0.28409  B =      0.03502  C =      0.03213 [cm^-1]
  Rotational constants: A =   8516.74302  B =   1049.95039  C =    963.27716 [MHz]
  Nuclear repulsion =  175.435818969688881

  Charge       = 0
  Multiplicity = 1
  Electrons    = 44
  Nalpha       = 22
  Nbeta        = 22

  ==> Algorithm <==

  SCF Algorithm Type is PK.
  DIIS enabled.
  MOM disabled.
  Fractional occupation disabled.
  Guess Type is SAD.
  Energy threshold   = 1.00e-06
  Density threshold  = 1.00e-10
  Integral threshold = 0.00e+00

  ==> Primary Basis <==

  Basis Set: CC-PVDZ
    Blend: CC-PVDZ
    Number of shells: 72
    Number of basis function: 140
    Number of Cartesian functions: 145
    Spherical Harmonics?: true
    Max angular momentum: 2

  ==> Pre-Iterations <==

   -------------------------------------------------------
    Irrep   Nso     Nmo     Nalpha   Nbeta   Ndocc  Nsocc
   -------------------------------------------------------
     A        140     140       0       0       0       0
   -------------------------------------------------------
    Total     140     140      22      22      22       0
   -------------------------------------------------------

  ==> Integral Setup <==

  Using integral reordering PK algorithm.
  Sizing the integral batches needed.
  Building batch lookup table.
   Calculation information:
      Number of atoms:                  19
      Number of AO shells:              72
      Number of primitives:            180
      Number of atomic orbitals:       145
      Number of basis functions:       140

      Integral cutoff                 1.00e-12
      Number of threads:                 1

	Batch   1 pq = [       0,    9405] index = [             0,44231715] size =     44231715
	Batch   2 pq = [    9405,    9870] index = [      44231715,48713385] size =      4481670
  Task number: 5
  Buffer size: 11059200
  Buffer per thread: 2
  We computed 2748055 shell quartets total.
  Whereas there are 3454506 unique shell quartets.

  ==> DiskJK: Disk-Based J/K Matrices <==

    J tasked:                  Yes
    K tasked:                  Yes
    wK tasked:                  No
    Memory [MiB]:              375
    Schwarz Cutoff:          1E-12

    OpenMP threads:              1

  Minimum eigenvalue in the overlap matrix is 5.3627960599E-03.
  Using Symmetric Orthogonalization.

  SCF Guess: Superposition of Atomic Densities via on-the-fly atomic UHF.

  ==> Iterations <==

                        Total Energy        Delta E     RMS |[F,P]|

   @RHF iter SAD:  -196.30167091753952   -1.96302e+02   0.00000e+00
   @RHF iter   1:  -197.31509237477786   -1.01342e+00   3.76458e-03 DIIS
   @RHF iter   2:  -197.47311618617715   -1.58024e-01   1.61038e-03 DIIS
   @RHF iter   3:  -197.50060263502502   -2.74864e-02   3.23587e-04 DIIS
   @RHF iter   4:  -197.50279978668212   -2.19715e-03   4.81028e-05 DIIS
   @RHF iter   5:  -197.50283816905917   -3.83824e-05   1.47148e-05 DIIS
   @RHF iter   6:  -197.50284147904296   -3.30998e-06   2.52575e-06 DIIS
   @RHF iter   7:  -197.50284159599082   -1.16948e-07   4.88669e-07 DIIS
   @RHF iter   8:  -197.50284160151762   -5.52680e-09   1.30675e-07 DIIS
   @RHF iter   9:  -197.50284160189051   -3.72893e-10   4.29657e-08 DIIS
   @RHF iter  10:  -197.50284160193422   -4.37126e-11   8.88555e-09 DIIS
   @RHF iter  11:  -197.50284160193632   -2.10321e-12   1.53208e-09 DIIS
   @RHF iter  12:  -197.50284160193607    2.55795e-13   2.77488e-10 DIIS
   @RHF iter  13:  -197.50284160193632   -2.55795e-13   5.63777e-11 DIIS
  Energy and wave function converged.

  ==> Post-Iterations <==

    Orbital Energies [Eh]
    ---------------------

    Doubly Occupied:

       1A    -11.220599     2A    -11.219456     3A    -11.218242
       4A    -11.217571     5A    -11.216155     6A     -1.048842
       7A     -1.015576     8A     -0.923826     9A     -0.837399
      10A     -0.795193    11A     -0.625572    12A     -0.599024
      13A     -0.596495    14A     -0.589137    15A     -0.547816
      16A     -0.533232    17A     -0.499205    18A     -0.487820
      19A     -0.484148    20A     -0.474063    21A     -0.466242
      22A     -0.463751

    Virtual:

      23A      0.172166    24A      0.193715    25A      0.218872
      26A      0.224293    27A      0.227290    28A      0.250545
      29A      0.254640    30A      0.270923    31A      0.279616
      32A      0.281583    33A      0.293748    34A      0.304932
      35A      0.310306    36A      0.345106    37A      0.391374
      38A      0.395911    39A      0.427546    40A      0.570311
      41A      0.579751    42A      0.593764    43A      0.599287
      44A      0.607434    45A      0.618385    46A      0.634684
      47A      0.687625    48A      0.693244    49A      0.737303
      50A      0.794916    51A      0.806066    52A      0.835046
      53A      0.859351    54A      0.886606    55A      0.890846
      56A      0.892621    57A      0.896251    58A      0.900067
      59A      0.902775    60A      0.909551    61A      0.911995
      62A      0.919600    63A      0.932738    64A      0.937960
      65A      0.953464    66A      0.969117    67A      0.988604
      68A      1.030416    69A      1.118127    70A      1.130234
      71A      1.131051    72A      1.138026    73A      1.198671
      74A      1.257801    75A      1.378931    76A      1.460274
      77A      1.466018    78A      1.474947    79A      1.493001
      80A      1.543780    81A      1.590451    82A      1.622882
      83A      1.682436    84A      1.683115    85A      1.689325
      86A      1.693121    87A      1.693999    88A      1.839565
      89A      1.863289    90A      1.865594    91A      1.872744
      92A      1.885522    93A      1.899089    94A      1.913315
      95A      1.930530    96A      1.938314    97A      1.942211
      98A      1.946324    99A      1.946925   100A      1.957147
     101A      1.964921   102A      1.977318   103A      1.978290
     104A      1.994191   105A      2.018946   106A      2.035667
     107A      2.068805   108A      2.093043   109A      2.109234
     110A      2.141620   111A      2.165516   112A      2.288143
     113A      2.297605   114A      2.301547   115A      2.327516
     116A      2.336751   117A      2.356760   118A      2.454723
     119A      2.470498   120A      2.494665   121A      2.530671
     122A      2.557539   123A      2.567248   124A      2.572312
     125A      2.607978   126A      2.628436   127A      2.747848
     128A      2.758726   129A      2.766513   130A      2.789531
     131A      2.790015   132A      2.822228   133A      2.851906
     134A      2.861100   135A      2.902756   136A      2.942223
     137A      2.959078   138A      2.965942   139A      2.980499
     140A      3.045900

    Final Occupation by Irrep:
              A
    DOCC [    22 ]

  @RHF Final Energy:  -197.50284160193632

   => Energetics <=

    Nuclear Repulsion Energy =            175.4358189696888815
    One-Electron Energy =                -611.7185929519022238
    Two-Electron Energy =                 238.7799323802770459
    Total Energy =                       -197.5028416019363249

Computation Completed

Properties will be evaluated at   0.000000,   0.000000,   0.000000 [a0]

Properties computed using the SCF density matrix

  Nuclear Dipole Moment: [e a0]
     X:    -0.6239      Y:     0.4492      Z:    -0.9005

  Electronic Dipole Moment: [e a0]
     X:     0.5994      Y:    -0.4481      Z:     0.8949

  Dipole Moment: [e a0]
     X:    -0.0245      Y:     0.0012      Z:    -0.0057     Total:     0.0252

  Dipole Moment: [D]
     X:    -0.0623      Y:     0.0030      Z:    -0.0144     Total:     0.0640

*** tstop() called on ds3 at Mon Apr 27 16:49:30 2020
Module time:
	user time   =      18.15 seconds =       0.30 minutes
	system time =       7.10 seconds =       0.12 minutes
	total time  =         24 seconds =       0.40 minutes
Total time:
	user time   =      18.15 seconds =       0.30 minutes
	system time =       7.10 seconds =       0.12 minutes
	total time  =         24 seconds =       0.40 minutes
                                     G D M A

                                 by Anthony Stone

                           version 2.2.06, 22 June 2011

               Distributed Multipoles from Gaussian wavefunctions

Starting at 16:49:31 on 27 Apr 2020

Using SCF density matrix from file ./SSI/SSI-120VAL-123ILE-1-dimer.test.28200.fchk

                         Distributed Multipole Analysis

Standard DMA

Positions and radii in angstrom
Multipole moments in atomic units, ea_0^k for rank k

C          x = -1.620021  y =  0.398751  z = -1.480665 angstrom
           Maximum rank =  0   Radius =  0.650 angstrom
                   Q00  =  -0.239468

C          x = -2.110021  y =  1.126751  z = -2.741665 angstrom
           Maximum rank =  0   Radius =  0.650 angstrom
                   Q00  =  -0.242370

H          x = -1.848021  y = -0.665249  z = -1.556665 angstrom
           Maximum rank =  0   Radius =  0.325 angstrom
                   Q00  =   0.080400

H          x = -0.542021  y =  0.530751  z = -1.375665 angstrom
           Maximum rank =  0   Radius =  0.325 angstrom
                   Q00  =   0.081858

H          x = -2.116021  y =  0.810751  z = -0.601665 angstrom
           Maximum rank =  0   Radius =  0.325 angstrom
                   Q00  =   0.080006

H          x = -1.873021  y =  2.188751  z = -2.663665 angstrom
           Maximum rank =  0   Radius =  0.325 angstrom
                   Q00  =   0.080066

H          x = -3.196232  y =  1.022051  z = -2.880135 angstrom
           Maximum rank =  0   Radius =  0.325 angstrom
                   Q00  =   0.079830

H          x = -1.622779  y =  0.702751  z = -3.632065 angstrom
           Maximum rank =  0   Radius =  0.325 angstrom
                   Q00  =   0.078095

C          x =  0.745979  y = -0.529249  z =  1.209335 angstrom
           Maximum rank =  0   Radius =  0.650 angstrom
                   Q00  =  -0.082077

C          x =  1.085979  y = -1.279249  z =  2.493335 angstrom
           Maximum rank =  0   Radius =  0.650 angstrom
                   Q00  =  -0.233810

C          x =  1.953979  y =  0.242751  z =  0.600335 angstrom
           Maximum rank =  0   Radius =  0.650 angstrom
                   Q00  =  -0.259624

H          x =  0.373979  y = -1.259249  z =  0.491335 angstrom
           Maximum rank =  0   Radius =  0.325 angstrom
                   Q00  =   0.047983

H          x = -0.051021  y =  0.177751  z =  1.445335 angstrom
           Maximum rank =  0   Radius =  0.325 angstrom
                   Q00  =   0.049828

H          x =  1.313979  y = -0.503249  z =  3.224335 angstrom
           Maximum rank =  0   Radius =  0.325 angstrom
                   Q00  =   0.070764

H          x =  2.754979  y = -0.453249  z =  0.350335 angstrom
           Maximum rank =  0   Radius =  0.325 angstrom
                   Q00  =   0.081089

H          x =  1.642979  y =  0.756751  z = -0.310665 angstrom
           Maximum rank =  0   Radius =  0.325 angstrom
                   Q00  =   0.086236

H          x =  2.326979  y =  0.977751  z =  1.316335 angstrom
           Maximum rank =  0   Radius =  0.325 angstrom
                   Q00  =   0.079219

H          x =  0.217827  y = -1.858449  z =  2.840885 angstrom
           Maximum rank =  0   Radius =  0.325 angstrom
                   Q00  =   0.083873

H          x =  1.952869  y = -1.948649  z =  2.391395 angstrom
           Maximum rank =  0   Radius =  0.325 angstrom
                   Q00  =   0.078103

Total multipoles referred to origin at
           x =   0.000000,  y =    0.000000,  z =    0.000000 angstrom
                   Q00  =  -0.000000

Finished at 16:49:31 on 27 Apr 2020

  DMA results are available in the Python driver through the
	  variable('DMA DISTRIBUTED MULTIPOLES')
  and
	  variable('DMA TOTAL MULTIPOLES')
  commands.

    Psi4 stopped on: Monday, 27 April 2020 04:49PM
    Psi4 wall time for execution: 0:00:24.15

*** Psi4 exiting successfully. Buy a developer a beer!
