                               Psi4 1.3.2 release

  ==> Input File <==

--------------------------------------------------------------------------
import numpy as np
set {scf_type pk
basis cc-pvdz
d_convergence 10
gdma_switch   0
gdma_limit    0
gdma_origin   [ 0.0,  0.0,  0.0 ]
}
molecule test {
    units Angstrom
    0 1
    --
    0 1
    C                0.058377251367906     0.356321348420547    -1.352848237819201
    C                0.336377251367906     0.395321348420547    -2.848848237819201
    H                0.896377251367906    -0.090678651579453    -0.820848237819201
    H               -0.077622748632094     1.365321348420547    -0.978848237819201
    H               -0.845622748632094    -0.219678651579453    -1.167848237819201
    H                1.268377251367906     0.936321348420547    -3.008848237819201
    H                0.451153251367906    -0.628338651579453    -3.234783237819201
    H               -0.471495748632094     0.923574348420547    -3.376380237819201
    C               -0.945622748632094    -0.451678651579453     1.957151762180799
    C                0.549377251367906    -0.303678651579453     2.246151762180799
    H               -1.515622748632094    -0.002678651579453     2.760151762180799
    H               -1.203622748632094     0.069321348420547     1.039151762180799
    H               -1.210622748632094    -1.504678651579453     1.856151762180799
    H                1.091377251367906    -0.723678651579453     1.401151762180799
    H                0.828770251367906    -0.841634651579453     3.164051762180799
    H                0.806307251367906     0.761057348420547     2.347762762180799

}
e, wfn = energy('scf', return_wfn=True)
gdma(wfn)
dmavals = variable('DMA DISTRIBUTED MULTIPOLES')
charges = np.array(dmavals)
print(charges)
np.save('SSI-006VAL-026LEU-1-dimer.npy', np.array(charges))--------------------------------------------------------------------------

*** tstart() called on ds3
*** at Mon Apr 27 22:55:54 2020

   => Loading Basis Set <=

    Name: CC-PVDZ
    Role: ORBITAL
    Keyword: BASIS
    atoms 1-2, 9-10  entry C          line   138 file /theoryfs2/ds/metcalf/miniconda2/envs/tf2gpu/share/psi4/basis/cc-pvdz.gbs
    atoms 3-8, 11-16 entry H          line    22 file /theoryfs2/ds/metcalf/miniconda2/envs/tf2gpu/share/psi4/basis/cc-pvdz.gbs

         ---------------------------------------------------------
                                   SCF
               by Justin Turney, Rob Parrish, Andy Simmonett
                          and Daniel G. A. Smith
                              RHF Reference
                        1 Threads,    500 MiB Core
         ---------------------------------------------------------

  ==> Geometry <==

    Molecular point group: c1
    Full point group: C1

    Geometry (in Angstrom), charge = 0, multiplicity = 1:

       Center              X                  Y                   Z               Mass
    ------------   -----------------  -----------------  -----------------  -----------------
         C            0.058377251368     0.356321348421    -1.352848237819    12.000000000000
         C            0.336377251368     0.395321348421    -2.848848237819    12.000000000000
         H            0.896377251368    -0.090678651579    -0.820848237819     1.007825032230
         H           -0.077622748632     1.365321348421    -0.978848237819     1.007825032230
         H           -0.845622748632    -0.219678651579    -1.167848237819     1.007825032230
         H            1.268377251368     0.936321348421    -3.008848237819     1.007825032230
         H            0.451153251368    -0.628338651579    -3.234783237819     1.007825032230
         H           -0.471495748632     0.923574348421    -3.376380237819     1.007825032230
         C           -0.945622748632    -0.451678651579     1.957151762181    12.000000000000
         C            0.549377251368    -0.303678651579     2.246151762181    12.000000000000
         H           -1.515622748632    -0.002678651579     2.760151762181     1.007825032230
         H           -1.203622748632     0.069321348421     1.039151762181     1.007825032230
         H           -1.210622748632    -1.504678651579     1.856151762181     1.007825032230
         H            1.091377251368    -0.723678651579     1.401151762181     1.007825032230
         H            0.828770251368    -0.841634651579     3.164051762181     1.007825032230
         H            0.806307251368     0.761057348421     2.347762762181     1.007825032230

  Running in c1 symmetry.

  Rotational constants: A =      0.52943  B =      0.05488  C =      0.05182 [cm^-1]
  Rotational constants: A =  15871.83039  B =   1645.12694  C =   1553.45920 [MHz]
  Nuclear repulsion =  125.187842624803608

  Charge       = 0
  Multiplicity = 1
  Electrons    = 36
  Nalpha       = 18
  Nbeta        = 18

  ==> Algorithm <==

  SCF Algorithm Type is PK.
  DIIS enabled.
  MOM disabled.
  Fractional occupation disabled.
  Guess Type is SAD.
  Energy threshold   = 1.00e-06
  Density threshold  = 1.00e-10
  Integral threshold = 0.00e+00

  ==> Primary Basis <==

  Basis Set: CC-PVDZ
    Blend: CC-PVDZ
    Number of shells: 60
    Number of basis function: 116
    Number of Cartesian functions: 120
    Spherical Harmonics?: true
    Max angular momentum: 2

  ==> Pre-Iterations <==

   -------------------------------------------------------
    Irrep   Nso     Nmo     Nalpha   Nbeta   Ndocc  Nsocc
   -------------------------------------------------------
     A        116     116       0       0       0       0
   -------------------------------------------------------
    Total     116     116      18      18      18       0
   -------------------------------------------------------

  ==> Integral Setup <==

  Using integral reordering PK algorithm.
  Sizing the integral batches needed.
  Building batch lookup table.
   Calculation information:
      Number of atoms:                  16
      Number of AO shells:              60
      Number of primitives:            148
      Number of atomic orbitals:       120
      Number of basis functions:       116

      Integral cutoff                 1.00e-12
      Number of threads:                 1

	Batch   1 pq = [       0,    6786] index = [             0,23028291] size =     23028291
  Task number: 3
  Buffer size: 11059200
  Buffer per thread: 2
  We computed 1501798 shell quartets total.
  Whereas there are 1675365 unique shell quartets.

  ==> DiskJK: Disk-Based J/K Matrices <==

    J tasked:                  Yes
    K tasked:                  Yes
    wK tasked:                  No
    Memory [MiB]:              375
    Schwarz Cutoff:          1E-12

    OpenMP threads:              1

  Minimum eigenvalue in the overlap matrix is 5.8943505942E-03.
  Using Symmetric Orthogonalization.

  SCF Guess: Superposition of Atomic Densities via on-the-fly atomic UHF.

  ==> Iterations <==

                        Total Energy        Delta E     RMS |[F,P]|

   @RHF iter SAD:  -157.39917752341336   -1.57399e+02   0.00000e+00
   @RHF iter   1:  -158.30506628759508   -9.05889e-01   4.22340e-03 DIIS
   @RHF iter   2:  -158.43950661211409   -1.34440e-01   1.78624e-03 DIIS
   @RHF iter   3:  -158.46272196649909   -2.32154e-02   3.51183e-04 DIIS
   @RHF iter   4:  -158.46456272853391   -1.84076e-03   3.86632e-05 DIIS
   @RHF iter   5:  -158.46458635223081   -2.36237e-05   6.43649e-06 DIIS
   @RHF iter   6:  -158.46458696868223   -6.16451e-07   1.07607e-06 DIIS
   @RHF iter   7:  -158.46458698032964   -1.16474e-08   3.08933e-07 DIIS
   @RHF iter   8:  -158.46458698117357   -8.43926e-10   4.38132e-08 DIIS
   @RHF iter   9:  -158.46458698120227   -2.87059e-11   9.61851e-09 DIIS
   @RHF iter  10:  -158.46458698120307   -7.95808e-13   2.22921e-09 DIIS
   @RHF iter  11:  -158.46458698120438   -1.30740e-12   4.38168e-10 DIIS
   @RHF iter  12:  -158.46458698120401    3.69482e-13   1.41616e-10 DIIS
   @RHF iter  13:  -158.46458698120409   -8.52651e-14   3.00060e-11 DIIS
  Energy and wave function converged.

  ==> Post-Iterations <==

    Orbital Energies [Eh]
    ---------------------

    Doubly Occupied:

       1A    -11.218906     2A    -11.217659     3A    -11.215721
       4A    -11.212937     5A     -1.022465     6A     -1.015934
       7A     -0.838126     8A     -0.834987     9A     -0.603294
      10A     -0.601342    11A     -0.596552    12A     -0.595456
      13A     -0.503628    14A     -0.496602    15A     -0.493077
      16A     -0.487332    17A     -0.484084    18A     -0.475088

    Virtual:

      19A      0.176985    20A      0.196397    21A      0.229423
      22A      0.237471    23A      0.243536    24A      0.262845
      25A      0.266740    26A      0.278588    27A      0.283261
      28A      0.290250    29A      0.321309    30A      0.351222
      31A      0.391451    32A      0.412007    33A      0.568792
      34A      0.590932    35A      0.596411    36A      0.606516
      37A      0.609130    38A      0.652376    39A      0.662951
      40A      0.703110    41A      0.738964    42A      0.765379
      43A      0.839534    44A      0.861030    45A      0.888311
      46A      0.893553    47A      0.895852    48A      0.899759
      49A      0.908624    50A      0.915591    51A      0.919432
      52A      0.935278    53A      0.954568    54A      0.959862
      55A      0.986991    56A      1.019621    57A      1.122438
      58A      1.129319    59A      1.134310    60A      1.152687
      61A      1.228611    62A      1.278918    63A      1.465490
      64A      1.475597    65A      1.482738    66A      1.503764
      67A      1.558358    68A      1.591034    69A      1.678085
      70A      1.692097    71A      1.694360    72A      1.703300
      73A      1.842792    74A      1.864657    75A      1.869181
      76A      1.890051    77A      1.896460    78A      1.925672
      79A      1.932771    80A      1.943689    81A      1.949264
      82A      1.949714    83A      1.958842    84A      1.959955
      85A      1.972476    86A      1.991231    87A      1.995609
      88A      2.069240    89A      2.094756    90A      2.101737
      91A      2.118341    92A      2.135807    93A      2.287206
      94A      2.305912    95A      2.310525    96A      2.362293
      97A      2.447358    98A      2.462192    99A      2.476992
     100A      2.490122   101A      2.559836   102A      2.569223
     103A      2.581004   104A      2.590194   105A      2.762197
     106A      2.769887   107A      2.798278   108A      2.804077
     109A      2.849725   110A      2.854153   111A      2.859697
     112A      2.868900   113A      2.954318   114A      2.957396
     115A      2.970209   116A      2.986031

    Final Occupation by Irrep:
              A
    DOCC [    18 ]

  @RHF Final Energy:  -158.46458698120409

   => Energetics <=

    Nuclear Repulsion Energy =            125.1878426248036078
    One-Electron Energy =                -459.4784840940428694
    Two-Electron Energy =                 175.8260544880351972
    Total Energy =                       -158.4645869812040928

Computation Completed

Properties will be evaluated at   0.000000,   0.000000,   0.000000 [a0]

Properties computed using the SCF density matrix

  Nuclear Dipole Moment: [e a0]
     X:     0.0166      Y:     0.0415      Z:    -0.0179

  Electronic Dipole Moment: [e a0]
     X:    -0.0180      Y:    -0.0287      Z:    -0.0023

  Dipole Moment: [e a0]
     X:    -0.0013      Y:     0.0127      Z:    -0.0202     Total:     0.0240

  Dipole Moment: [D]
     X:    -0.0034      Y:     0.0324      Z:    -0.0515     Total:     0.0609

*** tstop() called on ds3 at Mon Apr 27 22:56:06 2020
Module time:
	user time   =       8.40 seconds =       0.14 minutes
	system time =       3.02 seconds =       0.05 minutes
	total time  =         12 seconds =       0.20 minutes
Total time:
	user time   =       8.40 seconds =       0.14 minutes
	system time =       3.02 seconds =       0.05 minutes
	total time  =         12 seconds =       0.20 minutes
                                     G D M A

                                 by Anthony Stone

                           version 2.2.06, 22 June 2011

               Distributed Multipoles from Gaussian wavefunctions

Starting at 22:56:6 on 27 Apr 2020

Using SCF density matrix from file ./SSI/SSI-006VAL-026LEU-1-dimer.test.4010.fchk

                         Distributed Multipole Analysis

Standard DMA

Positions and radii in angstrom
Multipole moments in atomic units, ea_0^k for rank k

C          x =  0.058377  y =  0.356321  z = -1.352848 angstrom
           Maximum rank =  0   Radius =  0.650 angstrom
                   Q00  =  -0.237488

C          x =  0.336377  y =  0.395321  z = -2.848848 angstrom
           Maximum rank =  0   Radius =  0.650 angstrom
                   Q00  =  -0.232053

H          x =  0.896377  y = -0.090679  z = -0.820848 angstrom
           Maximum rank =  0   Radius =  0.325 angstrom
                   Q00  =   0.081088

H          x = -0.077623  y =  1.365321  z = -0.978848 angstrom
           Maximum rank =  0   Radius =  0.325 angstrom
                   Q00  =   0.077672

H          x = -0.845623  y = -0.219679  z = -1.167848 angstrom
           Maximum rank =  0   Radius =  0.325 angstrom
                   Q00  =   0.076501

H          x =  1.268377  y =  0.936321  z = -3.008848 angstrom
           Maximum rank =  0   Radius =  0.325 angstrom
                   Q00  =   0.078223

H          x =  0.451153  y = -0.628339  z = -3.234783 angstrom
           Maximum rank =  0   Radius =  0.325 angstrom
                   Q00  =   0.079448

H          x = -0.471496  y =  0.923574  z = -3.376380 angstrom
           Maximum rank =  0   Radius =  0.325 angstrom
                   Q00  =   0.079491

C          x = -0.945623  y = -0.451679  z =  1.957152 angstrom
           Maximum rank =  0   Radius =  0.650 angstrom
                   Q00  =  -0.245800

C          x =  0.549377  y = -0.303679  z =  2.246152 angstrom
           Maximum rank =  0   Radius =  0.650 angstrom
                   Q00  =  -0.230562

H          x = -1.515623  y = -0.002679  z =  2.760152 angstrom
           Maximum rank =  0   Radius =  0.325 angstrom
                   Q00  =   0.077379

H          x = -1.203623  y =  0.069321  z =  1.039152 angstrom
           Maximum rank =  0   Radius =  0.325 angstrom
                   Q00  =   0.084204

H          x = -1.210623  y = -1.504679  z =  1.856152 angstrom
           Maximum rank =  0   Radius =  0.325 angstrom
                   Q00  =   0.077739

H          x =  1.091377  y = -0.723679  z =  1.401152 angstrom
           Maximum rank =  0   Radius =  0.325 angstrom
                   Q00  =   0.076878

H          x =  0.828770  y = -0.841635  z =  3.164052 angstrom
           Maximum rank =  0   Radius =  0.325 angstrom
                   Q00  =   0.079376

H          x =  0.806307  y =  0.761057  z =  2.347763 angstrom
           Maximum rank =  0   Radius =  0.325 angstrom
                   Q00  =   0.077904

Total multipoles referred to origin at
           x =   0.000000,  y =    0.000000,  z =    0.000000 angstrom
                   Q00  =  -0.000000

Finished at 22:56:6 on 27 Apr 2020

  DMA results are available in the Python driver through the
	  variable('DMA DISTRIBUTED MULTIPOLES')
  and
	  variable('DMA TOTAL MULTIPOLES')
  commands.

    Psi4 stopped on: Monday, 27 April 2020 10:56PM
    Psi4 wall time for execution: 0:00:11.74

*** Psi4 exiting successfully. Buy a developer a beer!
