                               Psi4 1.3.2 release

  ==> Input File <==

--------------------------------------------------------------------------
import numpy as np
set {scf_type pk
basis cc-pvdz
d_convergence 10
gdma_switch   0
gdma_limit    0
gdma_origin   [ 0.0,  0.0,  0.0 ]
}
molecule test {
    units Angstrom
    0 1
    --
    0 1
    C                0.724609893551195     1.215198753131079     1.152742089911045
    C                1.965609893551195     1.688198753131079     1.910742089911045
    H                0.481609893551195     0.188198753131079     1.421742089911045
    H               -0.122390106448805     1.852198753131079     1.405742089911046
    H                0.905609893551195     1.277198753131079     0.079742089911045
    H                1.756609893551195     1.650198753131079     2.980742089911046
    H                2.100609893551195     2.729198753131080     1.625742089911046
    H                2.877575893551195     1.112519753131079     1.694150089911045
    C               -1.023390106448805    -1.226801246868921    -0.882257910088955
    C               -1.668390106448805    -1.686801246868921    -2.179257910088954
    H               -1.744390106448805    -1.286801246868921    -0.070257910088955
    H               -0.166390106448805    -1.858801246868921    -0.651257910088955
    H               -0.683390106448805    -0.198801246868921    -0.987257910088955
    H               -0.931390106448805    -1.532801246868921    -2.966257910088954
    H               -2.543283106448805    -1.051367246868921    -2.381211910088955
    H               -1.912202106448805    -2.759432246868921    -2.175053910088954

}
e, wfn = energy('scf', return_wfn=True)
gdma(wfn)
dmavals = variable('DMA DISTRIBUTED MULTIPOLES')
charges = np.array(dmavals)
print(charges)
np.save('SSI-015ILE-023LEU-1-dimer.npy', np.array(charges))--------------------------------------------------------------------------

*** tstart() called on ds3
*** at Sun Apr 26 18:15:16 2020

   => Loading Basis Set <=

    Name: CC-PVDZ
    Role: ORBITAL
    Keyword: BASIS
    atoms 1-2, 9-10  entry C          line   138 file /theoryfs2/ds/metcalf/miniconda2/envs/tf2gpu/share/psi4/basis/cc-pvdz.gbs
    atoms 3-8, 11-16 entry H          line    22 file /theoryfs2/ds/metcalf/miniconda2/envs/tf2gpu/share/psi4/basis/cc-pvdz.gbs

         ---------------------------------------------------------
                                   SCF
               by Justin Turney, Rob Parrish, Andy Simmonett
                          and Daniel G. A. Smith
                              RHF Reference
                        1 Threads,    500 MiB Core
         ---------------------------------------------------------

  ==> Geometry <==

    Molecular point group: c1
    Full point group: C1

    Geometry (in Angstrom), charge = 0, multiplicity = 1:

       Center              X                  Y                   Z               Mass
    ------------   -----------------  -----------------  -----------------  -----------------
         C            0.724609893551     1.215198753131     1.152742089911    12.000000000000
         C            1.965609893551     1.688198753131     1.910742089911    12.000000000000
         H            0.481609893551     0.188198753131     1.421742089911     1.007825032230
         H           -0.122390106449     1.852198753131     1.405742089911     1.007825032230
         H            0.905609893551     1.277198753131     0.079742089911     1.007825032230
         H            1.756609893551     1.650198753131     2.980742089911     1.007825032230
         H            2.100609893551     2.729198753131     1.625742089911     1.007825032230
         H            2.877575893551     1.112519753131     1.694150089911     1.007825032230
         C           -1.023390106449    -1.226801246869    -0.882257910089    12.000000000000
         C           -1.668390106449    -1.686801246869    -2.179257910089    12.000000000000
         H           -1.744390106449    -1.286801246869    -0.070257910089     1.007825032230
         H           -0.166390106449    -1.858801246869    -0.651257910089     1.007825032230
         H           -0.683390106449    -0.198801246869    -0.987257910089     1.007825032230
         H           -0.931390106449    -1.532801246869    -2.966257910089     1.007825032230
         H           -2.543283106449    -1.051367246869    -2.381211910089     1.007825032230
         H           -1.912202106449    -2.759432246869    -2.175053910089     1.007825032230

  Running in c1 symmetry.

  Rotational constants: A =      0.93145  B =      0.03981  C =      0.03976 [cm^-1]
  Rotational constants: A =  27924.10508  B =   1193.43257  C =   1192.05289 [MHz]
  Nuclear repulsion =  120.412800352153567

  Charge       = 0
  Multiplicity = 1
  Electrons    = 36
  Nalpha       = 18
  Nbeta        = 18

  ==> Algorithm <==

  SCF Algorithm Type is PK.
  DIIS enabled.
  MOM disabled.
  Fractional occupation disabled.
  Guess Type is SAD.
  Energy threshold   = 1.00e-06
  Density threshold  = 1.00e-10
  Integral threshold = 0.00e+00

  ==> Primary Basis <==

  Basis Set: CC-PVDZ
    Blend: CC-PVDZ
    Number of shells: 60
    Number of basis function: 116
    Number of Cartesian functions: 120
    Spherical Harmonics?: true
    Max angular momentum: 2

  ==> Pre-Iterations <==

   -------------------------------------------------------
    Irrep   Nso     Nmo     Nalpha   Nbeta   Ndocc  Nsocc
   -------------------------------------------------------
     A        116     116       0       0       0       0
   -------------------------------------------------------
    Total     116     116      18      18      18       0
   -------------------------------------------------------

  ==> Integral Setup <==

  Using integral reordering PK algorithm.
  Sizing the integral batches needed.
  Building batch lookup table.
   Calculation information:
      Number of atoms:                  16
      Number of AO shells:              60
      Number of primitives:            148
      Number of atomic orbitals:       120
      Number of basis functions:       116

      Integral cutoff                 1.00e-12
      Number of threads:                 1

	Batch   1 pq = [       0,    6786] index = [             0,23028291] size =     23028291
  Task number: 3
  Buffer size: 11059200
  Buffer per thread: 2
  We computed 1336613 shell quartets total.
  Whereas there are 1675365 unique shell quartets.

  ==> DiskJK: Disk-Based J/K Matrices <==

    J tasked:                  Yes
    K tasked:                  Yes
    wK tasked:                  No
    Memory [MiB]:              375
    Schwarz Cutoff:          1E-12

    OpenMP threads:              1

  Minimum eigenvalue in the overlap matrix is 5.8466902175E-03.
  Using Symmetric Orthogonalization.

  SCF Guess: Superposition of Atomic Densities via on-the-fly atomic UHF.

  ==> Iterations <==

                        Total Energy        Delta E     RMS |[F,P]|

   @RHF iter SAD:  -157.37851798038784   -1.57379e+02   0.00000e+00
   @RHF iter   1:  -158.30435818791315   -9.25840e-01   4.23417e-03 DIIS
   @RHF iter   2:  -158.43889772908420   -1.34540e-01   1.80036e-03 DIIS
   @RHF iter   3:  -158.46241063676266   -2.35129e-02   3.51521e-04 DIIS
   @RHF iter   4:  -158.46425763427143   -1.84700e-03   3.94292e-05 DIIS
   @RHF iter   5:  -158.46428213311998   -2.44988e-05   7.06175e-06 DIIS
   @RHF iter   6:  -158.46428285442070   -7.21301e-07   1.31842e-06 DIIS
   @RHF iter   7:  -158.46428287120921   -1.67885e-08   3.43922e-07 DIIS
   @RHF iter   8:  -158.46428287242423   -1.21503e-09   4.97134e-08 DIIS
   @RHF iter   9:  -158.46428287246954   -4.53042e-11   1.02326e-08 DIIS
   @RHF iter  10:  -158.46428287247139   -1.84741e-12   2.90978e-09 DIIS
   @RHF iter  11:  -158.46428287247096    4.26326e-13   7.90119e-10 DIIS
   @RHF iter  12:  -158.46428287247110   -1.42109e-13   1.58935e-10 DIIS
   @RHF iter  13:  -158.46428287247096    1.42109e-13   2.70432e-11 DIIS
  Energy and wave function converged.

  ==> Post-Iterations <==

    Orbital Energies [Eh]
    ---------------------

    Doubly Occupied:

       1A    -11.217413     2A    -11.217225     3A    -11.215866
       4A    -11.213648     5A     -1.020670     6A     -1.018013
       7A     -0.839161     8A     -0.831258     9A     -0.601534
      10A     -0.599845    11A     -0.599275    12A     -0.594773
      13A     -0.506601    14A     -0.497983    15A     -0.488105
      16A     -0.484802    17A     -0.481224    18A     -0.477456

    Virtual:

      19A      0.178172    20A      0.193321    21A      0.223706
      22A      0.234864    23A      0.247566    24A      0.258071
      25A      0.267998    26A      0.279309    27A      0.281709
      28A      0.288652    29A      0.294754    30A      0.329291
      31A      0.396304    32A      0.415527    33A      0.572330
      34A      0.589098    35A      0.599088    36A      0.605431
      37A      0.610473    38A      0.651746    39A      0.662234
      40A      0.684171    41A      0.705671    42A      0.759548
      43A      0.848891    44A      0.887786    45A      0.891200
      46A      0.893169    47A      0.896006    48A      0.898216
      49A      0.903167    50A      0.906436    51A      0.917383
      52A      0.919817    53A      0.941743    54A      0.945597
      55A      0.963037    56A      1.003378    57A      1.119875
      58A      1.124081    59A      1.132336    60A      1.153625
      61A      1.227775    62A      1.252237    63A      1.457649
      64A      1.471672    65A      1.489257    66A      1.495889
      67A      1.582868    68A      1.595923    69A      1.676630
      70A      1.681160    71A      1.693415    72A      1.696721
      73A      1.841527    74A      1.850739    75A      1.864180
      76A      1.878816    77A      1.885609    78A      1.912454
      79A      1.937839    80A      1.940806    81A      1.948399
      82A      1.954993    83A      1.960212    84A      1.962853
      85A      1.970134    86A      1.981030    87A      2.011960
      88A      2.051378    89A      2.088057    90A      2.094282
      91A      2.136234    92A      2.139392    93A      2.294645
      94A      2.302453    95A      2.322174    96A      2.336666
      97A      2.443540    98A      2.454217    99A      2.477343
     100A      2.489663   101A      2.553567   102A      2.565867
     103A      2.587215   104A      2.589114   105A      2.760900
     106A      2.770432   107A      2.788040   108A      2.803264
     109A      2.839660   110A      2.847489   111A      2.861152
     112A      2.867827   113A      2.942909   114A      2.946198
     115A      2.966381   116A      2.973621

    Final Occupation by Irrep:
              A
    DOCC [    18 ]

  @RHF Final Energy:  -158.46428287247096

   => Energetics <=

    Nuclear Repulsion Energy =            120.4128003521535675
    One-Electron Energy =                -449.9444643169932760
    Two-Electron Energy =                 171.0673810923687483
    Total Energy =                       -158.4642828724709602

Computation Completed

Properties will be evaluated at   0.000000,   0.000000,   0.000000 [a0]

Properties computed using the SCF density matrix

  Nuclear Dipole Moment: [e a0]
     X:     0.0174      Y:     0.1139      Z:    -0.0220

  Electronic Dipole Moment: [e a0]
     X:    -0.0088      Y:    -0.0944      Z:     0.0290

  Dipole Moment: [e a0]
     X:     0.0086      Y:     0.0195      Z:     0.0070     Total:     0.0225

  Dipole Moment: [D]
     X:     0.0218      Y:     0.0496      Z:     0.0179     Total:     0.0571

*** tstop() called on ds3 at Sun Apr 26 18:15:26 2020
Module time:
	user time   =       6.90 seconds =       0.12 minutes
	system time =       2.38 seconds =       0.04 minutes
	total time  =         10 seconds =       0.17 minutes
Total time:
	user time   =       6.90 seconds =       0.12 minutes
	system time =       2.38 seconds =       0.04 minutes
	total time  =         10 seconds =       0.17 minutes
                                     G D M A

                                 by Anthony Stone

                           version 2.2.06, 22 June 2011

               Distributed Multipoles from Gaussian wavefunctions

Starting at 18:15:26 on 26 Apr 2020

Using SCF density matrix from file ./SSI/SSI-015ILE-023LEU-1-dimer.test.32574.fchk

                         Distributed Multipole Analysis

Standard DMA

Positions and radii in angstrom
Multipole moments in atomic units, ea_0^k for rank k

C          x =  0.724610  y =  1.215199  z =  1.152742 angstrom
           Maximum rank =  0   Radius =  0.650 angstrom
                   Q00  =  -0.237119

C          x =  1.965610  y =  1.688199  z =  1.910742 angstrom
           Maximum rank =  0   Radius =  0.650 angstrom
                   Q00  =  -0.235012

H          x =  0.481610  y =  0.188199  z =  1.421742 angstrom
           Maximum rank =  0   Radius =  0.325 angstrom
                   Q00  =   0.080916

H          x = -0.122390  y =  1.852199  z =  1.405742 angstrom
           Maximum rank =  0   Radius =  0.325 angstrom
                   Q00  =   0.080179

H          x =  0.905610  y =  1.277199  z =  0.079742 angstrom
           Maximum rank =  0   Radius =  0.325 angstrom
                   Q00  =   0.075583

H          x =  1.756610  y =  1.650199  z =  2.980742 angstrom
           Maximum rank =  0   Radius =  0.325 angstrom
                   Q00  =   0.078330

H          x =  2.100610  y =  2.729199  z =  1.625742 angstrom
           Maximum rank =  0   Radius =  0.325 angstrom
                   Q00  =   0.075483

H          x =  2.877576  y =  1.112520  z =  1.694150 angstrom
           Maximum rank =  0   Radius =  0.325 angstrom
                   Q00  =   0.083074

C          x = -1.023390  y = -1.226801  z = -0.882258 angstrom
           Maximum rank =  0   Radius =  0.650 angstrom
                   Q00  =  -0.235239

C          x = -1.668390  y = -1.686801  z = -2.179258 angstrom
           Maximum rank =  0   Radius =  0.650 angstrom
                   Q00  =  -0.232798

H          x = -1.744390  y = -1.286801  z = -0.070258 angstrom
           Maximum rank =  0   Radius =  0.325 angstrom
                   Q00  =   0.076103

H          x = -0.166390  y = -1.858801  z = -0.651258 angstrom
           Maximum rank =  0   Radius =  0.325 angstrom
                   Q00  =   0.076051

H          x = -0.683390  y = -0.198801  z = -0.987258 angstrom
           Maximum rank =  0   Radius =  0.325 angstrom
                   Q00  =   0.081497

H          x = -0.931390  y = -1.532801  z = -2.966258 angstrom
           Maximum rank =  0   Radius =  0.325 angstrom
                   Q00  =   0.073894

H          x = -2.543283  y = -1.051367  z = -2.381212 angstrom
           Maximum rank =  0   Radius =  0.325 angstrom
                   Q00  =   0.078211

H          x = -1.912202  y = -2.759432  z = -2.175054 angstrom
           Maximum rank =  0   Radius =  0.325 angstrom
                   Q00  =   0.080847

Total multipoles referred to origin at
           x =   0.000000,  y =    0.000000,  z =    0.000000 angstrom
                   Q00  =  -0.000000

Finished at 18:15:26 on 26 Apr 2020

  DMA results are available in the Python driver through the
	  variable('DMA DISTRIBUTED MULTIPOLES')
  and
	  variable('DMA TOTAL MULTIPOLES')
  commands.

    Psi4 stopped on: Sunday, 26 April 2020 06:15PM
    Psi4 wall time for execution: 0:00:10.93

*** Psi4 exiting successfully. Buy a developer a beer!
