                               Psi4 1.3.2 release

  ==> Input File <==

--------------------------------------------------------------------------
import numpy as np
set {scf_type pk
basis cc-pvdz
d_convergence 10
gdma_switch   0
gdma_limit    0
gdma_origin   [ 0.0,  0.0,  0.0 ]
}
molecule test {
    units Angstrom
    0 1
    --
    0 1
    C                2.521377874308443    -0.217889803367407     0.875633350529800
    C                0.035377874308443    -0.189889803367407     0.575633350529800
    C                1.263377874308443    -0.726889803367407     0.207633350529800
    C               -1.129622125691557    -0.607889803367407    -0.058366649470200
    C                1.286377874308443    -1.736889803367408    -0.761366649470200
    C               -1.080622125691557    -1.569889803367408    -1.054366649470200
    C                0.130377874308443    -2.158889803367408    -1.391366649470200
    O               -2.253622125691557    -1.928889803367408    -1.659366649470200
    H               -0.022622125691557     0.545110196632593     1.364633350529800
    H               -2.084622125691557    -0.216889803367407     0.249633350529800
    H                2.990377874308443    -1.043889803367408     1.410633350529800
    H                2.238377874308443     0.527110196632593     1.620633350529800
    H                2.220377874308443    -2.212889803367408    -1.015366649470200
    H                0.171377874308443    -2.941889803367407    -2.132366649470200
    H               -2.044622125691558    -2.452889803367408    -2.454366649470200
    H                3.255382874308443     0.239880196632593     0.196163350529800
    C               -0.024622125691557     3.471110196632593     1.299633350529800
    C               -0.434622125691557     4.845110196632593     1.805633350529800
    H                0.958377874308443     3.208110196632592     1.694633350529800
    H               -0.752622125691557     2.735110196632593     1.638633350529800
    H                0.001377874308443     3.450110196632592     0.209633350529800
    H               -1.383622125691557     5.072110196632592     1.314633350529800
    H                0.288354874308443     5.618870196632592     1.507983350529800
    H               -0.638878125691557     4.892250196632593     2.885473350529800

}
e, wfn = energy('scf', return_wfn=True)
gdma(wfn)
dmavals = variable('DMA DISTRIBUTED MULTIPOLES')
charges = np.array(dmavals)
print(charges)
np.save('SSI-094TYR-151VAL-1-dimer.npy', np.array(charges))--------------------------------------------------------------------------

*** tstart() called on ds3
*** at Tue Apr 28 00:02:20 2020

   => Loading Basis Set <=

    Name: CC-PVDZ
    Role: ORBITAL
    Keyword: BASIS
    atoms 1-7, 17-18  entry C          line   138 file /theoryfs2/ds/metcalf/miniconda2/envs/tf2gpu/share/psi4/basis/cc-pvdz.gbs
    atoms 8           entry O          line   198 file /theoryfs2/ds/metcalf/miniconda2/envs/tf2gpu/share/psi4/basis/cc-pvdz.gbs
    atoms 9-16, 19-24 entry H          line    22 file /theoryfs2/ds/metcalf/miniconda2/envs/tf2gpu/share/psi4/basis/cc-pvdz.gbs

         ---------------------------------------------------------
                                   SCF
               by Justin Turney, Rob Parrish, Andy Simmonett
                          and Daniel G. A. Smith
                              RHF Reference
                        1 Threads,    500 MiB Core
         ---------------------------------------------------------

  ==> Geometry <==

    Molecular point group: c1
    Full point group: C1

    Geometry (in Angstrom), charge = 0, multiplicity = 1:

       Center              X                  Y                   Z               Mass
    ------------   -----------------  -----------------  -----------------  -----------------
         C            2.521377874308    -0.217889803367     0.875633350530    12.000000000000
         C            0.035377874308    -0.189889803367     0.575633350530    12.000000000000
         C            1.263377874308    -0.726889803367     0.207633350530    12.000000000000
         C           -1.129622125692    -0.607889803367    -0.058366649470    12.000000000000
         C            1.286377874308    -1.736889803367    -0.761366649470    12.000000000000
         C           -1.080622125692    -1.569889803367    -1.054366649470    12.000000000000
         C            0.130377874308    -2.158889803367    -1.391366649470    12.000000000000
         O           -2.253622125692    -1.928889803367    -1.659366649470    15.994914619570
         H           -0.022622125692     0.545110196633     1.364633350530     1.007825032230
         H           -2.084622125692    -0.216889803367     0.249633350530     1.007825032230
         H            2.990377874308    -1.043889803367     1.410633350530     1.007825032230
         H            2.238377874308     0.527110196633     1.620633350530     1.007825032230
         H            2.220377874308    -2.212889803367    -1.015366649470     1.007825032230
         H            0.171377874308    -2.941889803367    -2.132366649470     1.007825032230
         H           -2.044622125692    -2.452889803367    -2.454366649470     1.007825032230
         H            3.255382874308     0.239880196633     0.196163350530     1.007825032230
         C           -0.024622125692     3.471110196633     1.299633350530    12.000000000000
         C           -0.434622125692     4.845110196633     1.805633350530    12.000000000000
         H            0.958377874308     3.208110196633     1.694633350530     1.007825032230
         H           -0.752622125692     2.735110196633     1.638633350530     1.007825032230
         H            0.001377874308     3.450110196633     0.209633350530     1.007825032230
         H           -1.383622125692     5.072110196633     1.314633350530     1.007825032230
         H            0.288354874308     5.618870196633     1.507983350530     1.007825032230
         H           -0.638878125692     4.892250196633     2.885473350530     1.007825032230

  Running in c1 symmetry.

  Rotational constants: A =      0.05466  B =      0.01809  C =      0.01405 [cm^-1]
  Rotational constants: A =   1638.68051  B =    542.21155  C =    421.13647 [MHz]
  Nuclear repulsion =  483.529225185859559

  Charge       = 0
  Multiplicity = 1
  Electrons    = 76
  Nalpha       = 38
  Nbeta        = 38

  ==> Algorithm <==

  SCF Algorithm Type is PK.
  DIIS enabled.
  MOM disabled.
  Fractional occupation disabled.
  Guess Type is SAD.
  Energy threshold   = 1.00e-06
  Density threshold  = 1.00e-10
  Integral threshold = 0.00e+00

  ==> Primary Basis <==

  Basis Set: CC-PVDZ
    Blend: CC-PVDZ
    Number of shells: 102
    Number of basis function: 210
    Number of Cartesian functions: 220
    Spherical Harmonics?: true
    Max angular momentum: 2

  ==> Pre-Iterations <==

   -------------------------------------------------------
    Irrep   Nso     Nmo     Nalpha   Nbeta   Ndocc  Nsocc
   -------------------------------------------------------
     A        210     210       0       0       0       0
   -------------------------------------------------------
    Total     210     210      38      38      38       0
   -------------------------------------------------------

  ==> Integral Setup <==

  Using integral reordering PK algorithm.
  Sizing the integral batches needed.
  Building batch lookup table.
   Calculation information:
      Number of atoms:                  24
      Number of AO shells:             102
      Number of primitives:            290
      Number of atomic orbitals:       220
      Number of basis functions:       210

      Integral cutoff                 1.00e-12
      Number of threads:                 1

	Batch   1 pq = [       0,    9405] index = [             0,44231715] size =     44231715
	Batch   2 pq = [    9405,   13301] index = [      44231715,88464951] size =     44233236
	Batch   3 pq = [   13301,   16290] index = [      88464951,132690195] size =     44225244
	Batch   4 pq = [   16290,   18810] index = [     132690195,176917455] size =     44227260
	Batch   5 pq = [   18810,   21030] index = [     176917455,221140965] size =     44223510
	Batch   6 pq = [   21030,   22155] index = [     221140965,245433090] size =     24292125
  Task number: 23
  Buffer size: 11059200
  Buffer per thread: 2
  We computed 10596899 shell quartets total.
  Whereas there are 13799631 unique shell quartets.

  ==> DiskJK: Disk-Based J/K Matrices <==

    J tasked:                  Yes
    K tasked:                  Yes
    wK tasked:                  No
    Memory [MiB]:              375
    Schwarz Cutoff:          1E-12

    OpenMP threads:              1

  Minimum eigenvalue in the overlap matrix is 3.1125551383E-04.
  Using Symmetric Orthogonalization.

  SCF Guess: Superposition of Atomic Densities via on-the-fly atomic UHF.

  ==> Iterations <==

                        Total Energy        Delta E     RMS |[F,P]|

   @RHF iter SAD:  -422.71521294805427   -4.22715e+02   0.00000e+00
   @RHF iter   1:  -423.59761177023910   -8.82399e-01   2.99197e-03 DIIS
   @RHF iter   2:  -423.81599826294649   -2.18386e-01   1.26879e-03 DIIS
   @RHF iter   3:  -423.85145213116800   -3.54539e-02   2.83732e-04 DIIS
   @RHF iter   4:  -423.85434789125748   -2.89576e-03   1.15623e-04 DIIS
   @RHF iter   5:  -423.85469029402583   -3.42403e-04   2.11251e-05 DIIS
   @RHF iter   6:  -423.85470817107750   -1.78771e-05   6.44033e-06 DIIS
   @RHF iter   7:  -423.85470981660364   -1.64553e-06   2.05042e-06 DIIS
   @RHF iter   8:  -423.85471002584893   -2.09245e-07   7.56070e-07 DIIS
   @RHF iter   9:  -423.85471005660833   -3.07594e-08   2.81738e-07 DIIS
   @RHF iter  10:  -423.85471006184281   -5.23448e-09   1.13638e-07 DIIS
   @RHF iter  11:  -423.85471006329999   -1.45718e-09   5.11120e-08 DIIS
   @RHF iter  12:  -423.85471006362627   -3.26281e-10   2.66689e-08 DIIS
   @RHF iter  13:  -423.85471006369443   -6.81553e-11   8.00358e-09 DIIS
   @RHF iter  14:  -423.85471006370068   -6.25278e-12   2.17844e-09 DIIS
   @RHF iter  15:  -423.85471006370256   -1.87583e-12   7.47943e-10 DIIS
   @RHF iter  16:  -423.85471006370233    2.27374e-13   2.47176e-10 DIIS
   @RHF iter  17:  -423.85471006370148    8.52651e-13   1.10040e-10 DIIS
   @RHF iter  18:  -423.85471006370130    1.70530e-13   5.42249e-11 DIIS
  Energy and wave function converged.

  ==> Post-Iterations <==

    Orbital Energies [Eh]
    ---------------------

    Doubly Occupied:

       1A    -20.583844     2A    -11.295610     3A    -11.237678
       4A    -11.234384     5A    -11.232832     6A    -11.232623
       7A    -11.227452     8A    -11.225313     9A    -11.219186
      10A    -11.218319    11A     -1.396053    12A     -1.151354
      13A     -1.035948    14A     -1.021066    15A     -1.018472
      16A     -0.924584    17A     -0.844287    18A     -0.837330
      19A     -0.799360    20A     -0.727068    21A     -0.667414
      22A     -0.639627    23A     -0.608344    24A     -0.600501
      25A     -0.596950    26A     -0.587621    27A     -0.585171
      28A     -0.568676    29A     -0.564140    30A     -0.525002
      31A     -0.508389    32A     -0.498978    33A     -0.488387
      34A     -0.482290    35A     -0.478312    36A     -0.466691
      37A     -0.338944    38A     -0.301288

    Virtual:

      39A      0.132345    40A      0.156337    41A      0.174467
      42A      0.180516    43A      0.194726    44A      0.208546
      45A      0.217882    46A      0.242510    47A      0.249014
      48A      0.263730    49A      0.269761    50A      0.275546
      51A      0.278620    52A      0.292192    53A      0.305448
      54A      0.345608    55A      0.367245    56A      0.381771
      57A      0.408076    58A      0.426461    59A      0.455945
      60A      0.493403    61A      0.500282    62A      0.515714
      63A      0.581467    64A      0.598786    65A      0.600927
      66A      0.620480    67A      0.647900    68A      0.657856
      69A      0.665716    70A      0.682856    71A      0.691255
      72A      0.694971    73A      0.713704    74A      0.718119
      75A      0.730668    76A      0.744308    77A      0.749059
      78A      0.766576    79A      0.775748    80A      0.792078
      81A      0.799877    82A      0.812090    83A      0.841963
      84A      0.853593    85A      0.879676    86A      0.883754
      87A      0.885308    88A      0.890241    89A      0.893083
      90A      0.896174    91A      0.901335    92A      0.909309
      93A      0.917113    94A      0.921595    95A      0.939361
      96A      0.947850    97A      0.965783    98A      0.977428
      99A      0.997026   100A      1.022572   101A      1.033513
     102A      1.071162   103A      1.107633   104A      1.135421
     105A      1.143130   106A      1.145271   107A      1.157939
     108A      1.170195   109A      1.209996   110A      1.214783
     111A      1.240828   112A      1.244577   113A      1.277140
     114A      1.287397   115A      1.295565   116A      1.312165
     117A      1.342110   118A      1.361267   119A      1.374224
     120A      1.386259   121A      1.457844   122A      1.484475
     123A      1.488151   124A      1.496774   125A      1.520902
     126A      1.559039   127A      1.593876   128A      1.610907
     129A      1.625980   130A      1.682980   131A      1.686166
     132A      1.693178   133A      1.694748   134A      1.734255
     135A      1.746868   136A      1.780435   137A      1.801784
     138A      1.817525   139A      1.859731   140A      1.873455
     141A      1.876953   142A      1.884110   143A      1.891343
     144A      1.900867   145A      1.908583   146A      1.925603
     147A      1.927775   148A      1.935945   149A      1.942487
     150A      1.948028   151A      1.957343   152A      1.963469
     153A      1.968586   154A      1.982299   155A      1.994676
     156A      2.014950   157A      2.043695   158A      2.056417
     159A      2.072483   160A      2.075162   161A      2.084064
     162A      2.085462   163A      2.127358   164A      2.136955
     165A      2.152566   166A      2.185869   167A      2.203912
     168A      2.221330   169A      2.254968   170A      2.279348
     171A      2.305638   172A      2.311138   173A      2.337203
     174A      2.359989   175A      2.381872   176A      2.398357
     177A      2.437413   178A      2.444273   179A      2.475416
     180A      2.482393   181A      2.515314   182A      2.530767
     183A      2.536955   184A      2.541048   185A      2.583813
     186A      2.617950   187A      2.637104   188A      2.743350
     189A      2.755813   190A      2.776809   191A      2.786584
     192A      2.800185   193A      2.826197   194A      2.847371
     195A      2.856921   196A      2.879015   197A      2.901039
     198A      2.939440   199A      2.965942   200A      2.972012
     201A      3.010729   202A      3.095403   203A      3.131395
     204A      3.268173   205A      3.294385   206A      3.337374
     207A      3.575713   208A      3.693390   209A      3.942707
     210A      4.177526

    Final Occupation by Irrep:
              A
    DOCC [    38 ]

  @RHF Final Energy:  -423.85471006370130

   => Energetics <=

    Nuclear Repulsion Energy =            483.5292251858595591
    One-Electron Energy =               -1532.8288936149622259
    Two-Electron Energy =                 625.4449583654013622
    Total Energy =                       -423.8547100637013045

Computation Completed

Properties will be evaluated at   0.000000,   0.000000,   0.000000 [a0]

Properties computed using the SCF density matrix

  Nuclear Dipole Moment: [e a0]
     X:     4.8612      Y:    16.3216      Z:     7.9517

  Electronic Dipole Moment: [e a0]
     X:    -4.4026      Y:   -16.5185      Z:    -8.2461

  Dipole Moment: [e a0]
     X:     0.4586      Y:    -0.1969      Z:    -0.2944     Total:     0.5794

  Dipole Moment: [D]
     X:     1.1656      Y:    -0.5004      Z:    -0.7483     Total:     1.4728

*** tstop() called on ds3 at Tue Apr 28 00:04:21 2020
Module time:
	user time   =      85.60 seconds =       1.43 minutes
	system time =      40.91 seconds =       0.68 minutes
	total time  =        121 seconds =       2.02 minutes
Total time:
	user time   =      85.60 seconds =       1.43 minutes
	system time =      40.91 seconds =       0.68 minutes
	total time  =        121 seconds =       2.02 minutes
                                     G D M A

                                 by Anthony Stone

                           version 2.2.06, 22 June 2011

               Distributed Multipoles from Gaussian wavefunctions

Starting at 0:4:21 on 28 Apr 2020

Using SCF density matrix from file ./SSI/SSI-094TYR-151VAL-1-dimer.test.4706.fchk

                         Distributed Multipole Analysis

Standard DMA

Positions and radii in angstrom
Multipole moments in atomic units, ea_0^k for rank k

C          x =  2.521378  y = -0.217890  z =  0.875633 angstrom
           Maximum rank =  0   Radius =  0.650 angstrom
                   Q00  =  -0.206366

C          x =  0.035378  y = -0.189890  z =  0.575633 angstrom
           Maximum rank =  0   Radius =  0.650 angstrom
                   Q00  =  -0.051686

C          x =  1.263378  y = -0.726890  z =  0.207633 angstrom
           Maximum rank =  0   Radius =  0.650 angstrom
                   Q00  =  -0.137875

C          x = -1.129622  y = -0.607890  z = -0.058367 angstrom
           Maximum rank =  0   Radius =  0.650 angstrom
                   Q00  =  -0.094347

C          x =  1.286378  y = -1.736890  z = -0.761367 angstrom
           Maximum rank =  0   Radius =  0.650 angstrom
                   Q00  =   0.053161

C          x = -1.080622  y = -1.569890  z = -1.054367 angstrom
           Maximum rank =  0   Radius =  0.650 angstrom
                   Q00  =   0.307836

C          x =  0.130378  y = -2.158890  z = -1.391367 angstrom
           Maximum rank =  0   Radius =  0.650 angstrom
                   Q00  =  -0.189539

O          x = -2.253622  y = -1.928890  z = -1.659367 angstrom
           Maximum rank =  0   Radius =  0.650 angstrom
                   Q00  =  -0.664164

H          x = -0.022622  y =  0.545110  z =  1.364633 angstrom
           Maximum rank =  0   Radius =  0.325 angstrom
                   Q00  =   0.068568

H          x = -2.084622  y = -0.216890  z =  0.249633 angstrom
           Maximum rank =  0   Radius =  0.325 angstrom
                   Q00  =   0.077194

H          x =  2.990378  y = -1.043890  z =  1.410633 angstrom
           Maximum rank =  0   Radius =  0.325 angstrom
                   Q00  =   0.097140

H          x =  2.238378  y =  0.527110  z =  1.620633 angstrom
           Maximum rank =  0   Radius =  0.325 angstrom
                   Q00  =   0.096337

H          x =  2.220378  y = -2.212890  z = -1.015367 angstrom
           Maximum rank =  0   Radius =  0.325 angstrom
                   Q00  =   0.065651

H          x =  0.171378  y = -2.941890  z = -2.132367 angstrom
           Maximum rank =  0   Radius =  0.325 angstrom
                   Q00  =   0.072897

H          x = -2.044622  y = -2.452890  z = -2.454367 angstrom
           Maximum rank =  0   Radius =  0.325 angstrom
                   Q00  =   0.404283

H          x =  3.255383  y =  0.239880  z =  0.196163 angstrom
           Maximum rank =  0   Radius =  0.325 angstrom
                   Q00  =   0.100681

C          x = -0.024622  y =  3.471110  z =  1.299633 angstrom
           Maximum rank =  0   Radius =  0.650 angstrom
                   Q00  =  -0.235660

C          x = -0.434622  y =  4.845110  z =  1.805633 angstrom
           Maximum rank =  0   Radius =  0.650 angstrom
                   Q00  =  -0.236433

H          x =  0.958378  y =  3.208110  z =  1.694633 angstrom
           Maximum rank =  0   Radius =  0.325 angstrom
                   Q00  =   0.074533

H          x = -0.752622  y =  2.735110  z =  1.638633 angstrom
           Maximum rank =  0   Radius =  0.325 angstrom
                   Q00  =   0.073887

H          x =  0.001378  y =  3.450110  z =  0.209633 angstrom
           Maximum rank =  0   Radius =  0.325 angstrom
                   Q00  =   0.088102

H          x = -1.383622  y =  5.072110  z =  1.314633 angstrom
           Maximum rank =  0   Radius =  0.325 angstrom
                   Q00  =   0.073326

H          x =  0.288355  y =  5.618870  z =  1.507983 angstrom
           Maximum rank =  0   Radius =  0.325 angstrom
                   Q00  =   0.080742

H          x = -0.638878  y =  4.892250  z =  2.885473 angstrom
           Maximum rank =  0   Radius =  0.325 angstrom
                   Q00  =   0.081731

Total multipoles referred to origin at
           x =   0.000000,  y =    0.000000,  z =    0.000000 angstrom
                   Q00  =  -0.000000

Finished at 0:4:21 on 28 Apr 2020

  DMA results are available in the Python driver through the
	  variable('DMA DISTRIBUTED MULTIPOLES')
  and
	  variable('DMA TOTAL MULTIPOLES')
  commands.

    Psi4 stopped on: Tuesday, 28 April 2020 12:04AM
    Psi4 wall time for execution: 0:02:00.92

*** Psi4 exiting successfully. Buy a developer a beer!
