                               Psi4 1.3.2 release

  ==> Input File <==

--------------------------------------------------------------------------
import numpy as np
set {scf_type pk
basis cc-pvdz
d_convergence 10
gdma_switch   0
gdma_limit    0
gdma_origin   [ 0.0,  0.0,  0.0 ]
}
molecule test {
    units Angstrom
    0 1
    --
    0 1
    C                2.376794672900699     1.472936157386213     1.944416336750153
    C                0.918794672900698    -0.517063842613787     1.257416336750153
    C               -0.243205327099302     0.267936157386213    -0.494583663249847
    C                1.399794672900698     0.739936157386213     1.063416336750153
    C                0.675794672900698     1.269936157386213    -0.068583663249847
    C               -1.117205327099301     0.454936157386213    -1.569583663249847
    C               -1.078205327099302     1.671936157386213    -2.236583663249847
    C                0.696794672900698     2.494936157386213    -0.758583663249847
    C               -0.182205327099302     2.685936157386212    -1.839583663249847
    N               -0.062205327099302    -0.806063842613787     0.337416336750153
    H               -0.609205327099302    -1.666063842613787     0.348416336750153
    H                1.196794672900698    -1.147063842613787     2.089416336750153
    H               -1.803205327099302    -0.325063842613787    -1.864583663249847
    H                2.340794672900698     1.044936157386213     2.931416336750153
    H                2.041794672900699     2.506936157386213     2.044416336750153
    H               -1.746205327099301     1.845936157386213    -3.072583663249847
    H                1.383794672900698     3.271936157386212    -0.462583663249847
    H               -0.172205327099302     3.623936157386213    -2.374583663249847
    H                3.430674672900698     1.469346157386213     1.629256336750153
    C               -1.216205327099302    -4.614063842613788     0.731416336750153
    O               -1.626205327099302    -3.269063842613787     0.928416336750153
    H               -2.585205327099302    -3.208063842613788     0.743416336750153
    H               -0.973205327099302    -4.765063842613787    -0.320583663249847
    H               -2.042205327099301    -5.278063842613787     0.988416336750153
    H               -0.352555327099302    -4.867573842613788     1.363756336750153

}
e, wfn = energy('scf', return_wfn=True)
gdma(wfn)
dmavals = variable('DMA DISTRIBUTED MULTIPOLES')
charges = np.array(dmavals)
print(charges)
np.save('SSI-030TRP-176SER-2-dimer.npy', np.array(charges))--------------------------------------------------------------------------

*** tstart() called on ds3
*** at Tue Apr 28 12:36:17 2020

   => Loading Basis Set <=

    Name: CC-PVDZ
    Role: ORBITAL
    Keyword: BASIS
    atoms 1-9, 20      entry C          line   138 file /theoryfs2/ds/metcalf/miniconda2/envs/tf2gpu/share/psi4/basis/cc-pvdz.gbs
    atoms 10           entry N          line   168 file /theoryfs2/ds/metcalf/miniconda2/envs/tf2gpu/share/psi4/basis/cc-pvdz.gbs
    atoms 11-19, 22-25 entry H          line    22 file /theoryfs2/ds/metcalf/miniconda2/envs/tf2gpu/share/psi4/basis/cc-pvdz.gbs
    atoms 21           entry O          line   198 file /theoryfs2/ds/metcalf/miniconda2/envs/tf2gpu/share/psi4/basis/cc-pvdz.gbs

         ---------------------------------------------------------
                                   SCF
               by Justin Turney, Rob Parrish, Andy Simmonett
                          and Daniel G. A. Smith
                              RHF Reference
                        1 Threads,    500 MiB Core
         ---------------------------------------------------------

  ==> Geometry <==

    Molecular point group: c1
    Full point group: C1

    Geometry (in Angstrom), charge = 0, multiplicity = 1:

       Center              X                  Y                   Z               Mass
    ------------   -----------------  -----------------  -----------------  -----------------
         C            2.376794672901     1.472936157386     1.944416336750    12.000000000000
         C            0.918794672901    -0.517063842614     1.257416336750    12.000000000000
         C           -0.243205327099     0.267936157386    -0.494583663250    12.000000000000
         C            1.399794672901     0.739936157386     1.063416336750    12.000000000000
         C            0.675794672901     1.269936157386    -0.068583663250    12.000000000000
         C           -1.117205327099     0.454936157386    -1.569583663250    12.000000000000
         C           -1.078205327099     1.671936157386    -2.236583663250    12.000000000000
         C            0.696794672901     2.494936157386    -0.758583663250    12.000000000000
         C           -0.182205327099     2.685936157386    -1.839583663250    12.000000000000
         N           -0.062205327099    -0.806063842614     0.337416336750    14.003074004430
         H           -0.609205327099    -1.666063842614     0.348416336750     1.007825032230
         H            1.196794672901    -1.147063842614     2.089416336750     1.007825032230
         H           -1.803205327099    -0.325063842614    -1.864583663250     1.007825032230
         H            2.340794672901     1.044936157386     2.931416336750     1.007825032230
         H            2.041794672901     2.506936157386     2.044416336750     1.007825032230
         H           -1.746205327099     1.845936157386    -3.072583663250     1.007825032230
         H            1.383794672901     3.271936157386    -0.462583663250     1.007825032230
         H           -0.172205327099     3.623936157386    -2.374583663250     1.007825032230
         H            3.430674672901     1.469346157386     1.629256336750     1.007825032230
         C           -1.216205327099    -4.614063842614     0.731416336750    12.000000000000
         O           -1.626205327099    -3.269063842614     0.928416336750    15.994914619570
         H           -2.585205327099    -3.208063842614     0.743416336750     1.007825032230
         H           -0.973205327099    -4.765063842614    -0.320583663250     1.007825032230
         H           -2.042205327099    -5.278063842614     0.988416336750     1.007825032230
         H           -0.352555327099    -4.867573842614     1.363756336750     1.007825032230

  Running in c1 symmetry.

  Rotational constants: A =      0.04205  B =      0.01766  C =      0.01264 [cm^-1]
  Rotational constants: A =   1260.61906  B =    529.47639  C =    379.08661 [MHz]
  Nuclear repulsion =  649.300252913965664

  Charge       = 0
  Multiplicity = 1
  Electrons    = 88
  Nalpha       = 44
  Nbeta        = 44

  ==> Algorithm <==

  SCF Algorithm Type is PK.
  DIIS enabled.
  MOM disabled.
  Fractional occupation disabled.
  Guess Type is SAD.
  Energy threshold   = 1.00e-06
  Density threshold  = 1.00e-10
  Integral threshold = 0.00e+00

  ==> Primary Basis <==

  Basis Set: CC-PVDZ
    Blend: CC-PVDZ
    Number of shells: 111
    Number of basis function: 233
    Number of Cartesian functions: 245
    Spherical Harmonics?: true
    Max angular momentum: 2

  ==> Pre-Iterations <==

   -------------------------------------------------------
    Irrep   Nso     Nmo     Nalpha   Nbeta   Ndocc  Nsocc
   -------------------------------------------------------
     A        233     233       0       0       0       0
   -------------------------------------------------------
    Total     233     233      44      44      44       0
   -------------------------------------------------------

  ==> Integral Setup <==

  Using integral reordering PK algorithm.
  Sizing the integral batches needed.
  Building batch lookup table.
   Calculation information:
      Number of atoms:                  25
      Number of AO shells:             111
      Number of primitives:            329
      Number of atomic orbitals:       245
      Number of basis functions:       233

      Integral cutoff                 1.00e-12
      Number of threads:                 1

	Batch   1 pq = [       0,    9405] index = [             0,44231715] size =     44231715
	Batch   2 pq = [    9405,   13301] index = [      44231715,88464951] size =     44233236
	Batch   3 pq = [   13301,   16290] index = [      88464951,132690195] size =     44225244
	Batch   4 pq = [   16290,   18810] index = [     132690195,176917455] size =     44227260
	Batch   5 pq = [   18810,   21030] index = [     176917455,221140965] size =     44223510
	Batch   6 pq = [   21030,   23037] index = [     221140965,265363203] size =     44222238
	Batch   7 pq = [   23037,   24883] index = [     265363203,309594286] size =     44231083
	Batch   8 pq = [   24883,   26601] index = [     309594286,353819901] size =     44225615
	Batch   9 pq = [   26601,   27261] index = [     353819901,371594691] size =     17774790
  Task number: 34
  Buffer size: 11059200
  Buffer per thread: 2
  We computed 16166184 shell quartets total.
  Whereas there are 19322436 unique shell quartets.

  ==> DiskJK: Disk-Based J/K Matrices <==

    J tasked:                  Yes
    K tasked:                  Yes
    wK tasked:                  No
    Memory [MiB]:              375
    Schwarz Cutoff:          1E-12

    OpenMP threads:              1

  Minimum eigenvalue in the overlap matrix is 2.5135130519E-04.
  Using Symmetric Orthogonalization.

  SCF Guess: Superposition of Atomic Densities via on-the-fly atomic UHF.

  ==> Iterations <==

                        Total Energy        Delta E     RMS |[F,P]|

   @RHF iter SAD:  -514.68050294438171   -5.14681e+02   0.00000e+00
   @RHF iter   1:  -515.34000732088487   -6.59504e-01   2.64281e-03 DIIS
   @RHF iter   2:  -515.54850620192406   -2.08499e-01   1.19522e-03 DIIS
   @RHF iter   3:  -515.58521110177594   -3.67049e-02   3.09407e-04 DIIS
   @RHF iter   4:  -515.58866652437325   -3.45542e-03   1.23972e-04 DIIS
   @RHF iter   5:  -515.58913634363967   -4.69819e-04   2.34219e-05 DIIS
   @RHF iter   6:  -515.58916533792501   -2.89943e-05   1.09143e-05 DIIS
   @RHF iter   7:  -515.58917218475790   -6.84683e-06   3.88384e-06 DIIS
   @RHF iter   8:  -515.58917394791820   -1.76316e-06   1.52512e-06 DIIS
   @RHF iter   9:  -515.58917428089239   -3.32974e-07   6.84847e-07 DIIS
   @RHF iter  10:  -515.58917433949898   -5.86066e-08   3.30768e-07 DIIS
   @RHF iter  11:  -515.58917435793637   -1.84374e-08   1.11488e-07 DIIS
   @RHF iter  12:  -515.58917435993214   -1.99577e-09   4.06301e-08 DIIS
   @RHF iter  13:  -515.58917436008039   -1.48248e-10   1.46437e-08 DIIS
   @RHF iter  14:  -515.58917436009949   -1.90994e-11   4.53252e-09 DIIS
   @RHF iter  15:  -515.58917436010233   -2.84217e-12   1.96077e-09 DIIS
   @RHF iter  16:  -515.58917436010302   -6.82121e-13   8.92091e-10 DIIS
   @RHF iter  17:  -515.58917436010188    1.13687e-12   4.60884e-10 DIIS
   @RHF iter  18:  -515.58917436010336   -1.47793e-12   1.89148e-10 DIIS
   @RHF iter  19:  -515.58917436010120    2.16005e-12   5.63384e-11 DIIS
  Energy and wave function converged.

  ==> Post-Iterations <==

    Orbital Energies [Eh]
    ---------------------

    Doubly Occupied:

       1A    -20.584973     2A    -15.577984     3A    -11.298079
       4A    -11.251975     5A    -11.249747     6A    -11.222753
       7A    -11.222168     8A    -11.220829     9A    -11.217075
      10A    -11.213615    11A    -11.210523    12A    -11.205554
      13A     -1.379957    14A     -1.275841    15A     -1.111913
      16A     -1.058212    17A     -0.983133    18A     -0.974210
      19A     -0.943903    20A     -0.918758    21A     -0.826604
      22A     -0.789751    23A     -0.739499    24A     -0.714654
      25A     -0.700598    26A     -0.650729    27A     -0.641749
      28A     -0.629807    29A     -0.619204    30A     -0.589566
      31A     -0.576772    32A     -0.575178    33A     -0.554519
      34A     -0.539203    35A     -0.527929    36A     -0.520542
      37A     -0.514467    38A     -0.483840    39A     -0.471861
      40A     -0.458711    41A     -0.446729    42A     -0.360343
      43A     -0.280626    44A     -0.263377

    Virtual:

      45A      0.135761    46A      0.153715    47A      0.179114
      48A      0.194181    49A      0.197688    50A      0.213121
      51A      0.224530    52A      0.233768    53A      0.236195
      54A      0.247798    55A      0.259261    56A      0.272368
      57A      0.278143    58A      0.295625    59A      0.303495
      60A      0.317569    61A      0.357219    62A      0.388776
      63A      0.390328    64A      0.426331    65A      0.439471
      66A      0.453756    67A      0.480485    68A      0.491346
      69A      0.520496    70A      0.522015    71A      0.591777
      72A      0.615012    73A      0.619741    74A      0.634727
      75A      0.648598    76A      0.652702    77A      0.676940
      78A      0.700698    79A      0.704300    80A      0.710089
      81A      0.731244    82A      0.735643    83A      0.741887
      84A      0.749019    85A      0.754370    86A      0.757096
      87A      0.771035    88A      0.776449    89A      0.790929
      90A      0.796168    91A      0.804059    92A      0.821749
      93A      0.843949    94A      0.849835    95A      0.860088
      96A      0.866287    97A      0.878260    98A      0.883833
      99A      0.887499   100A      0.899449   101A      0.905688
     102A      0.908736   103A      0.926527   104A      0.962329
     105A      0.966945   106A      0.980165   107A      0.989824
     108A      0.993893   109A      1.057534   110A      1.070051
     111A      1.080692   112A      1.096490   113A      1.105788
     114A      1.128177   115A      1.134399   116A      1.139759
     117A      1.154688   118A      1.161240   119A      1.172685
     120A      1.187690   121A      1.206194   122A      1.233136
     123A      1.236966   124A      1.243867   125A      1.257539
     126A      1.275760   127A      1.290643   128A      1.294275
     129A      1.311988   130A      1.330482   131A      1.342929
     132A      1.361121   133A      1.372917   134A      1.401547
     135A      1.420879   136A      1.459312   137A      1.491523
     138A      1.533223   139A      1.556699   140A      1.577101
     141A      1.606161   142A      1.630287   143A      1.644360
     144A      1.648312   145A      1.653137   146A      1.656299
     147A      1.686271   148A      1.705457   149A      1.717659
     150A      1.755928   151A      1.767481   152A      1.786476
     153A      1.793198   154A      1.819245   155A      1.828341
     156A      1.840445   157A      1.849009   158A      1.873823
     159A      1.886965   160A      1.896615   161A      1.900753
     162A      1.912369   163A      1.921528   164A      1.929886
     165A      1.939220   166A      1.947539   167A      1.953605
     168A      1.967234   169A      1.983070   170A      2.003510
     171A      2.010308   172A      2.030324   173A      2.036272
     174A      2.058877   175A      2.076925   176A      2.089830
     177A      2.094134   178A      2.105951   179A      2.116378
     180A      2.129174   181A      2.150374   182A      2.163165
     183A      2.172076   184A      2.173321   185A      2.182465
     186A      2.258592   187A      2.269295   188A      2.283952
     189A      2.309720   190A      2.321723   191A      2.329002
     192A      2.337432   193A      2.355556   194A      2.360330
     195A      2.374741   196A      2.404358   197A      2.420490
     198A      2.454878   199A      2.459251   200A      2.475209
     201A      2.557018   202A      2.608805   203A      2.625173
     204A      2.647832   205A      2.675528   206A      2.679741
     207A      2.713541   208A      2.725259   209A      2.743412
     210A      2.769083   211A      2.775968   212A      2.783438
     213A      2.802704   214A      2.822597   215A      2.852689
     216A      2.873117   217A      2.907848   218A      2.927216
     219A      2.993166   220A      3.032406   221A      3.056622
     222A      3.074088   223A      3.129517   224A      3.203977
     225A      3.266742   226A      3.297796   227A      3.348695
     228A      3.388294   229A      3.425539   230A      3.559325
     231A      3.758165   232A      3.936057   233A      4.044811

    Final Occupation by Irrep:
              A
    DOCC [    44 ]

  @RHF Final Energy:  -515.58917436010120

   => Energetics <=

    Nuclear Repulsion Energy =            649.3002529139656644
    One-Electron Energy =               -1988.5839376061660460
    Two-Electron Energy =                 823.6945103320992985
    Total Energy =                       -515.5891743601011967

Computation Completed

Properties will be evaluated at   0.000000,   0.000000,   0.000000 [a0]

Properties computed using the SCF density matrix

  Nuclear Dipole Moment: [e a0]
     X:     0.0954      Y:    -7.0387      Z:     3.7942

  Electronic Dipole Moment: [e a0]
     X:    -0.8736      Y:     5.3274      Z:    -3.4656

  Dipole Moment: [e a0]
     X:    -0.7783      Y:    -1.7113      Z:     0.3287     Total:     1.9085

  Dipole Moment: [D]
     X:    -1.9782      Y:    -4.3498      Z:     0.8354     Total:     4.8509

*** tstop() called on ds3 at Tue Apr 28 12:41:36 2020
Module time:
	user time   =     140.35 seconds =       2.34 minutes
	system time =      65.40 seconds =       1.09 minutes
	total time  =        319 seconds =       5.32 minutes
Total time:
	user time   =     140.35 seconds =       2.34 minutes
	system time =      65.40 seconds =       1.09 minutes
	total time  =        319 seconds =       5.32 minutes
                                     G D M A

                                 by Anthony Stone

                           version 2.2.06, 22 June 2011

               Distributed Multipoles from Gaussian wavefunctions

Starting at 12:41:36 on 28 Apr 2020

Using SCF density matrix from file ./SSI/SSI-030TRP-176SER-2-dimer.test.15145.fchk

                         Distributed Multipole Analysis

Standard DMA

Positions and radii in angstrom
Multipole moments in atomic units, ea_0^k for rank k

C          x =  2.376795  y =  1.472936  z =  1.944416 angstrom
           Maximum rank =  0   Radius =  0.650 angstrom
                   Q00  =  -0.214555

C          x =  0.918795  y = -0.517064  z =  1.257416 angstrom
           Maximum rank =  0   Radius =  0.650 angstrom
                   Q00  =   0.093759

C          x = -0.243205  y =  0.267936  z = -0.494584 angstrom
           Maximum rank =  0   Radius =  0.650 angstrom
                   Q00  =   0.308031

C          x =  1.399795  y =  0.739936  z =  1.063416 angstrom
           Maximum rank =  0   Radius =  0.650 angstrom
                   Q00  =  -0.135185

C          x =  0.675795  y =  1.269936  z = -0.068584 angstrom
           Maximum rank =  0   Radius =  0.650 angstrom
                   Q00  =  -0.059151

C          x = -1.117205  y =  0.454936  z = -1.569584 angstrom
           Maximum rank =  0   Radius =  0.650 angstrom
                   Q00  =  -0.121185

C          x = -1.078205  y =  1.671936  z = -2.236584 angstrom
           Maximum rank =  0   Radius =  0.650 angstrom
                   Q00  =  -0.071828

C          x =  0.696795  y =  2.494936  z = -0.758584 angstrom
           Maximum rank =  0   Radius =  0.650 angstrom
                   Q00  =  -0.098042

C          x = -0.182205  y =  2.685936  z = -1.839584 angstrom
           Maximum rank =  0   Radius =  0.650 angstrom
                   Q00  =  -0.093755

N          x = -0.062205  y = -0.806064  z =  0.337416 angstrom
           Maximum rank =  0   Radius =  0.650 angstrom
                   Q00  =  -0.521956

H          x = -0.609205  y = -1.666064  z =  0.348416 angstrom
           Maximum rank =  0   Radius =  0.325 angstrom
                   Q00  =   0.247347

H          x =  1.196795  y = -1.147064  z =  2.089416 angstrom
           Maximum rank =  0   Radius =  0.325 angstrom
                   Q00  =   0.094320

H          x = -1.803205  y = -0.325064  z = -1.864584 angstrom
           Maximum rank =  0   Radius =  0.325 angstrom
                   Q00  =   0.064713

H          x =  2.340795  y =  1.044936  z =  2.931416 angstrom
           Maximum rank =  0   Radius =  0.325 angstrom
                   Q00  =   0.101938

H          x =  2.041795  y =  2.506936  z =  2.044416 angstrom
           Maximum rank =  0   Radius =  0.325 angstrom
                   Q00  =   0.099177

H          x = -1.746205  y =  1.845936  z = -3.072584 angstrom
           Maximum rank =  0   Radius =  0.325 angstrom
                   Q00  =   0.061447

H          x =  1.383795  y =  3.271936  z = -0.462584 angstrom
           Maximum rank =  0   Radius =  0.325 angstrom
                   Q00  =   0.069024

H          x = -0.172205  y =  3.623936  z = -2.374584 angstrom
           Maximum rank =  0   Radius =  0.325 angstrom
                   Q00  =   0.058112

H          x =  3.430675  y =  1.469346  z =  1.629256 angstrom
           Maximum rank =  0   Radius =  0.325 angstrom
                   Q00  =   0.094832

C          x = -1.216205  y = -4.614064  z =  0.731416 angstrom
           Maximum rank =  0   Radius =  0.650 angstrom
                   Q00  =  -0.057156

O          x = -1.626205  y = -3.269064  z =  0.928416 angstrom
           Maximum rank =  0   Radius =  0.650 angstrom
                   Q00  =  -0.616586

H          x = -2.585205  y = -3.208064  z =  0.743416 angstrom
           Maximum rank =  0   Radius =  0.325 angstrom
                   Q00  =   0.410451

H          x = -0.973205  y = -4.765064  z = -0.320584 angstrom
           Maximum rank =  0   Radius =  0.325 angstrom
                   Q00  =   0.083099

H          x = -2.042205  y = -5.278064  z =  0.988416 angstrom
           Maximum rank =  0   Radius =  0.325 angstrom
                   Q00  =   0.085276

H          x = -0.352555  y = -4.867574  z =  1.363756 angstrom
           Maximum rank =  0   Radius =  0.325 angstrom
                   Q00  =   0.117869

Total multipoles referred to origin at
           x =   0.000000,  y =    0.000000,  z =    0.000000 angstrom
                   Q00  =  -0.000000

Finished at 12:41:36 on 28 Apr 2020

  DMA results are available in the Python driver through the
	  variable('DMA DISTRIBUTED MULTIPOLES')
  and
	  variable('DMA TOTAL MULTIPOLES')
  commands.

    Psi4 stopped on: Tuesday, 28 April 2020 12:41PM
    Psi4 wall time for execution: 0:05:19.81

*** Psi4 exiting successfully. Buy a developer a beer!
