                               Psi4 1.3.2 release

  ==> Input File <==

--------------------------------------------------------------------------
import numpy as np
set {scf_type pk
basis cc-pvdz
d_convergence 10
gdma_switch   0
gdma_limit    0
gdma_origin   [ 0.0,  0.0,  0.0 ]
}
molecule test {
    units Angstrom
    0 1
    --
    0 1
    C               -2.344676700475440    -0.653266405574563    -1.306358194650596
    C               -3.804676700475440    -0.466266405574563    -0.881358194650596
    C               -1.737676700475440     0.592733594425437    -1.883358194650596
    C               -1.245676700475440     0.826733594425437    -3.127358194650597
    C               -1.078676700475440     2.692733594425437    -1.966358194650596
    N               -1.679676700475440     1.786733594425437    -1.200358194650596
    N               -0.857676700475440     2.154733594425437    -3.161358194650596
    H               -1.764676700475440    -0.979266405574563    -0.454358194650596
    H               -2.273676700475440    -1.442266405574563    -2.053358194650596
    H               -3.888676700475440     0.393733594425437    -0.214358194650596
    H               -1.171676700475440     0.102733594425437    -3.926358194650597
    H               -0.898676700475440     3.727733594425437    -1.701358194650596
    H               -0.471676700475440     2.652733594425437    -3.957358194650596
    H               -4.173536700475440    -1.377752405574563    -0.388268194650596
    H               -4.403146700475439    -0.277540405574563    -1.784808194650596
    C                4.126323299524560    -1.779266405574563     2.830641805349404
    C                0.252323299524560    -0.441266405574563     1.387641805349404
    C                0.886323299524560    -1.530266405574563     0.764641805349404
    C                0.871323299524560     0.214733594425437     2.474641805349404
    C                2.153323299524560    -1.975266405574563     1.277641805349404
    C                2.133323299524560    -0.219266405574563     2.933641805349404
    C                2.778323299524560    -1.318266405574563     2.342641805349404
    H               -0.707676700475440    -0.083266405574563     1.057641805349404
    H                0.416323299524560    -2.040266405574563    -0.065358194650596
    H                0.375323299524560     1.025733594425437     2.980641805349404
    H                2.624323299524560    -2.833266405574563     0.821641805349404
    H                2.612323299524560     0.359733594425437     3.672641805349404
    H                4.008323299524560    -2.742266405574563     3.328641805349404
    H                4.511323299524560    -1.070266405574563     3.560641805349404
    H                4.860373299524560    -1.883928405574563     2.018101805349404

}
e, wfn = energy('scf', return_wfn=True)
gdma(wfn)
dmavals = variable('DMA DISTRIBUTED MULTIPOLES')
charges = np.array(dmavals)
print(charges)
np.save('SSI-180HIE-214PHE-1-dimer.npy', np.array(charges))--------------------------------------------------------------------------

*** tstart() called on ds3
*** at Tue Apr 28 11:52:57 2020

   => Loading Basis Set <=

    Name: CC-PVDZ
    Role: ORBITAL
    Keyword: BASIS
    atoms 1-5, 16-22  entry C          line   138 file /theoryfs2/ds/metcalf/miniconda2/envs/tf2gpu/share/psi4/basis/cc-pvdz.gbs
    atoms 6-7         entry N          line   168 file /theoryfs2/ds/metcalf/miniconda2/envs/tf2gpu/share/psi4/basis/cc-pvdz.gbs
    atoms 8-15, 23-30 entry H          line    22 file /theoryfs2/ds/metcalf/miniconda2/envs/tf2gpu/share/psi4/basis/cc-pvdz.gbs

         ---------------------------------------------------------
                                   SCF
               by Justin Turney, Rob Parrish, Andy Simmonett
                          and Daniel G. A. Smith
                              RHF Reference
                        1 Threads,    500 MiB Core
         ---------------------------------------------------------

  ==> Geometry <==

    Molecular point group: c1
    Full point group: C1

    Geometry (in Angstrom), charge = 0, multiplicity = 1:

       Center              X                  Y                   Z               Mass
    ------------   -----------------  -----------------  -----------------  -----------------
         C           -2.344676700475    -0.653266405575    -1.306358194651    12.000000000000
         C           -3.804676700475    -0.466266405575    -0.881358194651    12.000000000000
         C           -1.737676700475     0.592733594425    -1.883358194651    12.000000000000
         C           -1.245676700475     0.826733594425    -3.127358194651    12.000000000000
         C           -1.078676700475     2.692733594425    -1.966358194651    12.000000000000
         N           -1.679676700475     1.786733594425    -1.200358194651    14.003074004430
         N           -0.857676700475     2.154733594425    -3.161358194651    14.003074004430
         H           -1.764676700475    -0.979266405575    -0.454358194651     1.007825032230
         H           -2.273676700475    -1.442266405575    -2.053358194651     1.007825032230
         H           -3.888676700475     0.393733594425    -0.214358194651     1.007825032230
         H           -1.171676700475     0.102733594425    -3.926358194651     1.007825032230
         H           -0.898676700475     3.727733594425    -1.701358194651     1.007825032230
         H           -0.471676700475     2.652733594425    -3.957358194651     1.007825032230
         H           -4.173536700475    -1.377752405575    -0.388268194651     1.007825032230
         H           -4.403146700475    -0.277540405575    -1.784808194651     1.007825032230
         C            4.126323299525    -1.779266405575     2.830641805349    12.000000000000
         C            0.252323299525    -0.441266405575     1.387641805349    12.000000000000
         C            0.886323299525    -1.530266405575     0.764641805349    12.000000000000
         C            0.871323299525     0.214733594425     2.474641805349    12.000000000000
         C            2.153323299525    -1.975266405575     1.277641805349    12.000000000000
         C            2.133323299525    -0.219266405575     2.933641805349    12.000000000000
         C            2.778323299525    -1.318266405575     2.342641805349    12.000000000000
         H           -0.707676700475    -0.083266405575     1.057641805349     1.007825032230
         H            0.416323299525    -2.040266405575    -0.065358194651     1.007825032230
         H            0.375323299525     1.025733594425     2.980641805349     1.007825032230
         H            2.624323299525    -2.833266405575     0.821641805349     1.007825032230
         H            2.612323299525     0.359733594425     3.672641805349     1.007825032230
         H            4.008323299525    -2.742266405575     3.328641805349     1.007825032230
         H            4.511323299525    -1.070266405575     3.560641805349     1.007825032230
         H            4.860373299525    -1.883928405575     2.018101805349     1.007825032230

  Running in c1 symmetry.

  Rotational constants: A =      0.03950  B =      0.00871  C =      0.00820 [cm^-1]
  Rotational constants: A =   1184.22180  B =    261.14657  C =    245.92007 [MHz]
  Nuclear repulsion =  791.781480436478091

  Charge       = 0
  Multiplicity = 1
  Electrons    = 102
  Nalpha       = 51
  Nbeta        = 51

  ==> Algorithm <==

  SCF Algorithm Type is PK.
  DIIS enabled.
  MOM disabled.
  Fractional occupation disabled.
  Guess Type is SAD.
  Energy threshold   = 1.00e-06
  Density threshold  = 1.00e-10
  Integral threshold = 0.00e+00

  ==> Primary Basis <==

  Basis Set: CC-PVDZ
    Blend: CC-PVDZ
    Number of shells: 132
    Number of basis function: 276
    Number of Cartesian functions: 290
    Spherical Harmonics?: true
    Max angular momentum: 2

  ==> Pre-Iterations <==

   -------------------------------------------------------
    Irrep   Nso     Nmo     Nalpha   Nbeta   Ndocc  Nsocc
   -------------------------------------------------------
     A        276     276       0       0       0       0
   -------------------------------------------------------
    Total     276     276      51      51      51       0
   -------------------------------------------------------

  ==> Integral Setup <==

  Using integral reordering PK algorithm.
  Sizing the integral batches needed.
  Building batch lookup table.
   Calculation information:
      Number of atoms:                  30
      Number of AO shells:             132
      Number of primitives:            388
      Number of atomic orbitals:       290
      Number of basis functions:       276

      Integral cutoff                 1.00e-12
      Number of threads:                 1

	Batch   1 pq = [       0,    9405] index = [             0,44231715] size =     44231715
	Batch   2 pq = [    9405,   13301] index = [      44231715,88464951] size =     44233236
	Batch   3 pq = [   13301,   16290] index = [      88464951,132690195] size =     44225244
	Batch   4 pq = [   16290,   18810] index = [     132690195,176917455] size =     44227260
	Batch   5 pq = [   18810,   21030] index = [     176917455,221140965] size =     44223510
	Batch   6 pq = [   21030,   23037] index = [     221140965,265363203] size =     44222238
	Batch   7 pq = [   23037,   24883] index = [     265363203,309594286] size =     44231083
	Batch   8 pq = [   24883,   26601] index = [     309594286,353819901] size =     44225615
	Batch   9 pq = [   26601,   28214] index = [     353819901,398029005] size =     44209104
	Batch  10 pq = [   28214,   29740] index = [     398029005,442248670] size =     44219665
	Batch  11 pq = [   29740,   31191] index = [     442248670,486454836] size =     44206166
	Batch  12 pq = [   31191,   32578] index = [     486454836,530679331] size =     44224495
	Batch  13 pq = [   32578,   33908] index = [     530679331,574893186] size =     44213855
	Batch  14 pq = [   33908,   35188] index = [     574893186,619115266] size =     44222080
	Batch  15 pq = [   35188,   36423] index = [     619115266,663335676] size =     44220410
	Batch  16 pq = [   36423,   37617] index = [     663335676,707538153] size =     44202477
	Batch  17 pq = [   37617,   38226] index = [     707538153,730632651] size =     23094498
  Task number: 67
  Buffer size: 11059200
  Buffer per thread: 2
  We computed 32437434 shell quartets total.
  Whereas there are 38531031 unique shell quartets.

  ==> DiskJK: Disk-Based J/K Matrices <==

    J tasked:                  Yes
    K tasked:                  Yes
    wK tasked:                  No
    Memory [MiB]:              375
    Schwarz Cutoff:          1E-12

    OpenMP threads:              1

  Minimum eigenvalue in the overlap matrix is 3.4524280917E-04.
  Using Symmetric Orthogonalization.

  SCF Guess: Superposition of Atomic Densities via on-the-fly atomic UHF.

  ==> Iterations <==

                        Total Energy        Delta E     RMS |[F,P]|

   @RHF iter SAD:  -571.54922721591663   -5.71549e+02   0.00000e+00
   @RHF iter   1:  -572.35575387446443   -8.06527e-01   2.42083e-03 DIIS
   @RHF iter   2:  -572.60488919691829   -2.49135e-01   1.18421e-03 DIIS
   @RHF iter   3:  -572.65649872209156   -5.16095e-02   3.32482e-04 DIIS
   @RHF iter   4:  -572.66160237815893   -5.10366e-03   1.34826e-04 DIIS
   @RHF iter   5:  -572.66236515967012   -7.62782e-04   1.88498e-05 DIIS
   @RHF iter   6:  -572.66239054785058   -2.53882e-05   8.20009e-06 DIIS
   @RHF iter   7:  -572.66239462636383   -4.07851e-06   2.71799e-06 DIIS
   @RHF iter   8:  -572.66239541044183   -7.84078e-07   1.22542e-06 DIIS
   @RHF iter   9:  -572.66239560334350   -1.92902e-07   5.34554e-07 DIIS
   @RHF iter  10:  -572.66239564158786   -3.82444e-08   1.76386e-07 DIIS
   @RHF iter  11:  -572.66239564663999   -5.05213e-09   6.89991e-08 DIIS
   @RHF iter  12:  -572.66239564736475   -7.24754e-10   3.29650e-08 DIIS
   @RHF iter  13:  -572.66239564752914   -1.64391e-10   1.15613e-08 DIIS
   @RHF iter  14:  -572.66239564755267   -2.35332e-11   4.90217e-09 DIIS
   @RHF iter  15:  -572.66239564756233   -9.66338e-12   2.34062e-09 DIIS
   @RHF iter  16:  -572.66239564755801    4.32010e-12   8.72953e-10 DIIS
   @RHF iter  17:  -572.66239564756233   -4.32010e-12   3.22641e-10 DIIS
   @RHF iter  18:  -572.66239564755915    3.18323e-12   1.35612e-10 DIIS
   @RHF iter  19:  -572.66239564755790    1.25056e-12   5.47204e-11 DIIS
  Energy and wave function converged.

  ==> Post-Iterations <==

    Orbital Energies [Eh]
    ---------------------

    Doubly Occupied:

       1A    -15.621856     2A    -15.529406     3A    -11.294867
       4A    -11.251682     5A    -11.239745     6A    -11.235853
       7A    -11.234917     8A    -11.229368     9A    -11.228702
      10A    -11.224841    11A    -11.224503    12A    -11.224017
      13A    -11.223733    14A    -11.213204    15A     -1.340875
      16A     -1.154654    17A     -1.133494    18A     -1.050039
      19A     -1.033074    20A     -0.994687    21A     -0.985037
      22A     -0.922632    23A     -0.857004    24A     -0.819167
      25A     -0.816638    26A     -0.784012    27A     -0.759705
      28A     -0.735936    29A     -0.679528    30A     -0.629112
      31A     -0.623428    32A     -0.616347    33A     -0.606092
      34A     -0.597673    35A     -0.583633    36A     -0.571793
      37A     -0.569978    38A     -0.561784    39A     -0.553606
      40A     -0.529340    41A     -0.508524    42A     -0.490184
      43A     -0.483949    44A     -0.482088    45A     -0.470635
      46A     -0.467953    47A     -0.409821    48A     -0.377749
      49A     -0.317328    50A     -0.311715    51A     -0.310103

    Virtual:

      52A      0.136950    53A      0.149190    54A      0.174405
      55A      0.185420    56A      0.187725    57A      0.196624
      58A      0.214025    59A      0.219187    60A      0.225779
      61A      0.227557    62A      0.242146    63A      0.250577
      64A      0.259399    65A      0.271890    66A      0.272304
      67A      0.278659    68A      0.290000    69A      0.299451
      70A      0.312895    71A      0.356661    72A      0.364445
      73A      0.381616    74A      0.384290    75A      0.391181
      76A      0.403002    77A      0.437655    78A      0.459975
      79A      0.468755    80A      0.481311    81A      0.488328
      82A      0.496049    83A      0.512144    84A      0.596448
      85A      0.601255    86A      0.609690    87A      0.618756
      88A      0.631818    89A      0.633005    90A      0.649078
      91A      0.658472    92A      0.682617    93A      0.691080
      94A      0.695992    95A      0.708000    96A      0.720259
      97A      0.726459    98A      0.736706    99A      0.744978
     100A      0.749192   101A      0.753626   102A      0.757176
     103A      0.763993   104A      0.769118   105A      0.780283
     106A      0.789548   107A      0.800620   108A      0.824734
     109A      0.825709   110A      0.845173   111A      0.858005
     112A      0.865177   113A      0.867343   114A      0.886598
     115A      0.890853   116A      0.894355   117A      0.900532
     118A      0.905584   119A      0.906972   120A      0.914962
     121A      0.924191   122A      0.925490   123A      0.938004
     124A      0.942361   125A      0.948398   126A      0.951828
     127A      0.964496   128A      0.974660   129A      0.983485
     130A      1.007907   131A      1.021416   132A      1.027736
     133A      1.046187   134A      1.057731   135A      1.076591
     136A      1.102995   137A      1.110726   138A      1.133344
     139A      1.145349   140A      1.152447   141A      1.156549
     142A      1.165529   143A      1.184948   144A      1.202755
     145A      1.209140   146A      1.230669   147A      1.244648
     148A      1.251206   149A      1.260490   150A      1.264948
     151A      1.276717   152A      1.299102   153A      1.301531
     154A      1.307933   155A      1.322654   156A      1.323514
     157A      1.330446   158A      1.343322   159A      1.398725
     160A      1.424274   161A      1.428441   162A      1.448887
     163A      1.468628   164A      1.512953   165A      1.515450
     166A      1.538922   167A      1.545111   168A      1.552573
     169A      1.566707   170A      1.609439   171A      1.633047
     172A      1.667791   173A      1.680157   174A      1.694608
     175A      1.697391   176A      1.718951   177A      1.734063
     178A      1.741173   179A      1.758860   180A      1.763215
     181A      1.771518   182A      1.793723   183A      1.810454
     184A      1.824366   185A      1.836121   186A      1.865547
     187A      1.873826   188A      1.882759   189A      1.888383
     190A      1.900522   191A      1.906439   192A      1.911628
     193A      1.923505   194A      1.930472   195A      1.934751
     196A      1.943072   197A      1.949595   198A      1.953029
     199A      1.957975   200A      1.964623   201A      1.977889
     202A      1.991230   203A      1.999924   204A      2.014086
     205A      2.017964   206A      2.023170   207A      2.028215
     208A      2.033371   209A      2.049434   210A      2.066401
     211A      2.077512   212A      2.109818   213A      2.115768
     214A      2.122661   215A      2.129198   216A      2.143545
     217A      2.169392   218A      2.179085   219A      2.181129
     220A      2.201192   221A      2.215006   222A      2.233734
     223A      2.246120   224A      2.257358   225A      2.269612
     226A      2.278064   227A      2.288230   228A      2.305772
     229A      2.315258   230A      2.330695   231A      2.352649
     232A      2.366707   233A      2.396612   234A      2.437121
     235A      2.446308   236A      2.451838   237A      2.484375
     238A      2.486028   239A      2.507765   240A      2.524838
     241A      2.528015   242A      2.566341   243A      2.594458
     244A      2.601899   245A      2.634408   246A      2.689902
     247A      2.725046   248A      2.748466   249A      2.757497
     250A      2.766740   251A      2.777336   252A      2.782293
     253A      2.799455   254A      2.813361   255A      2.829570
     256A      2.838240   257A      2.846558   258A      2.871001
     259A      2.877548   260A      2.888628   261A      2.909433
     262A      2.937479   263A      2.952767   264A      2.959390
     265A      2.989001   266A      3.027711   267A      3.032818
     268A      3.077840   269A      3.154628   270A      3.175892
     271A      3.196546   272A      3.253411   273A      3.284882
     274A      3.475882   275A      3.787666   276A      3.914901

    Final Occupation by Irrep:
              A
    DOCC [    51 ]

  @RHF Final Energy:  -572.66239564755790

   => Energetics <=

    Nuclear Repulsion Energy =            791.7814804364780912
    One-Electron Energy =               -2346.6557320720339703
    Two-Electron Energy =                 982.2118559879980921
    Total Energy =                       -572.6623956475579007

Computation Completed

Properties will be evaluated at   0.000000,   0.000000,   0.000000 [a0]

Properties computed using the SCF density matrix

  Nuclear Dipole Moment: [e a0]
     X:    -0.3162      Y:    -6.0747      Z:     2.7261

  Electronic Dipole Moment: [e a0]
     X:     0.8665      Y:     6.4639      Z:    -3.9702

  Dipole Moment: [e a0]
     X:     0.5503      Y:     0.3892      Z:    -1.2442     Total:     1.4150

  Dipole Moment: [D]
     X:     1.3988      Y:     0.9893      Z:    -3.1623     Total:     3.5966

*** tstop() called on ds3 at Tue Apr 28 11:59:41 2020
Module time:
	user time   =     286.06 seconds =       4.77 minutes
	system time =     128.29 seconds =       2.14 minutes
	total time  =        404 seconds =       6.73 minutes
Total time:
	user time   =     286.06 seconds =       4.77 minutes
	system time =     128.29 seconds =       2.14 minutes
	total time  =        404 seconds =       6.73 minutes
                                     G D M A

                                 by Anthony Stone

                           version 2.2.06, 22 June 2011

               Distributed Multipoles from Gaussian wavefunctions

Starting at 11:59:41 on 28 Apr 2020

Using SCF density matrix from file ./SSI/SSI-180HIE-214PHE-1-dimer.test.14331.fchk

                         Distributed Multipole Analysis

Standard DMA

Positions and radii in angstrom
Multipole moments in atomic units, ea_0^k for rank k

C          x = -2.344677  y = -0.653266  z = -1.306358 angstrom
           Maximum rank =  0   Radius =  0.650 angstrom
                   Q00  =  -0.052363

C          x = -3.804677  y = -0.466266  z = -0.881358 angstrom
           Maximum rank =  0   Radius =  0.650 angstrom
                   Q00  =  -0.227664

C          x = -1.737677  y =  0.592734  z = -1.883358 angstrom
           Maximum rank =  0   Radius =  0.650 angstrom
                   Q00  =   0.232414

C          x = -1.245677  y =  0.826734  z = -3.127358 angstrom
           Maximum rank =  0   Radius =  0.650 angstrom
                   Q00  =   0.005295

C          x = -1.078677  y =  2.692734  z = -1.966358 angstrom
           Maximum rank =  0   Radius =  0.650 angstrom
                   Q00  =   0.470384

N          x = -1.679677  y =  1.786734  z = -1.200358 angstrom
           Maximum rank =  0   Radius =  0.650 angstrom
                   Q00  =  -0.795006

N          x = -0.857677  y =  2.154734  z = -3.161358 angstrom
           Maximum rank =  0   Radius =  0.650 angstrom
                   Q00  =  -0.480364

H          x = -1.764677  y = -0.979266  z = -0.454358 angstrom
           Maximum rank =  0   Radius =  0.325 angstrom
                   Q00  =   0.075662

H          x = -2.273677  y = -1.442266  z = -2.053358 angstrom
           Maximum rank =  0   Radius =  0.325 angstrom
                   Q00  =   0.060878

H          x = -3.888677  y =  0.393734  z = -0.214358 angstrom
           Maximum rank =  0   Radius =  0.325 angstrom
                   Q00  =   0.103678

H          x = -1.171677  y =  0.102734  z = -3.926358 angstrom
           Maximum rank =  0   Radius =  0.325 angstrom
                   Q00  =   0.104198

H          x = -0.898677  y =  3.727734  z = -1.701358 angstrom
           Maximum rank =  0   Radius =  0.325 angstrom
                   Q00  =   0.124857

H          x = -0.471677  y =  2.652734  z = -3.957358 angstrom
           Maximum rank =  0   Radius =  0.325 angstrom
                   Q00  =   0.220602

H          x = -4.173537  y = -1.377752  z = -0.388268 angstrom
           Maximum rank =  0   Radius =  0.325 angstrom
                   Q00  =   0.080286

H          x = -4.403147  y = -0.277540  z = -1.784808 angstrom
           Maximum rank =  0   Radius =  0.325 angstrom
                   Q00  =   0.074665

C          x =  4.126323  y = -1.779266  z =  2.830642 angstrom
           Maximum rank =  0   Radius =  0.650 angstrom
                   Q00  =  -0.207899

C          x =  0.252323  y = -0.441266  z =  1.387642 angstrom
           Maximum rank =  0   Radius =  0.650 angstrom
                   Q00  =  -0.081431

C          x =  0.886323  y = -1.530266  z =  0.764642 angstrom
           Maximum rank =  0   Radius =  0.650 angstrom
                   Q00  =  -0.083403

C          x =  0.871323  y =  0.214734  z =  2.474642 angstrom
           Maximum rank =  0   Radius =  0.650 angstrom
                   Q00  =  -0.069902

C          x =  2.153323  y = -1.975266  z =  1.277642 angstrom
           Maximum rank =  0   Radius =  0.650 angstrom
                   Q00  =  -0.019631

C          x =  2.133323  y = -0.219266  z =  2.933642 angstrom
           Maximum rank =  0   Radius =  0.650 angstrom
                   Q00  =  -0.056292

C          x =  2.778323  y = -1.318266  z =  2.342642 angstrom
           Maximum rank =  0   Radius =  0.650 angstrom
                   Q00  =  -0.099317

H          x = -0.707677  y = -0.083266  z =  1.057642 angstrom
           Maximum rank =  0   Radius =  0.325 angstrom
                   Q00  =   0.068006

H          x =  0.416323  y = -2.040266  z = -0.065358 angstrom
           Maximum rank =  0   Radius =  0.325 angstrom
                   Q00  =   0.067497

H          x =  0.375323  y =  1.025734  z =  2.980642 angstrom
           Maximum rank =  0   Radius =  0.325 angstrom
                   Q00  =   0.070501

H          x =  2.624323  y = -2.833266  z =  0.821642 angstrom
           Maximum rank =  0   Radius =  0.325 angstrom
                   Q00  =   0.056138

H          x =  2.612323  y =  0.359734  z =  3.672642 angstrom
           Maximum rank =  0   Radius =  0.325 angstrom
                   Q00  =   0.058494

H          x =  4.008323  y = -2.742266  z =  3.328642 angstrom
           Maximum rank =  0   Radius =  0.325 angstrom
                   Q00  =   0.102444

H          x =  4.511323  y = -1.070266  z =  3.560642 angstrom
           Maximum rank =  0   Radius =  0.325 angstrom
                   Q00  =   0.097380

H          x =  4.860373  y = -1.883928  z =  2.018102 angstrom
           Maximum rank =  0   Radius =  0.325 angstrom
                   Q00  =   0.099894

Total multipoles referred to origin at
           x =   0.000000,  y =    0.000000,  z =    0.000000 angstrom
                   Q00  =  -0.000000

Finished at 11:59:41 on 28 Apr 2020

  DMA results are available in the Python driver through the
	  variable('DMA DISTRIBUTED MULTIPOLES')
  and
	  variable('DMA TOTAL MULTIPOLES')
  commands.

    Psi4 stopped on: Tuesday, 28 April 2020 11:59AM
    Psi4 wall time for execution: 0:06:43.76

*** Psi4 exiting successfully. Buy a developer a beer!
