                               Psi4 1.3.2 release

  ==> Input File <==

--------------------------------------------------------------------------
import numpy as np
set {scf_type pk
basis cc-pvdz
d_convergence 10
gdma_switch   0
gdma_limit    0
gdma_origin   [ 0.0,  0.0,  0.0 ]
}
molecule test {
    units Angstrom
    0 1
    --
    0 1
    C               -0.034668051942155     1.209030288132348    -1.558589953025524
    C                1.467331948057845     1.290030288132348    -2.031589953025525
    H               -0.592668051942155     2.077030288132348    -1.887589953025524
    H               -0.501668051942155     0.323030288132348    -1.983589953025524
    H               -0.075668051942155     1.168030288132348    -0.474589953025524
    H                1.466331948057845     1.303030288132348    -3.119589953025524
    H                1.929151948057845     2.224881288132348    -1.681199953025524
    H                2.032081948057844     0.396320288132348    -1.727709953025524
    C               -0.283668051942155    -0.895969711867652     1.260410046974476
    C               -1.146668051942155    -1.602969711867652     2.331410046974475
    H               -0.048668051942155     0.119030288132348     1.581410046974476
    H                0.652331948057845    -1.443969711867652     1.131410046974476
    H               -0.818668051942155    -0.882969711867652     0.311410046974476
    H               -0.668668051942156    -1.464969711867652     3.294410046974475
    H               -2.141828051942156    -1.135457711867652     2.364340046974476
    H               -1.259778051942156    -2.685428711867652     2.171760046974476

}
e, wfn = energy('scf', return_wfn=True)
gdma(wfn)
dmavals = variable('DMA DISTRIBUTED MULTIPOLES')
charges = np.array(dmavals)
print(charges)
np.save('SSI-028VAL-170LEU-1-dimer.npy', np.array(charges))--------------------------------------------------------------------------

*** tstart() called on ds3
*** at Tue Apr 28 11:47:17 2020

   => Loading Basis Set <=

    Name: CC-PVDZ
    Role: ORBITAL
    Keyword: BASIS
    atoms 1-2, 9-10  entry C          line   138 file /theoryfs2/ds/metcalf/miniconda2/envs/tf2gpu/share/psi4/basis/cc-pvdz.gbs
    atoms 3-8, 11-16 entry H          line    22 file /theoryfs2/ds/metcalf/miniconda2/envs/tf2gpu/share/psi4/basis/cc-pvdz.gbs

         ---------------------------------------------------------
                                   SCF
               by Justin Turney, Rob Parrish, Andy Simmonett
                          and Daniel G. A. Smith
                              RHF Reference
                        1 Threads,    500 MiB Core
         ---------------------------------------------------------

  ==> Geometry <==

    Molecular point group: c1
    Full point group: C1

    Geometry (in Angstrom), charge = 0, multiplicity = 1:

       Center              X                  Y                   Z               Mass
    ------------   -----------------  -----------------  -----------------  -----------------
         C           -0.034668051942     1.209030288132    -1.558589953026    12.000000000000
         C            1.467331948058     1.290030288132    -2.031589953026    12.000000000000
         H           -0.592668051942     2.077030288132    -1.887589953026     1.007825032230
         H           -0.501668051942     0.323030288132    -1.983589953026     1.007825032230
         H           -0.075668051942     1.168030288132    -0.474589953026     1.007825032230
         H            1.466331948058     1.303030288132    -3.119589953026     1.007825032230
         H            1.929151948058     2.224881288132    -1.681199953026     1.007825032230
         H            2.032081948058     0.396320288132    -1.727709953026     1.007825032230
         C           -0.283668051942    -0.895969711868     1.260410046974    12.000000000000
         C           -1.146668051942    -1.602969711868     2.331410046974    12.000000000000
         H           -0.048668051942     0.119030288132     1.581410046974     1.007825032230
         H            0.652331948058    -1.443969711868     1.131410046974     1.007825032230
         H           -0.818668051942    -0.882969711868     0.311410046974     1.007825032230
         H           -0.668668051942    -1.464969711868     3.294410046974     1.007825032230
         H           -2.141828051942    -1.135457711868     2.364340046974     1.007825032230
         H           -1.259778051942    -2.685428711868     2.171760046974     1.007825032230

  Running in c1 symmetry.

  Rotational constants: A =      0.61820  B =      0.04733  C =      0.04549 [cm^-1]
  Rotational constants: A =  18533.15026  B =   1418.94143  C =   1363.70406 [MHz]
  Nuclear repulsion =  121.904906788259055

  Charge       = 0
  Multiplicity = 1
  Electrons    = 36
  Nalpha       = 18
  Nbeta        = 18

  ==> Algorithm <==

  SCF Algorithm Type is PK.
  DIIS enabled.
  MOM disabled.
  Fractional occupation disabled.
  Guess Type is SAD.
  Energy threshold   = 1.00e-06
  Density threshold  = 1.00e-10
  Integral threshold = 0.00e+00

  ==> Primary Basis <==

  Basis Set: CC-PVDZ
    Blend: CC-PVDZ
    Number of shells: 60
    Number of basis function: 116
    Number of Cartesian functions: 120
    Spherical Harmonics?: true
    Max angular momentum: 2

  ==> Pre-Iterations <==

   -------------------------------------------------------
    Irrep   Nso     Nmo     Nalpha   Nbeta   Ndocc  Nsocc
   -------------------------------------------------------
     A        116     116       0       0       0       0
   -------------------------------------------------------
    Total     116     116      18      18      18       0
   -------------------------------------------------------

  ==> Integral Setup <==

  Using integral reordering PK algorithm.
  Sizing the integral batches needed.
  Building batch lookup table.
   Calculation information:
      Number of atoms:                  16
      Number of AO shells:              60
      Number of primitives:            148
      Number of atomic orbitals:       120
      Number of basis functions:       116

      Integral cutoff                 1.00e-12
      Number of threads:                 1

	Batch   1 pq = [       0,    6786] index = [             0,23028291] size =     23028291
  Task number: 3
  Buffer size: 11059200
  Buffer per thread: 2
  We computed 1427856 shell quartets total.
  Whereas there are 1675365 unique shell quartets.

  ==> DiskJK: Disk-Based J/K Matrices <==

    J tasked:                  Yes
    K tasked:                  Yes
    wK tasked:                  No
    Memory [MiB]:              375
    Schwarz Cutoff:          1E-12

    OpenMP threads:              1

  Minimum eigenvalue in the overlap matrix is 7.0711274874E-03.
  Using Symmetric Orthogonalization.

  SCF Guess: Superposition of Atomic Densities via on-the-fly atomic UHF.

  ==> Iterations <==

                        Total Energy        Delta E     RMS |[F,P]|

   @RHF iter SAD:  -157.27360896590369   -1.57274e+02   0.00000e+00
   @RHF iter   1:  -158.30980640370134   -1.03620e+00   4.11108e-03 DIIS
   @RHF iter   2:  -158.43912857718493   -1.29322e-01   1.71540e-03 DIIS
   @RHF iter   3:  -158.46069545376704   -2.15669e-02   3.44881e-04 DIIS
   @RHF iter   4:  -158.46248033243910   -1.78488e-03   3.88985e-05 DIIS
   @RHF iter   5:  -158.46250399393040   -2.36615e-05   7.14829e-06 DIIS
   @RHF iter   6:  -158.46250469928498   -7.05355e-07   1.62049e-06 DIIS
   @RHF iter   7:  -158.46250472474276   -2.54578e-08   3.54163e-07 DIIS
   @RHF iter   8:  -158.46250472625533   -1.51257e-09   5.81125e-08 DIIS
   @RHF iter   9:  -158.46250472631891   -6.35794e-11   1.33694e-08 DIIS
   @RHF iter  10:  -158.46250472632181   -2.89901e-12   3.30180e-09 DIIS
   @RHF iter  11:  -158.46250472632175    5.68434e-14   9.26043e-10 DIIS
   @RHF iter  12:  -158.46250472632221   -4.54747e-13   2.22062e-10 DIIS
   @RHF iter  13:  -158.46250472632198    2.27374e-13   3.27205e-11 DIIS
  Energy and wave function converged.

  ==> Post-Iterations <==

    Orbital Energies [Eh]
    ---------------------

    Doubly Occupied:

       1A    -11.221698     2A    -11.219288     3A    -11.218352
       4A    -11.216641     5A     -1.014378     6A     -1.005762
       7A     -0.844418     8A     -0.836003     9A     -0.599118
      10A     -0.596948    11A     -0.592668    12A     -0.587909
      13A     -0.503853    14A     -0.495515    15A     -0.491410
      16A     -0.488175    17A     -0.484153    18A     -0.474620

    Virtual:

      19A      0.176577    20A      0.194638    21A      0.229690
      22A      0.236236    23A      0.237398    24A      0.259980
      25A      0.265673    26A      0.275478    27A      0.278989
      28A      0.297171    29A      0.311183    30A      0.349800
      31A      0.381660    32A      0.404623    33A      0.567750
      34A      0.585961    35A      0.594981    36A      0.603035
      37A      0.620971    38A      0.644280    39A      0.673605
      40A      0.683068    41A      0.715445    42A      0.795555
      43A      0.825061    44A      0.871923    45A      0.882319
      46A      0.891142    47A      0.893921    48A      0.895163
      49A      0.902571    50A      0.911343    51A      0.912521
      52A      0.921255    53A      0.944900    54A      0.959931
      55A      0.972742    56A      0.989341    57A      1.116195
      58A      1.122100    59A      1.137396    60A      1.179556
      61A      1.233233    62A      1.262871    63A      1.455499
      64A      1.466769    65A      1.467990    66A      1.491638
      67A      1.564981    68A      1.586521    69A      1.681337
      70A      1.684278    71A      1.694154    72A      1.709715
      73A      1.847959    74A      1.861010    75A      1.869115
      76A      1.872512    77A      1.894143    78A      1.915135
      79A      1.927387    80A      1.928978    81A      1.932228
      82A      1.939452    83A      1.943596    84A      1.949843
      85A      1.951348    86A      1.980502    87A      2.010647
      88A      2.029372    89A      2.078237    90A      2.106616
      91A      2.126944    92A      2.135312    93A      2.283249
      94A      2.296388    95A      2.305973    96A      2.330901
      97A      2.437093    98A      2.447290    99A      2.466864
     100A      2.490541   101A      2.548983   102A      2.561253
     103A      2.574869   104A      2.585832   105A      2.761058
     106A      2.767605   107A      2.784408   108A      2.800127
     109A      2.840344   110A      2.845091   111A      2.856863
     112A      2.864050   113A      2.931753   114A      2.949787
     115A      2.964709   116A      2.987494

    Final Occupation by Irrep:
              A
    DOCC [    18 ]

  @RHF Final Energy:  -158.46250472632198

   => Energetics <=

    Nuclear Repulsion Energy =            121.9049067882590549
    One-Electron Energy =                -452.9530054835740316
    Two-Electron Energy =                 172.5855939689930096
    Total Energy =                       -158.4625047263219813

Computation Completed

Properties will be evaluated at   0.000000,   0.000000,   0.000000 [a0]

Properties computed using the SCF density matrix

  Nuclear Dipole Moment: [e a0]
     X:    -0.0260      Y:    -0.0014      Z:    -0.0183

  Electronic Dipole Moment: [e a0]
     X:     0.0182      Y:    -0.0002      Z:     0.0228

  Dipole Moment: [e a0]
     X:    -0.0078      Y:    -0.0016      Z:     0.0045     Total:     0.0091

  Dipole Moment: [D]
     X:    -0.0198      Y:    -0.0040      Z:     0.0114     Total:     0.0232

*** tstop() called on ds3 at Tue Apr 28 11:47:28 2020
Module time:
	user time   =       7.91 seconds =       0.13 minutes
	system time =       2.82 seconds =       0.05 minutes
	total time  =         11 seconds =       0.18 minutes
Total time:
	user time   =       7.91 seconds =       0.13 minutes
	system time =       2.82 seconds =       0.05 minutes
	total time  =         11 seconds =       0.18 minutes
                                     G D M A

                                 by Anthony Stone

                           version 2.2.06, 22 June 2011

               Distributed Multipoles from Gaussian wavefunctions

Starting at 11:47:29 on 28 Apr 2020

Using SCF density matrix from file ./SSI/SSI-028VAL-170LEU-1-dimer.test.1281.fchk

                         Distributed Multipole Analysis

Standard DMA

Positions and radii in angstrom
Multipole moments in atomic units, ea_0^k for rank k

C          x = -0.034668  y =  1.209030  z = -1.558590 angstrom
           Maximum rank =  0   Radius =  0.650 angstrom
                   Q00  =  -0.247989

C          x =  1.467332  y =  1.290030  z = -2.031590 angstrom
           Maximum rank =  0   Radius =  0.650 angstrom
                   Q00  =  -0.255655

H          x = -0.592668  y =  2.077030  z = -1.887590 angstrom
           Maximum rank =  0   Radius =  0.325 angstrom
                   Q00  =   0.083025

H          x = -0.501668  y =  0.323030  z = -1.983590 angstrom
           Maximum rank =  0   Radius =  0.325 angstrom
                   Q00  =   0.080824

H          x = -0.075668  y =  1.168030  z = -0.474590 angstrom
           Maximum rank =  0   Radius =  0.325 angstrom
                   Q00  =   0.088693

H          x =  1.466332  y =  1.303030  z = -3.119590 angstrom
           Maximum rank =  0   Radius =  0.325 angstrom
                   Q00  =   0.079521

H          x =  1.929152  y =  2.224881  z = -1.681200 angstrom
           Maximum rank =  0   Radius =  0.325 angstrom
                   Q00  =   0.083811

H          x =  2.032082  y =  0.396320  z = -1.727710 angstrom
           Maximum rank =  0   Radius =  0.325 angstrom
                   Q00  =   0.085004

C          x = -0.283668  y = -0.895970  z =  1.260410 angstrom
           Maximum rank =  0   Radius =  0.650 angstrom
                   Q00  =  -0.229301

C          x = -1.146668  y = -1.602970  z =  2.331410 angstrom
           Maximum rank =  0   Radius =  0.650 angstrom
                   Q00  =  -0.252216

H          x = -0.048668  y =  0.119030  z =  1.581410 angstrom
           Maximum rank =  0   Radius =  0.325 angstrom
                   Q00  =   0.080081

H          x =  0.652332  y = -1.443970  z =  1.131410 angstrom
           Maximum rank =  0   Radius =  0.325 angstrom
                   Q00  =   0.080648

H          x = -0.818668  y = -0.882970  z =  0.311410 angstrom
           Maximum rank =  0   Radius =  0.325 angstrom
                   Q00  =   0.083443

H          x = -0.668668  y = -1.464970  z =  3.294410 angstrom
           Maximum rank =  0   Radius =  0.325 angstrom
                   Q00  =   0.079062

H          x = -2.141828  y = -1.135458  z =  2.364340 angstrom
           Maximum rank =  0   Radius =  0.325 angstrom
                   Q00  =   0.077910

H          x = -1.259778  y = -2.685429  z =  2.171760 angstrom
           Maximum rank =  0   Radius =  0.325 angstrom
                   Q00  =   0.083140

Total multipoles referred to origin at
           x =   0.000000,  y =    0.000000,  z =    0.000000 angstrom
                   Q00  =  -0.000000

Finished at 11:47:29 on 28 Apr 2020

  DMA results are available in the Python driver through the
	  variable('DMA DISTRIBUTED MULTIPOLES')
  and
	  variable('DMA TOTAL MULTIPOLES')
  commands.

    Psi4 stopped on: Tuesday, 28 April 2020 11:47AM
    Psi4 wall time for execution: 0:00:11.61

*** Psi4 exiting successfully. Buy a developer a beer!
