                               Psi4 1.3.2 release

  ==> Input File <==

--------------------------------------------------------------------------
import numpy as np
set {scf_type pk
basis cc-pvdz
d_convergence 10
gdma_switch   0
gdma_limit    0
gdma_origin   [ 0.0,  0.0,  0.0 ]
}
molecule test {
    units Angstrom
    0 1
    --
    0 1
    C               -3.248166463734295     1.144146893312221    -2.048118669674476
    C               -2.022166463734295     0.465146893312221    -1.468118669674477
    O               -2.031166463734295     0.175146893312221    -0.252118669674476
    O               -1.057166463734295     0.222146893312221    -2.224118669674476
    H               -3.977166463734294     1.319146893312221    -1.254118669674476
    H               -3.706166463734295     0.482146893312221    -2.785118669674476
    H               -3.005729653734295     2.103102893312220    -2.529398669674476
    C                3.372833536265705     0.591146893312221     0.964881330325524
    C                1.252833536265705    -0.646853106687779     1.259881330325524
    N                0.580833536265705     0.296146893312221     0.630881330325524
    N                2.561833536265705    -0.534853106687779     1.439881330325524
    N                0.612833536265705    -1.703853106687779     1.717881330325524
    H                1.025833536265705     1.140146893312221     0.302881330325524
    H               -0.396166463734295     0.140146893312221     0.373881330325524
    H                3.055833536265705    -1.353853106687779     1.783881330325523
    H                1.136833536265705    -2.462853106687779     2.119881330325524
    H               -0.382166463734295    -1.820853106687779     1.558881330325524
    H                2.796833536265705     1.517146893312221     0.951881330325524
    H                3.685833536265705     0.374146893312221    -0.059118669674476
    H                4.275997536265706     0.748532893312221     1.572771330325524

}
e, wfn = energy('scf', return_wfn=True)
gdma(wfn)
dmavals = variable('DMA DISTRIBUTED MULTIPOLES')
charges = np.array(dmavals)
print(charges)
np.save('SSI-030ASP-320ARG-1-dimer.npy', np.array(charges))--------------------------------------------------------------------------

*** tstart() called on ds3
*** at Tue Apr 28 15:23:56 2020

   => Loading Basis Set <=

    Name: CC-PVDZ
    Role: ORBITAL
    Keyword: BASIS
    atoms 1-2, 8-9   entry C          line   138 file /theoryfs2/ds/metcalf/miniconda2/envs/tf2gpu/share/psi4/basis/cc-pvdz.gbs
    atoms 3-4        entry O          line   198 file /theoryfs2/ds/metcalf/miniconda2/envs/tf2gpu/share/psi4/basis/cc-pvdz.gbs
    atoms 5-7, 13-20 entry H          line    22 file /theoryfs2/ds/metcalf/miniconda2/envs/tf2gpu/share/psi4/basis/cc-pvdz.gbs
    atoms 10-12      entry N          line   168 file /theoryfs2/ds/metcalf/miniconda2/envs/tf2gpu/share/psi4/basis/cc-pvdz.gbs

         ---------------------------------------------------------
                                   SCF
               by Justin Turney, Rob Parrish, Andy Simmonett
                          and Daniel G. A. Smith
                              RHF Reference
                        1 Threads,    500 MiB Core
         ---------------------------------------------------------

  ==> Geometry <==

    Molecular point group: c1
    Full point group: C1

    Geometry (in Angstrom), charge = 0, multiplicity = 1:

       Center              X                  Y                   Z               Mass
    ------------   -----------------  -----------------  -----------------  -----------------
         C           -3.248166463734     1.144146893312    -2.048118669674    12.000000000000
         C           -2.022166463734     0.465146893312    -1.468118669674    12.000000000000
         O           -2.031166463734     0.175146893312    -0.252118669674    15.994914619570
         O           -1.057166463734     0.222146893312    -2.224118669674    15.994914619570
         H           -3.977166463734     1.319146893312    -1.254118669674     1.007825032230
         H           -3.706166463734     0.482146893312    -2.785118669674     1.007825032230
         H           -3.005729653734     2.103102893312    -2.529398669674     1.007825032230
         C            3.372833536266     0.591146893312     0.964881330326    12.000000000000
         C            1.252833536266    -0.646853106688     1.259881330326    12.000000000000
         N            0.580833536266     0.296146893312     0.630881330326    14.003074004430
         N            2.561833536266    -0.534853106688     1.439881330326    14.003074004430
         N            0.612833536266    -1.703853106688     1.717881330326    14.003074004430
         H            1.025833536266     1.140146893312     0.302881330326     1.007825032230
         H           -0.396166463734     0.140146893312     0.373881330326     1.007825032230
         H            3.055833536266    -1.353853106688     1.783881330326     1.007825032230
         H            1.136833536266    -2.462853106688     2.119881330326     1.007825032230
         H           -0.382166463734    -1.820853106688     1.558881330326     1.007825032230
         H            2.796833536266     1.517146893312     0.951881330326     1.007825032230
         H            3.685833536266     0.374146893312    -0.059118669674     1.007825032230
         H            4.275997536266     0.748532893312     1.572771330326     1.007825032230

  Running in c1 symmetry.

  Rotational constants: A =      0.10899  B =      0.01930  C =      0.01746 [cm^-1]
  Rotational constants: A =   3267.50021  B =    578.61069  C =    523.54278 [MHz]
  Nuclear repulsion =  451.165936537318373

  Charge       = 0
  Multiplicity = 1
  Electrons    = 72
  Nalpha       = 36
  Nbeta        = 36

  ==> Algorithm <==

  SCF Algorithm Type is PK.
  DIIS enabled.
  MOM disabled.
  Fractional occupation disabled.
  Guess Type is SAD.
  Energy threshold   = 1.00e-06
  Density threshold  = 1.00e-10
  Integral threshold = 0.00e+00

  ==> Primary Basis <==

  Basis Set: CC-PVDZ
    Blend: CC-PVDZ
    Number of shells: 87
    Number of basis function: 181
    Number of Cartesian functions: 190
    Spherical Harmonics?: true
    Max angular momentum: 2

  ==> Pre-Iterations <==

   -------------------------------------------------------
    Irrep   Nso     Nmo     Nalpha   Nbeta   Ndocc  Nsocc
   -------------------------------------------------------
     A        181     181       0       0       0       0
   -------------------------------------------------------
    Total     181     181      36      36      36       0
   -------------------------------------------------------

  ==> Integral Setup <==

  Using integral reordering PK algorithm.
  Sizing the integral batches needed.
  Building batch lookup table.
   Calculation information:
      Number of atoms:                  20
      Number of AO shells:              87
      Number of primitives:            253
      Number of atomic orbitals:       190
      Number of basis functions:       181

      Integral cutoff                 1.00e-12
      Number of threads:                 1

	Batch   1 pq = [       0,    9405] index = [             0,44231715] size =     44231715
	Batch   2 pq = [    9405,   13301] index = [      44231715,88464951] size =     44233236
	Batch   3 pq = [   13301,   16471] index = [      88464951,135655156] size =     47190205
  Task number: 13
  Buffer size: 11059200
  Buffer per thread: 2
  We computed 5352729 shell quartets total.
  Whereas there are 7328706 unique shell quartets.

  ==> DiskJK: Disk-Based J/K Matrices <==

    J tasked:                  Yes
    K tasked:                  Yes
    wK tasked:                  No
    Memory [MiB]:              375
    Schwarz Cutoff:          1E-12

    OpenMP threads:              1

  Minimum eigenvalue in the overlap matrix is 3.7922919828E-03.
  Using Symmetric Orthogonalization.

  SCF Guess: Superposition of Atomic Densities via on-the-fly atomic UHF.

  ==> Iterations <==

                        Total Energy        Delta E     RMS |[F,P]|

   @RHF iter SAD:  -469.71390372882155   -4.69714e+02   0.00000e+00
   @RHF iter   1:  -470.69205959977876   -9.78156e-01   4.25435e-03 DIIS
   @RHF iter   2:  -470.91984185884576   -2.27782e-01   2.21677e-03 DIIS
   @RHF iter   3:  -470.97822257333308   -5.83807e-02   3.91563e-04 DIIS
   @RHF iter   4:  -470.98147775973604   -3.25519e-03   1.40544e-04 DIIS
   @RHF iter   5:  -470.98187398742709   -3.96228e-04   2.80101e-05 DIIS
   @RHF iter   6:  -470.98189546289166   -2.14755e-05   1.37761e-05 DIIS
   @RHF iter   7:  -470.98189917233873   -3.70945e-06   3.39397e-06 DIIS
   @RHF iter   8:  -470.98189967541225   -5.03074e-07   1.51804e-06 DIIS
   @RHF iter   9:  -470.98189975649581   -8.10836e-08   5.32825e-07 DIIS
   @RHF iter  10:  -470.98189977174712   -1.52513e-08   1.91718e-07 DIIS
   @RHF iter  11:  -470.98189977353593   -1.78881e-09   5.73220e-08 DIIS
   @RHF iter  12:  -470.98189977364046   -1.04535e-10   2.02169e-08 DIIS
   @RHF iter  13:  -470.98189977365348   -1.30171e-11   5.47052e-09 DIIS
   @RHF iter  14:  -470.98189977365575   -2.27374e-12   1.59227e-09 DIIS
   @RHF iter  15:  -470.98189977365610   -3.41061e-13   6.49916e-10 DIIS
   @RHF iter  16:  -470.98189977365701   -9.09495e-13   2.12869e-10 DIIS
   @RHF iter  17:  -470.98189977365604    9.66338e-13   8.49976e-11 DIIS
  Energy and wave function converged.

  ==> Post-Iterations <==

    Orbital Energies [Eh]
    ---------------------

    Doubly Occupied:

       1A    -20.414062     2A    -20.393097     3A    -15.656556
       4A    -15.647523     5A    -15.606629     6A    -11.440884
       7A    -11.330269     8A    -11.251878     9A    -11.158406
      10A     -1.400116    11A     -1.296702    12A     -1.266701
      13A     -1.229178    14A     -1.179896    15A     -1.019373
      16A     -0.910127    17A     -0.890883    18A     -0.832696
      19A     -0.797361    20A     -0.713608    21A     -0.694330
      22A     -0.688296    23A     -0.670229    24A     -0.626748
      25A     -0.614303    26A     -0.610221    27A     -0.541503
      28A     -0.531692    29A     -0.526960    30A     -0.465797
      31A     -0.465137    32A     -0.443848    33A     -0.438798
      34A     -0.329977    35A     -0.309678    36A     -0.307397

    Virtual:

      37A      0.114503    38A      0.147686    39A      0.167575
      40A      0.172191    41A      0.209221    42A      0.215592
      43A      0.225756    44A      0.256207    45A      0.270410
      46A      0.287473    47A      0.303823    48A      0.322070
      49A      0.360484    50A      0.398502    51A      0.417849
      52A      0.462867    53A      0.480343    54A      0.484169
      55A      0.546043    56A      0.562074    57A      0.590199
      58A      0.606473    59A      0.640185    60A      0.667329
      61A      0.688339    62A      0.692588    63A      0.714166
      64A      0.717581    65A      0.721387    66A      0.765051
      67A      0.791731    68A      0.809694    69A      0.822639
      70A      0.827698    71A      0.839134    72A      0.868203
      73A      0.871946    74A      0.883183    75A      0.898877
      76A      0.923713    77A      0.930162    78A      0.948566
      79A      0.950485    80A      0.967378    81A      0.985122
      82A      0.986552    83A      1.013520    84A      1.044968
      85A      1.078399    86A      1.095818    87A      1.114306
      88A      1.147663    89A      1.196338    90A      1.219410
      91A      1.229465    92A      1.242966    93A      1.270466
      94A      1.276572    95A      1.311156    96A      1.347822
      97A      1.359977    98A      1.377579    99A      1.418775
     100A      1.454215   101A      1.458049   102A      1.479691
     103A      1.495419   104A      1.514353   105A      1.542394
     106A      1.594783   107A      1.600640   108A      1.626688
     109A      1.637410   110A      1.665664   111A      1.678513
     112A      1.706870   113A      1.725922   114A      1.740435
     115A      1.790277   116A      1.807202   117A      1.842606
     118A      1.855596   119A      1.865899   120A      1.889345
     121A      1.897636   122A      1.908591   123A      1.929892
     124A      1.954506   125A      1.978150   126A      1.981443
     127A      1.988431   128A      1.993033   129A      2.027511
     130A      2.044759   131A      2.102721   132A      2.123225
     133A      2.152885   134A      2.156643   135A      2.184216
     136A      2.213167   137A      2.244977   138A      2.258113
     139A      2.270714   140A      2.323799   141A      2.353132
     142A      2.378983   143A      2.420540   144A      2.429161
     145A      2.468582   146A      2.477390   147A      2.514680
     148A      2.532132   149A      2.538024   150A      2.564319
     151A      2.590596   152A      2.625030   153A      2.660557
     154A      2.690640   155A      2.710877   156A      2.736357
     157A      2.745195   158A      2.812480   159A      2.847104
     160A      2.856957   161A      2.885614   162A      2.891243
     163A      2.935982   164A      2.963675   165A      3.015377
     166A      3.023647   167A      3.103765   168A      3.141336
     169A      3.149514   170A      3.200486   171A      3.208069
     172A      3.241007   173A      3.413690   174A      3.506066
     175A      3.654680   176A      3.684947   177A      3.716946
     178A      3.827676   179A      3.928623   180A      3.947815
     181A      4.077915

    Final Occupation by Irrep:
              A
    DOCC [    36 ]

  @RHF Final Energy:  -470.98189977365604

   => Energetics <=

    Nuclear Repulsion Energy =            451.1659365373183732
    One-Electron Energy =               -1538.8939544080899395
    Two-Electron Energy =                 616.7461180971154135
    Total Energy =                       -470.9818997736560959

Computation Completed

Properties will be evaluated at   0.000000,   0.000000,   0.000000 [a0]

Properties computed using the SCF density matrix

  Nuclear Dipole Moment: [e a0]
     X:     4.2020      Y:     2.0578      Z:     1.8861

  Electronic Dipole Moment: [e a0]
     X:     0.0081      Y:    -3.1731      Z:     1.5685

  Dipole Moment: [e a0]
     X:     4.2101      Y:    -1.1153      Z:     3.4545     Total:     5.5590

  Dipole Moment: [D]
     X:    10.7010      Y:    -2.8349      Z:     8.7805     Total:    14.1296

*** tstop() called on ds3 at Tue Apr 28 15:24:52 2020
Module time:
	user time   =      37.97 seconds =       0.63 minutes
	system time =      19.63 seconds =       0.33 minutes
	total time  =         56 seconds =       0.93 minutes
Total time:
	user time   =      37.97 seconds =       0.63 minutes
	system time =      19.63 seconds =       0.33 minutes
	total time  =         56 seconds =       0.93 minutes
                                     G D M A

                                 by Anthony Stone

                           version 2.2.06, 22 June 2011

               Distributed Multipoles from Gaussian wavefunctions

Starting at 15:24:52 on 28 Apr 2020

Using SCF density matrix from file ./SSI/SSI-030ASP-320ARG-1-dimer.test.16233.fchk

                         Distributed Multipole Analysis

Standard DMA

Positions and radii in angstrom
Multipole moments in atomic units, ea_0^k for rank k

C          x = -3.248166  y =  1.144147  z = -2.048119 angstrom
           Maximum rank =  0   Radius =  0.650 angstrom
                   Q00  =  -0.264854

C          x = -2.022166  y =  0.465147  z = -1.468119 angstrom
           Maximum rank =  0   Radius =  0.650 angstrom
                   Q00  =   0.894219

O          x = -2.031166  y =  0.175147  z = -0.252119 angstrom
           Maximum rank =  0   Radius =  0.650 angstrom
                   Q00  =  -0.960386

O          x = -1.057166  y =  0.222147  z = -2.224119 angstrom
           Maximum rank =  0   Radius =  0.650 angstrom
                   Q00  =  -0.895996

H          x = -3.977166  y =  1.319147  z = -1.254119 angstrom
           Maximum rank =  0   Radius =  0.325 angstrom
                   Q00  =   0.069860

H          x = -3.706166  y =  0.482147  z = -2.785119 angstrom
           Maximum rank =  0   Radius =  0.325 angstrom
                   Q00  =   0.098789

H          x = -3.005730  y =  2.103103  z = -2.529399 angstrom
           Maximum rank =  0   Radius =  0.325 angstrom
                   Q00  =   0.086789

C          x =  3.372834  y =  0.591147  z =  0.964881 angstrom
           Maximum rank =  0   Radius =  0.650 angstrom
                   Q00  =  -0.110092

C          x =  1.252834  y = -0.646853  z =  1.259881 angstrom
           Maximum rank =  0   Radius =  0.650 angstrom
                   Q00  =   1.070951

N          x =  0.580834  y =  0.296147  z =  0.630881 angstrom
           Maximum rank =  0   Radius =  0.650 angstrom
                   Q00  =  -0.583720

N          x =  2.561834  y = -0.534853  z =  1.439881 angstrom
           Maximum rank =  0   Radius =  0.650 angstrom
                   Q00  =  -0.499947

N          x =  0.612834  y = -1.703853  z =  1.717881 angstrom
           Maximum rank =  0   Radius =  0.650 angstrom
                   Q00  =  -0.587792

H          x =  1.025834  y =  1.140147  z =  0.302881 angstrom
           Maximum rank =  0   Radius =  0.325 angstrom
                   Q00  =   0.244759

H          x = -0.396166  y =  0.140147  z =  0.373881 angstrom
           Maximum rank =  0   Radius =  0.325 angstrom
                   Q00  =   0.358063

H          x =  3.055834  y = -1.353853  z =  1.783881 angstrom
           Maximum rank =  0   Radius =  0.325 angstrom
                   Q00  =   0.205606

H          x =  1.136834  y = -2.462853  z =  2.119881 angstrom
           Maximum rank =  0   Radius =  0.325 angstrom
                   Q00  =   0.227606

H          x = -0.382166  y = -1.820853  z =  1.558881 angstrom
           Maximum rank =  0   Radius =  0.325 angstrom
                   Q00  =   0.282917

H          x =  2.796834  y =  1.517147  z =  0.951881 angstrom
           Maximum rank =  0   Radius =  0.325 angstrom
                   Q00  =   0.115549

H          x =  3.685834  y =  0.374147  z = -0.059119 angstrom
           Maximum rank =  0   Radius =  0.325 angstrom
                   Q00  =   0.114084

H          x =  4.275998  y =  0.748533  z =  1.572771 angstrom
           Maximum rank =  0   Radius =  0.325 angstrom
                   Q00  =   0.133596

Total multipoles referred to origin at
           x =   0.000000,  y =    0.000000,  z =    0.000000 angstrom
                   Q00  =  -0.000000

Finished at 15:24:52 on 28 Apr 2020

  DMA results are available in the Python driver through the
	  variable('DMA DISTRIBUTED MULTIPOLES')
  and
	  variable('DMA TOTAL MULTIPOLES')
  commands.

    Psi4 stopped on: Tuesday, 28 April 2020 03:24PM
    Psi4 wall time for execution: 0:00:56.19

*** Psi4 exiting successfully. Buy a developer a beer!
