                               Psi4 1.3.2 release

  ==> Input File <==

--------------------------------------------------------------------------
import numpy as np
set {scf_type pk
basis cc-pvdz
d_convergence 10
gdma_switch   0
gdma_limit    0
gdma_origin   [ 0.0,  0.0,  0.0 ]
}
molecule test {
    units Angstrom
    0 1
    --
    0 1
    C               -0.266989794639403    -1.328406315836571    -2.707839921536634
    C                1.150010205360597     0.116593684163429     0.511160078463366
    C                1.341010205360597     1.453593684163429     0.165160078463366
    C                0.615010205360597    -0.774406315836571    -0.432839921536634
    C                0.278010205360597    -0.346406315836571    -1.731839921536634
    C                0.997010205360597     1.894593684163429    -1.145839921536634
    C                0.471010205360597     0.989593684163429    -2.085839921536634
    H                1.397010205360597    -0.229406315836571     1.506160078463366
    H                1.743010205360597     2.151593684163429     0.886160078463366
    H                0.440010205360597    -1.804406315836570    -0.163839921536634
    H                1.113010205360597     2.932593684163429    -1.422839921536634
    H               -0.984989794639403    -0.832406315836571    -3.353839921536634
    H               -0.812989794639403    -2.087406315836570    -2.153839921536634
    H                0.184010205360597     1.338593684163430    -3.066839921536634
    H                0.504040205360597    -1.814846315836571    -3.323379921536634
    C               -1.324989794639403    -0.345406315836571     3.437160078463366
    C               -2.579989794639403    -1.230406315836571     3.241160078463366
    H               -1.244989794639403    -0.020406315836571     4.473160078463365
    H               -0.432989794639403    -0.912406315836571     3.170160078463366
    H               -1.388989794639403     0.530593684163429     2.790160078463366
    H               -2.406989794639403    -2.188406315836571     3.729160078463366
    H               -3.465399794639404    -0.750751315836571     3.683863078463366
    H               -2.741489794639403    -1.425048315836571     2.170630078463366

}
e, wfn = energy('scf', return_wfn=True)
gdma(wfn)
dmavals = variable('DMA DISTRIBUTED MULTIPOLES')
charges = np.array(dmavals)
print(charges)
np.save('SSI-068PHE-110LEU-1-dimer.npy', np.array(charges))--------------------------------------------------------------------------

*** tstart() called on ds3
*** at Mon Apr 27 23:42:32 2020

   => Loading Basis Set <=

    Name: CC-PVDZ
    Role: ORBITAL
    Keyword: BASIS
    atoms 1-7, 16-17  entry C          line   138 file /theoryfs2/ds/metcalf/miniconda2/envs/tf2gpu/share/psi4/basis/cc-pvdz.gbs
    atoms 8-15, 18-23 entry H          line    22 file /theoryfs2/ds/metcalf/miniconda2/envs/tf2gpu/share/psi4/basis/cc-pvdz.gbs

         ---------------------------------------------------------
                                   SCF
               by Justin Turney, Rob Parrish, Andy Simmonett
                          and Daniel G. A. Smith
                              RHF Reference
                        1 Threads,    500 MiB Core
         ---------------------------------------------------------

  ==> Geometry <==

    Molecular point group: c1
    Full point group: C1

    Geometry (in Angstrom), charge = 0, multiplicity = 1:

       Center              X                  Y                   Z               Mass
    ------------   -----------------  -----------------  -----------------  -----------------
         C           -0.266989794639    -1.328406315837    -2.707839921537    12.000000000000
         C            1.150010205361     0.116593684163     0.511160078463    12.000000000000
         C            1.341010205361     1.453593684163     0.165160078463    12.000000000000
         C            0.615010205361    -0.774406315837    -0.432839921537    12.000000000000
         C            0.278010205361    -0.346406315837    -1.731839921537    12.000000000000
         C            0.997010205361     1.894593684163    -1.145839921537    12.000000000000
         C            0.471010205361     0.989593684163    -2.085839921537    12.000000000000
         H            1.397010205361    -0.229406315837     1.506160078463     1.007825032230
         H            1.743010205361     2.151593684163     0.886160078463     1.007825032230
         H            0.440010205361    -1.804406315837    -0.163839921537     1.007825032230
         H            1.113010205361     2.932593684163    -1.422839921537     1.007825032230
         H           -0.984989794639    -0.832406315837    -3.353839921537     1.007825032230
         H           -0.812989794639    -2.087406315837    -2.153839921537     1.007825032230
         H            0.184010205361     1.338593684163    -3.066839921537     1.007825032230
         H            0.504040205361    -1.814846315837    -3.323379921537     1.007825032230
         C           -1.324989794639    -0.345406315837     3.437160078463    12.000000000000
         C           -2.579989794639    -1.230406315837     3.241160078463    12.000000000000
         H           -1.244989794639    -0.020406315837     4.473160078463     1.007825032230
         H           -0.432989794639    -0.912406315837     3.170160078463     1.007825032230
         H           -1.388989794639     0.530593684163     2.790160078463     1.007825032230
         H           -2.406989794639    -2.188406315837     3.729160078463     1.007825032230
         H           -3.465399794639    -0.750751315837     3.683863078463     1.007825032230
         H           -2.741489794639    -1.425048315837     2.170630078463     1.007825032230

  Running in c1 symmetry.

  Rotational constants: A =      0.06697  B =      0.02295  C =      0.01887 [cm^-1]
  Rotational constants: A =   2007.61878  B =    687.88030  C =    565.61913 [MHz]
  Nuclear repulsion =  399.076891288693048

  Charge       = 0
  Multiplicity = 1
  Electrons    = 68
  Nalpha       = 34
  Nbeta        = 34

  ==> Algorithm <==

  SCF Algorithm Type is PK.
  DIIS enabled.
  MOM disabled.
  Fractional occupation disabled.
  Guess Type is SAD.
  Energy threshold   = 1.00e-06
  Density threshold  = 1.00e-10
  Integral threshold = 0.00e+00

  ==> Primary Basis <==

  Basis Set: CC-PVDZ
    Blend: CC-PVDZ
    Number of shells: 96
    Number of basis function: 196
    Number of Cartesian functions: 205
    Spherical Harmonics?: true
    Max angular momentum: 2

  ==> Pre-Iterations <==

   -------------------------------------------------------
    Irrep   Nso     Nmo     Nalpha   Nbeta   Ndocc  Nsocc
   -------------------------------------------------------
     A        196     196       0       0       0       0
   -------------------------------------------------------
    Total     196     196      34      34      34       0
   -------------------------------------------------------

  ==> Integral Setup <==

  Using integral reordering PK algorithm.
  Sizing the integral batches needed.
  Building batch lookup table.
   Calculation information:
      Number of atoms:                  23
      Number of AO shells:              96
      Number of primitives:            268
      Number of atomic orbitals:       205
      Number of basis functions:       196

      Integral cutoff                 1.00e-12
      Number of threads:                 1

	Batch   1 pq = [       0,    9405] index = [             0,44231715] size =     44231715
	Batch   2 pq = [    9405,   13301] index = [      44231715,88464951] size =     44233236
	Batch   3 pq = [   13301,   16290] index = [      88464951,132690195] size =     44225244
	Batch   4 pq = [   16290,   18810] index = [     132690195,176917455] size =     44227260
	Batch   5 pq = [   18810,   19306] index = [     176917455,186370471] size =      9453016
  Task number: 17
  Buffer size: 11059200
  Buffer per thread: 2
  We computed 8893585 shell quartets total.
  Whereas there are 10841496 unique shell quartets.

  ==> DiskJK: Disk-Based J/K Matrices <==

    J tasked:                  Yes
    K tasked:                  Yes
    wK tasked:                  No
    Memory [MiB]:              375
    Schwarz Cutoff:          1E-12

    OpenMP threads:              1

  Minimum eigenvalue in the overlap matrix is 3.3882731092E-04.
  Using Symmetric Orthogonalization.

  SCF Guess: Superposition of Atomic Densities via on-the-fly atomic UHF.

  ==> Iterations <==

                        Total Energy        Delta E     RMS |[F,P]|

   @RHF iter SAD:  -347.71898972097995   -3.47719e+02   0.00000e+00
   @RHF iter   1:  -348.77006564966263   -1.05108e+00   2.85561e-03 DIIS
   @RHF iter   2:  -348.95910061215483   -1.89035e-01   1.17782e-03 DIIS
   @RHF iter   3:  -348.98829856308203   -2.91980e-02   2.59583e-04 DIIS
   @RHF iter   4:  -348.99075143111202   -2.45287e-03   6.35380e-05 DIIS
   @RHF iter   5:  -348.99084923305452   -9.78019e-05   2.07676e-05 DIIS
   @RHF iter   6:  -348.99085988038803   -1.06473e-05   4.93249e-06 DIIS
   @RHF iter   7:  -348.99086059445966   -7.14072e-07   1.14827e-06 DIIS
   @RHF iter   8:  -348.99086064129438   -4.68347e-08   3.11123e-07 DIIS
   @RHF iter   9:  -348.99086064702129   -5.72692e-09   1.32107e-07 DIIS
   @RHF iter  10:  -348.99086064838372   -1.36242e-09   6.92390e-08 DIIS
   @RHF iter  11:  -348.99086064889548   -5.11761e-10   2.85812e-08 DIIS
   @RHF iter  12:  -348.99086064898512   -8.96421e-11   1.35422e-08 DIIS
   @RHF iter  13:  -348.99086064899973   -1.46088e-11   4.55444e-09 DIIS
   @RHF iter  14:  -348.99086064900246   -2.72848e-12   1.39800e-09 DIIS
   @RHF iter  15:  -348.99086064900172    7.38964e-13   4.47169e-10 DIIS
   @RHF iter  16:  -348.99086064900087    8.52651e-13   1.85310e-10 DIIS
   @RHF iter  17:  -348.99086064900234   -1.47793e-12   8.13811e-11 DIIS
  Energy and wave function converged.

  ==> Post-Iterations <==

    Orbital Energies [Eh]
    ---------------------

    Doubly Occupied:

       1A    -11.241519     2A    -11.241391     3A    -11.238376
       4A    -11.236020     5A    -11.232974     6A    -11.232575
       7A    -11.227204     8A    -11.218564     9A    -11.215666
      10A     -1.145926    11A     -1.043804    12A     -1.011276
      13A     -1.007104    14A     -0.929761    15A     -0.836099
      16A     -0.823369    17A     -0.793113    18A     -0.687721
      19A     -0.633585    20A     -0.627573    21A     -0.595364
      22A     -0.592382    23A     -0.581651    24A     -0.578739
      25A     -0.562088    26A     -0.533832    27A     -0.493722
      28A     -0.488882    29A     -0.485998    30A     -0.483747
      31A     -0.481113    32A     -0.479168    33A     -0.330407
      34A     -0.318032

    Virtual:

      35A      0.131990    36A      0.137575    37A      0.172823
      38A      0.195156    39A      0.201915    40A      0.217829
      41A      0.236135    42A      0.238776    43A      0.254096
      44A      0.257380    45A      0.263731    46A      0.273676
      47A      0.283599    48A      0.290036    49A      0.297031
      50A      0.334153    51A      0.361168    52A      0.378169
      53A      0.391490    54A      0.445764    55A      0.457426
      56A      0.480390    57A      0.491235    58A      0.560731
      59A      0.581820    60A      0.598585    61A      0.601134
      62A      0.615440    63A      0.642928    64A      0.660977
      65A      0.673424    66A      0.683275    67A      0.689332
      68A      0.707394    69A      0.721249    70A      0.733997
      71A      0.741772    72A      0.744853    73A      0.754419
      74A      0.767751    75A      0.781654    76A      0.803446
      77A      0.832193    78A      0.843200    79A      0.861388
      80A      0.868335    81A      0.872690    82A      0.881225
      83A      0.891857    84A      0.893909    85A      0.896878
      86A      0.904628    87A      0.906690    88A      0.920664
      89A      0.928612    90A      0.938149    91A      0.940506
      92A      0.949077    93A      0.981272    94A      0.987088
      95A      1.014552    96A      1.050412    97A      1.109286
      98A      1.120744    99A      1.127489   100A      1.134938
     101A      1.148450   102A      1.150945   103A      1.186522
     104A      1.226880   105A      1.232620   106A      1.243014
     107A      1.249975   108A      1.255202   109A      1.294758
     110A      1.299310   111A      1.313381   112A      1.321365
     113A      1.411022   114A      1.473472   115A      1.482847
     116A      1.508606   117A      1.515466   118A      1.560132
     119A      1.572122   120A      1.599289   121A      1.682019
     122A      1.684943   123A      1.693128   124A      1.703886
     125A      1.725808   126A      1.746185   127A      1.757047
     128A      1.785980   129A      1.800712   130A      1.849334
     131A      1.865868   132A      1.867417   133A      1.881330
     134A      1.891896   135A      1.895728   136A      1.904778
     137A      1.912117   138A      1.922662   139A      1.937198
     140A      1.938702   141A      1.941917   142A      1.944185
     143A      1.947475   144A      1.958322   145A      1.971660
     146A      1.976299   147A      1.981717   148A      1.993943
     149A      2.030080   150A      2.055917   151A      2.058935
     152A      2.098112   153A      2.110594   154A      2.131686
     155A      2.136348   156A      2.141494   157A      2.150228
     158A      2.158647   159A      2.178695   160A      2.255880
     161A      2.269099   162A      2.291486   163A      2.293624
     164A      2.300861   165A      2.306443   166A      2.309348
     167A      2.321522   168A      2.440896   169A      2.460152
     170A      2.466849   171A      2.478365   172A      2.489062
     173A      2.534199   174A      2.566358   175A      2.577044
     176A      2.617114   177A      2.735603   178A      2.740565
     179A      2.764044   180A      2.768269   181A      2.774327
     182A      2.790117   183A      2.804588   184A      2.839989
     185A      2.850808   186A      2.852960   187A      2.871102
     188A      2.941555   189A      2.956252   190A      2.959796
     191A      2.989953   192A      3.008431   193A      3.139761
     194A      3.179730   195A      3.272986   196A      3.928124

    Final Occupation by Irrep:
              A
    DOCC [    34 ]

  @RHF Final Energy:  -348.99086064900234

   => Energetics <=

    Nuclear Repulsion Energy =            399.0768912886930480
    One-Electron Energy =               -1260.8780119844448109
    Two-Electron Energy =                 512.8102600467493630
    Total Energy =                       -348.9908606490023431

Computation Completed

Properties will be evaluated at   0.000000,   0.000000,   0.000000 [a0]

Properties computed using the SCF density matrix

  Nuclear Dipole Moment: [e a0]
     X:    -7.5914      Y:    -4.7925      Z:     8.3668

  Electronic Dipole Moment: [e a0]
     X:     7.5371      Y:     4.7316      Z:    -8.4715

  Dipole Moment: [e a0]
     X:    -0.0543      Y:    -0.0608      Z:    -0.1047     Total:     0.1327

  Dipole Moment: [D]
     X:    -0.1379      Y:    -0.1546      Z:    -0.2660     Total:     0.3372

*** tstop() called on ds3 at Mon Apr 27 23:44:14 2020
Module time:
	user time   =      70.88 seconds =       1.18 minutes
	system time =      35.47 seconds =       0.59 minutes
	total time  =        102 seconds =       1.70 minutes
Total time:
	user time   =      70.88 seconds =       1.18 minutes
	system time =      35.47 seconds =       0.59 minutes
	total time  =        102 seconds =       1.70 minutes
                                     G D M A

                                 by Anthony Stone

                           version 2.2.06, 22 June 2011

               Distributed Multipoles from Gaussian wavefunctions

Starting at 23:44:14 on 27 Apr 2020

Using SCF density matrix from file ./SSI/SSI-068PHE-110LEU-1-dimer.test.3785.fchk

                         Distributed Multipole Analysis

Standard DMA

Positions and radii in angstrom
Multipole moments in atomic units, ea_0^k for rank k

C          x = -0.266990  y = -1.328406  z = -2.707840 angstrom
           Maximum rank =  0   Radius =  0.650 angstrom
                   Q00  =  -0.199136

C          x =  1.150010  y =  0.116594  z =  0.511160 angstrom
           Maximum rank =  0   Radius =  0.650 angstrom
                   Q00  =  -0.080135

C          x =  1.341010  y =  1.453594  z =  0.165160 angstrom
           Maximum rank =  0   Radius =  0.650 angstrom
                   Q00  =  -0.091911

C          x =  0.615010  y = -0.774406  z = -0.432840 angstrom
           Maximum rank =  0   Radius =  0.650 angstrom
                   Q00  =  -0.000421

C          x =  0.278010  y = -0.346406  z = -1.731840 angstrom
           Maximum rank =  0   Radius =  0.650 angstrom
                   Q00  =  -0.096764

C          x =  0.997010  y =  1.894594  z = -1.145840 angstrom
           Maximum rank =  0   Radius =  0.650 angstrom
                   Q00  =  -0.068390

C          x =  0.471010  y =  0.989594  z = -2.085840 angstrom
           Maximum rank =  0   Radius =  0.650 angstrom
                   Q00  =  -0.086942

H          x =  1.397010  y = -0.229406  z =  1.506160 angstrom
           Maximum rank =  0   Radius =  0.325 angstrom
                   Q00  =   0.069260

H          x =  1.743010  y =  2.151594  z =  0.886160 angstrom
           Maximum rank =  0   Radius =  0.325 angstrom
                   Q00  =   0.066271

H          x =  0.440010  y = -1.804406  z = -0.163840 angstrom
           Maximum rank =  0   Radius =  0.325 angstrom
                   Q00  =   0.057987

H          x =  1.113010  y =  2.932594  z = -1.422840 angstrom
           Maximum rank =  0   Radius =  0.325 angstrom
                   Q00  =   0.069960

H          x = -0.984990  y = -0.832406  z = -3.353840 angstrom
           Maximum rank =  0   Radius =  0.325 angstrom
                   Q00  =   0.097595

H          x = -0.812990  y = -2.087406  z = -2.153840 angstrom
           Maximum rank =  0   Radius =  0.325 angstrom
                   Q00  =   0.096019

H          x =  0.184010  y =  1.338594  z = -3.066840 angstrom
           Maximum rank =  0   Radius =  0.325 angstrom
                   Q00  =   0.060351

H          x =  0.504040  y = -1.814846  z = -3.323380 angstrom
           Maximum rank =  0   Radius =  0.325 angstrom
                   Q00  =   0.105317

C          x = -1.324990  y = -0.345406  z =  3.437160 angstrom
           Maximum rank =  0   Radius =  0.650 angstrom
                   Q00  =  -0.248234

C          x = -2.579990  y = -1.230406  z =  3.241160 angstrom
           Maximum rank =  0   Radius =  0.650 angstrom
                   Q00  =  -0.231490

H          x = -1.244990  y = -0.020406  z =  4.473160 angstrom
           Maximum rank =  0   Radius =  0.325 angstrom
                   Q00  =   0.079157

H          x = -0.432990  y = -0.912406  z =  3.170160 angstrom
           Maximum rank =  0   Radius =  0.325 angstrom
                   Q00  =   0.075802

H          x = -1.388990  y =  0.530594  z =  2.790160 angstrom
           Maximum rank =  0   Radius =  0.325 angstrom
                   Q00  =   0.086795

H          x = -2.406990  y = -2.188406  z =  3.729160 angstrom
           Maximum rank =  0   Radius =  0.325 angstrom
                   Q00  =   0.076450

H          x = -3.465400  y = -0.750751  z =  3.683863 angstrom
           Maximum rank =  0   Radius =  0.325 angstrom
                   Q00  =   0.081423

H          x = -2.741490  y = -1.425048  z =  2.170630 angstrom
           Maximum rank =  0   Radius =  0.325 angstrom
                   Q00  =   0.081038

Total multipoles referred to origin at
           x =   0.000000,  y =    0.000000,  z =    0.000000 angstrom
                   Q00  =  -0.000000

Finished at 23:44:14 on 27 Apr 2020

  DMA results are available in the Python driver through the
	  variable('DMA DISTRIBUTED MULTIPOLES')
  and
	  variable('DMA TOTAL MULTIPOLES')
  commands.

    Psi4 stopped on: Monday, 27 April 2020 11:44PM
    Psi4 wall time for execution: 0:01:41.64

*** Psi4 exiting successfully. Buy a developer a beer!
