                               Psi4 1.3.2 release

  ==> Input File <==

--------------------------------------------------------------------------
import numpy as np
set {scf_type pk
basis cc-pvdz
d_convergence 10
gdma_switch   0
gdma_limit    0
gdma_origin   [ 0.0,  0.0,  0.0 ]
}
molecule test {
    units Angstrom
    0 1
    --
    0 1
    C               -0.703475908345577     1.136193425803341    -2.085039755350035
    C               -1.138475908345577     1.772193425803341    -3.410039755350035
    H               -0.884475908345577     0.062193425803341    -2.108039755350035
    H                0.359524091654423     1.316193425803341    -1.927039755350035
    H               -1.248475908345577     1.578193425803341    -1.251039755350035
    H               -0.986475908345577     2.847193425803341    -3.328039755350035
    H               -2.199195908345577     1.571283925803342    -3.621029755350035
    H               -0.511625908345577     1.411018425803341    -4.238659755350035
    C                0.202524091654423    -0.705806574196658     1.173960244649965
    C               -0.440475908345577    -0.757806574196659     2.585960244649965
    C                1.184524091654424     0.452193425803341     1.092960244649965
    C                0.916524091654423    -2.001806574196659     0.803960244649965
    H               -0.574475908345577    -0.524806574196659     0.433960244649965
    H               -0.969475908345577     0.179193425803341     2.766960244649965
    H                0.348524091654423    -0.854806574196659     3.334960244649965
    H                2.005524091654423     0.295193425803341     1.783960244649965
    H                1.577524091654423     0.529193425803341     0.077960244649965
    H                0.707524091654423     1.390193425803341     1.352960244649965
    H                0.190524091654423    -2.801806574196659     0.664960244649965
    H                1.446524091654423    -1.867806574196659    -0.140039755350035
    H                1.626524091654423    -2.281806574196659     1.581960244649965
    H               -1.139755908345577    -1.600511574196658     2.690140244649965

}
e, wfn = energy('scf', return_wfn=True)
gdma(wfn)
dmavals = variable('DMA DISTRIBUTED MULTIPOLES')
charges = np.array(dmavals)
print(charges)
np.save('SSI-059VAL-084LEU-1-dimer.npy', np.array(charges))--------------------------------------------------------------------------

*** tstart() called on ds3
*** at Mon Apr 27 22:21:24 2020

   => Loading Basis Set <=

    Name: CC-PVDZ
    Role: ORBITAL
    Keyword: BASIS
    atoms 1-2, 9-12  entry C          line   138 file /theoryfs2/ds/metcalf/miniconda2/envs/tf2gpu/share/psi4/basis/cc-pvdz.gbs
    atoms 3-8, 13-22 entry H          line    22 file /theoryfs2/ds/metcalf/miniconda2/envs/tf2gpu/share/psi4/basis/cc-pvdz.gbs

         ---------------------------------------------------------
                                   SCF
               by Justin Turney, Rob Parrish, Andy Simmonett
                          and Daniel G. A. Smith
                              RHF Reference
                        1 Threads,    500 MiB Core
         ---------------------------------------------------------

  ==> Geometry <==

    Molecular point group: c1
    Full point group: C1

    Geometry (in Angstrom), charge = 0, multiplicity = 1:

       Center              X                  Y                   Z               Mass
    ------------   -----------------  -----------------  -----------------  -----------------
         C           -0.703475908346     1.136193425803    -2.085039755350    12.000000000000
         C           -1.138475908346     1.772193425803    -3.410039755350    12.000000000000
         H           -0.884475908346     0.062193425803    -2.108039755350     1.007825032230
         H            0.359524091654     1.316193425803    -1.927039755350     1.007825032230
         H           -1.248475908346     1.578193425803    -1.251039755350     1.007825032230
         H           -0.986475908346     2.847193425803    -3.328039755350     1.007825032230
         H           -2.199195908346     1.571283925803    -3.621029755350     1.007825032230
         H           -0.511625908346     1.411018425803    -4.238659755350     1.007825032230
         C            0.202524091654    -0.705806574197     1.173960244650    12.000000000000
         C           -0.440475908346    -0.757806574197     2.585960244650    12.000000000000
         C            1.184524091654     0.452193425803     1.092960244650    12.000000000000
         C            0.916524091654    -2.001806574197     0.803960244650    12.000000000000
         H           -0.574475908346    -0.524806574197     0.433960244650     1.007825032230
         H           -0.969475908346     0.179193425803     2.766960244650     1.007825032230
         H            0.348524091654    -0.854806574197     3.334960244650     1.007825032230
         H            2.005524091654     0.295193425803     1.783960244650     1.007825032230
         H            1.577524091654     0.529193425803     0.077960244650     1.007825032230
         H            0.707524091654     1.390193425803     1.352960244650     1.007825032230
         H            0.190524091654    -2.801806574197     0.664960244650     1.007825032230
         H            1.446524091654    -1.867806574197    -0.140039755350     1.007825032230
         H            1.626524091654    -2.281806574197     1.581960244650     1.007825032230
         H           -1.139755908346    -1.600511574197     2.690140244650     1.007825032230

  Running in c1 symmetry.

  Rotational constants: A =      0.16307  B =      0.02966  C =      0.02886 [cm^-1]
  Rotational constants: A =   4888.57322  B =    889.22733  C =    865.29840 [MHz]
  Nuclear repulsion =  243.093091719643780

  Charge       = 0
  Multiplicity = 1
  Electrons    = 52
  Nalpha       = 26
  Nbeta        = 26

  ==> Algorithm <==

  SCF Algorithm Type is PK.
  DIIS enabled.
  MOM disabled.
  Fractional occupation disabled.
  Guess Type is SAD.
  Energy threshold   = 1.00e-06
  Density threshold  = 1.00e-10
  Integral threshold = 0.00e+00

  ==> Primary Basis <==

  Basis Set: CC-PVDZ
    Blend: CC-PVDZ
    Number of shells: 84
    Number of basis function: 164
    Number of Cartesian functions: 170
    Spherical Harmonics?: true
    Max angular momentum: 2

  ==> Pre-Iterations <==

   -------------------------------------------------------
    Irrep   Nso     Nmo     Nalpha   Nbeta   Ndocc  Nsocc
   -------------------------------------------------------
     A        164     164       0       0       0       0
   -------------------------------------------------------
    Total     164     164      26      26      26       0
   -------------------------------------------------------

  ==> Integral Setup <==

  Using integral reordering PK algorithm.
  Sizing the integral batches needed.
  Building batch lookup table.
   Calculation information:
      Number of atoms:                  22
      Number of AO shells:              84
      Number of primitives:            212
      Number of atomic orbitals:       170
      Number of basis functions:       164

      Integral cutoff                 1.00e-12
      Number of threads:                 1

	Batch   1 pq = [       0,    9405] index = [             0,44231715] size =     44231715
	Batch   2 pq = [    9405,   13530] index = [      44231715,91537215] size =     47305500
  Task number: 9
  Buffer size: 11059200
  Buffer per thread: 2
  We computed 5539489 shell quartets total.
  Whereas there are 6374235 unique shell quartets.

  ==> DiskJK: Disk-Based J/K Matrices <==

    J tasked:                  Yes
    K tasked:                  Yes
    wK tasked:                  No
    Memory [MiB]:              375
    Schwarz Cutoff:          1E-12

    OpenMP threads:              1

  Minimum eigenvalue in the overlap matrix is 4.5801525148E-03.
  Using Symmetric Orthogonalization.

  SCF Guess: Superposition of Atomic Densities via on-the-fly atomic UHF.

  ==> Iterations <==

                        Total Energy        Delta E     RMS |[F,P]|

   @RHF iter SAD:  -235.40322573752121   -2.35403e+02   0.00000e+00
   @RHF iter   1:  -236.31453301038584   -9.11307e-01   3.52873e-03 DIIS
   @RHF iter   2:  -236.50486451154725   -1.90332e-01   1.52546e-03 DIIS
   @RHF iter   3:  -236.53845424533358   -3.35897e-02   3.12834e-04 DIIS
   @RHF iter   4:  -236.54106773455200   -2.61349e-03   6.96634e-05 DIIS
   @RHF iter   5:  -236.54115357116470   -8.58366e-05   1.56678e-05 DIIS
   @RHF iter   6:  -236.54115908967842   -5.51851e-06   2.70802e-06 DIIS
   @RHF iter   7:  -236.54115927249538   -1.82817e-07   6.43221e-07 DIIS
   @RHF iter   8:  -236.54115928455985   -1.20645e-08   1.58669e-07 DIIS
   @RHF iter   9:  -236.54115928528478   -7.24924e-10   4.58249e-08 DIIS
   @RHF iter  10:  -236.54115928535481   -7.00311e-11   9.82099e-09 DIIS
   @RHF iter  11:  -236.54115928535850   -3.69482e-12   1.95976e-09 DIIS
   @RHF iter  12:  -236.54115928535742    1.08002e-12   4.21455e-10 DIIS
   @RHF iter  13:  -236.54115928535953   -2.10321e-12   1.21540e-10 DIIS
   @RHF iter  14:  -236.54115928535879    7.38964e-13   2.35652e-11 DIIS
  Energy and wave function converged.

  ==> Post-Iterations <==

    Orbital Energies [Eh]
    ---------------------

    Doubly Occupied:

       1A    -11.221903     2A    -11.220209     3A    -11.218207
       4A    -11.216115     5A    -11.212210     6A    -11.209510
       7A     -1.079735     8A     -1.018219     9A     -0.926707
      10A     -0.923753    11A     -0.838569    12A     -0.763424
      13A     -0.629699    14A     -0.599681    15A     -0.597664
      16A     -0.590191    17A     -0.583813    18A     -0.536260
      19A     -0.532177    20A     -0.508656    21A     -0.500355
      22A     -0.488490    23A     -0.485875    24A     -0.457714
      25A     -0.457112    26A     -0.453324

    Virtual:

      27A      0.168560    28A      0.192703    29A      0.218311
      30A      0.218603    31A      0.225081    32A      0.242988
      33A      0.257892    34A      0.259779    35A      0.268886
      36A      0.272453    37A      0.290904    38A      0.294818
      39A      0.303148    40A      0.307302    41A      0.322910
      42A      0.358867    43A      0.364717    44A      0.394227
      45A      0.412296    46A      0.417041    47A      0.554176
      48A      0.572586    49A      0.593006    50A      0.596969
      51A      0.599749    52A      0.611999    53A      0.628155
      54A      0.679546    55A      0.695691    56A      0.715396
      57A      0.770217    58A      0.776631    59A      0.800656
      60A      0.833477    61A      0.837744    62A      0.863001
      63A      0.878436    64A      0.890818    65A      0.893665
      66A      0.894925    67A      0.899373    68A      0.905148
      69A      0.908357    70A      0.914237    71A      0.914777
      72A      0.925533    73A      0.933659    74A      0.944789
      75A      0.957892    76A      0.966904    77A      0.977708
      78A      0.981939    79A      1.003014    80A      1.042457
      81A      1.123788    82A      1.133128    83A      1.134435
      84A      1.140663    85A      1.175315    86A      1.241811
      87A      1.373695    88A      1.400145    89A      1.410982
      90A      1.470979    91A      1.478669    92A      1.541251
      93A      1.565687    94A      1.586750    95A      1.664420
      96A      1.670135    97A      1.680378    98A      1.687133
      99A      1.691207   100A      1.693397   101A      1.701693
     102A      1.714525   103A      1.727840   104A      1.829170
     105A      1.841327   106A      1.852418   107A      1.870298
     108A      1.889077   109A      1.905929   110A      1.926548
     111A      1.930838   112A      1.941844   113A      1.946276
     114A      1.950269   115A      1.955306   116A      1.966232
     117A      1.970201   118A      1.980052   119A      1.986272
     120A      1.998400   121A      2.013486   122A      2.056512
     123A      2.071586   124A      2.077628   125A      2.091956
     126A      2.115250   127A      2.116696   128A      2.135068
     129A      2.154604   130A      2.248191   131A      2.261095
     132A      2.296401   133A      2.302914   134A      2.313317
     135A      2.330938   136A      2.356250   137A      2.375916
     138A      2.385317   139A      2.450287   140A      2.468841
     141A      2.490460   142A      2.551923   143A      2.566252
     144A      2.583008   145A      2.609587   146A      2.630403
     147A      2.715102   148A      2.730207   149A      2.757267
     150A      2.761140   151A      2.782714   152A      2.790328
     153A      2.792244   154A      2.820509   155A      2.834261
     156A      2.847472   157A      2.854056   158A      2.860639
     159A      2.869634   160A      2.947641   161A      2.956099
     162A      3.021513   163A      3.028376   164A      3.120210

    Final Occupation by Irrep:
              A
    DOCC [    26 ]

  @RHF Final Energy:  -236.54115928535879

   => Energetics <=

    Nuclear Repulsion Energy =            243.0930917196437804
    One-Electron Energy =                -798.7293596860855587
    Two-Electron Energy =                 319.0951086810829906
    Total Energy =                       -236.5411592853587877

Computation Completed

Properties will be evaluated at   0.000000,   0.000000,   0.000000 [a0]

Properties computed using the SCF density matrix

  Nuclear Dipole Moment: [e a0]
     X:    -0.2360      Y:     1.1702      Z:    -1.8056

  Electronic Dipole Moment: [e a0]
     X:     0.2071      Y:    -1.1410      Z:     1.7609

  Dipole Moment: [e a0]
     X:    -0.0289      Y:     0.0292      Z:    -0.0448     Total:     0.0608

  Dipole Moment: [D]
     X:    -0.0734      Y:     0.0742      Z:    -0.1138     Total:     0.1544

*** tstop() called on ds3 at Mon Apr 27 22:22:03 2020
Module time:
	user time   =      28.65 seconds =       0.48 minutes
	system time =      11.39 seconds =       0.19 minutes
	total time  =         39 seconds =       0.65 minutes
Total time:
	user time   =      28.65 seconds =       0.48 minutes
	system time =      11.39 seconds =       0.19 minutes
	total time  =         39 seconds =       0.65 minutes
                                     G D M A

                                 by Anthony Stone

                           version 2.2.06, 22 June 2011

               Distributed Multipoles from Gaussian wavefunctions

Starting at 22:22:3 on 27 Apr 2020

Using SCF density matrix from file ./SSI/SSI-059VAL-084LEU-1-dimer.test.9805.fchk

                         Distributed Multipole Analysis

Standard DMA

Positions and radii in angstrom
Multipole moments in atomic units, ea_0^k for rank k

C          x = -0.703476  y =  1.136193  z = -2.085040 angstrom
           Maximum rank =  0   Radius =  0.650 angstrom
                   Q00  =  -0.244107

C          x = -1.138476  y =  1.772193  z = -3.410040 angstrom
           Maximum rank =  0   Radius =  0.650 angstrom
                   Q00  =  -0.234425

H          x = -0.884476  y =  0.062193  z = -2.108040 angstrom
           Maximum rank =  0   Radius =  0.325 angstrom
                   Q00  =   0.078380

H          x =  0.359524  y =  1.316193  z = -1.927040 angstrom
           Maximum rank =  0   Radius =  0.325 angstrom
                   Q00  =   0.080883

H          x = -1.248476  y =  1.578193  z = -1.251040 angstrom
           Maximum rank =  0   Radius =  0.325 angstrom
                   Q00  =   0.079708

H          x = -0.986476  y =  2.847193  z = -3.328040 angstrom
           Maximum rank =  0   Radius =  0.325 angstrom
                   Q00  =   0.078985

H          x = -2.199196  y =  1.571284  z = -3.621030 angstrom
           Maximum rank =  0   Radius =  0.325 angstrom
                   Q00  =   0.081222

H          x = -0.511626  y =  1.411018  z = -4.238660 angstrom
           Maximum rank =  0   Radius =  0.325 angstrom
                   Q00  =   0.080497

C          x =  0.202524  y = -0.705807  z =  1.173960 angstrom
           Maximum rank =  0   Radius =  0.650 angstrom
                   Q00  =   0.011576

C          x = -0.440476  y = -0.757807  z =  2.585960 angstrom
           Maximum rank =  0   Radius =  0.650 angstrom
                   Q00  =  -0.256267

C          x =  1.184524  y =  0.452193  z =  1.092960 angstrom
           Maximum rank =  0   Radius =  0.650 angstrom
                   Q00  =  -0.240858

C          x =  0.916524  y = -2.001807  z =  0.803960 angstrom
           Maximum rank =  0   Radius =  0.650 angstrom
                   Q00  =  -0.242010

H          x = -0.574476  y = -0.524807  z =  0.433960 angstrom
           Maximum rank =  0   Radius =  0.325 angstrom
                   Q00  =   0.017535

H          x = -0.969476  y =  0.179193  z =  2.766960 angstrom
           Maximum rank =  0   Radius =  0.325 angstrom
                   Q00  =   0.082910

H          x =  0.348524  y = -0.854807  z =  3.334960 angstrom
           Maximum rank =  0   Radius =  0.325 angstrom
                   Q00  =   0.076529

H          x =  2.005524  y =  0.295193  z =  1.783960 angstrom
           Maximum rank =  0   Radius =  0.325 angstrom
                   Q00  =   0.073089

H          x =  1.577524  y =  0.529193  z =  0.077960 angstrom
           Maximum rank =  0   Radius =  0.325 angstrom
                   Q00  =   0.079658

H          x =  0.707524  y =  1.390193  z =  1.352960 angstrom
           Maximum rank =  0   Radius =  0.325 angstrom
                   Q00  =   0.078838

H          x =  0.190524  y = -2.801807  z =  0.664960 angstrom
           Maximum rank =  0   Radius =  0.325 angstrom
                   Q00  =   0.080060

H          x =  1.446524  y = -1.867807  z = -0.140040 angstrom
           Maximum rank =  0   Radius =  0.325 angstrom
                   Q00  =   0.078522

H          x =  1.626524  y = -2.281807  z =  1.581960 angstrom
           Maximum rank =  0   Radius =  0.325 angstrom
                   Q00  =   0.076258

H          x = -1.139756  y = -1.600512  z =  2.690140 angstrom
           Maximum rank =  0   Radius =  0.325 angstrom
                   Q00  =   0.083015

Total multipoles referred to origin at
           x =   0.000000,  y =    0.000000,  z =    0.000000 angstrom
                   Q00  =  -0.000000

Finished at 22:22:3 on 27 Apr 2020

  DMA results are available in the Python driver through the
	  variable('DMA DISTRIBUTED MULTIPOLES')
  and
	  variable('DMA TOTAL MULTIPOLES')
  commands.

    Psi4 stopped on: Monday, 27 April 2020 10:22PM
    Psi4 wall time for execution: 0:00:39.21

*** Psi4 exiting successfully. Buy a developer a beer!
