                               Psi4 1.3.2 release

  ==> Input File <==

--------------------------------------------------------------------------
import numpy as np
set {scf_type pk
basis cc-pvdz
d_convergence 10
gdma_switch   0
gdma_limit    0
gdma_origin   [ 0.0,  0.0,  0.0 ]
}
molecule test {
    units Angstrom
    0 1
    --
    0 1
    C                0.935310422079726    -0.900542880861064    -0.964190650306793
    C                0.524310422079726    -2.374542880861064    -0.867190650306793
    C                0.330310422079726    -0.086542880861064    -2.124190650306793
    H                0.705310422079726    -0.413542880861064    -0.023190650306793
    H                2.014310422079726    -0.847542880861064    -1.078190650306793
    H               -0.535689577920274    -2.417542880861064    -0.608190650306793
    H                0.628310422079726    -0.525542880861064    -3.075190650306793
    H                1.099690422079726    -2.892162880861064    -0.085520650306793
    H                0.637930422079726    -2.854912880861064    -1.850220650306793
    H               -0.768719577920274    -0.081532880861064    -2.078370650306792
    H                0.714090422079726     0.944277119138936    -2.113430650306793
    C               -0.339689577920274     1.103457119138936     2.030809349693207
    C               -1.386689577920274     2.195457119138936     1.857809349693207
    H               -0.258689577920274     0.833457119138935     3.084809349693207
    H               -0.668689577920274     0.221457119138936     1.484809349693207
    H                0.632310422079726     1.444457119138935     1.670809349693207
    H               -2.361689577920274     1.746457119138936     2.045809349693207
    H               -1.217109577920274     2.997347119138936     2.591439349693208
    H               -1.378069577920274     2.592057119138935     0.831829349693207

}
e, wfn = energy('scf', return_wfn=True)
gdma(wfn)
dmavals = variable('DMA DISTRIBUTED MULTIPOLES')
charges = np.array(dmavals)
print(charges)
np.save('SSI-075LEU-111LEU-1-dimer.npy', np.array(charges))--------------------------------------------------------------------------

*** tstart() called on ds3
*** at Tue Apr 28 20:00:37 2020

   => Loading Basis Set <=

    Name: CC-PVDZ
    Role: ORBITAL
    Keyword: BASIS
    atoms 1-3, 12-13  entry C          line   138 file /theoryfs2/ds/metcalf/miniconda2/envs/tf2gpu/share/psi4/basis/cc-pvdz.gbs
    atoms 4-11, 14-19 entry H          line    22 file /theoryfs2/ds/metcalf/miniconda2/envs/tf2gpu/share/psi4/basis/cc-pvdz.gbs

         ---------------------------------------------------------
                                   SCF
               by Justin Turney, Rob Parrish, Andy Simmonett
                          and Daniel G. A. Smith
                              RHF Reference
                        1 Threads,    500 MiB Core
         ---------------------------------------------------------

  ==> Geometry <==

    Molecular point group: c1
    Full point group: C1

    Geometry (in Angstrom), charge = 0, multiplicity = 1:

       Center              X                  Y                   Z               Mass
    ------------   -----------------  -----------------  -----------------  -----------------
         C            0.935310422080    -0.900542880861    -0.964190650307    12.000000000000
         C            0.524310422080    -2.374542880861    -0.867190650307    12.000000000000
         C            0.330310422080    -0.086542880861    -2.124190650307    12.000000000000
         H            0.705310422080    -0.413542880861    -0.023190650307     1.007825032230
         H            2.014310422080    -0.847542880861    -1.078190650307     1.007825032230
         H           -0.535689577920    -2.417542880861    -0.608190650307     1.007825032230
         H            0.628310422080    -0.525542880861    -3.075190650307     1.007825032230
         H            1.099690422080    -2.892162880861    -0.085520650307     1.007825032230
         H            0.637930422080    -2.854912880861    -1.850220650307     1.007825032230
         H           -0.768719577920    -0.081532880861    -2.078370650307     1.007825032230
         H            0.714090422080     0.944277119139    -2.113430650307     1.007825032230
         C           -0.339689577920     1.103457119139     2.030809349693    12.000000000000
         C           -1.386689577920     2.195457119139     1.857809349693    12.000000000000
         H           -0.258689577920     0.833457119139     3.084809349693     1.007825032230
         H           -0.668689577920     0.221457119139     1.484809349693     1.007825032230
         H            0.632310422080     1.444457119139     1.670809349693     1.007825032230
         H           -2.361689577920     1.746457119139     2.045809349693     1.007825032230
         H           -1.217109577920     2.997347119139     2.591439349693     1.007825032230
         H           -1.378069577920     2.592057119139     0.831829349693     1.007825032230

  Running in c1 symmetry.

  Rotational constants: A =      0.20246  B =      0.04187  C =      0.03732 [cm^-1]
  Rotational constants: A =   6069.55400  B =   1255.29080  C =   1118.92810 [MHz]
  Nuclear repulsion =  177.691716666129025

  Charge       = 0
  Multiplicity = 1
  Electrons    = 44
  Nalpha       = 22
  Nbeta        = 22

  ==> Algorithm <==

  SCF Algorithm Type is PK.
  DIIS enabled.
  MOM disabled.
  Fractional occupation disabled.
  Guess Type is SAD.
  Energy threshold   = 1.00e-06
  Density threshold  = 1.00e-10
  Integral threshold = 0.00e+00

  ==> Primary Basis <==

  Basis Set: CC-PVDZ
    Blend: CC-PVDZ
    Number of shells: 72
    Number of basis function: 140
    Number of Cartesian functions: 145
    Spherical Harmonics?: true
    Max angular momentum: 2

  ==> Pre-Iterations <==

   -------------------------------------------------------
    Irrep   Nso     Nmo     Nalpha   Nbeta   Ndocc  Nsocc
   -------------------------------------------------------
     A        140     140       0       0       0       0
   -------------------------------------------------------
    Total     140     140      22      22      22       0
   -------------------------------------------------------

  ==> Integral Setup <==

  Using integral reordering PK algorithm.
  Sizing the integral batches needed.
  Building batch lookup table.
   Calculation information:
      Number of atoms:                  19
      Number of AO shells:              72
      Number of primitives:            180
      Number of atomic orbitals:       145
      Number of basis functions:       140

      Integral cutoff                 1.00e-12
      Number of threads:                 1

	Batch   1 pq = [       0,    9405] index = [             0,44231715] size =     44231715
	Batch   2 pq = [    9405,    9870] index = [      44231715,48713385] size =      4481670
  Task number: 5
  Buffer size: 11059200
  Buffer per thread: 2
  We computed 2875955 shell quartets total.
  Whereas there are 3454506 unique shell quartets.

  ==> DiskJK: Disk-Based J/K Matrices <==

    J tasked:                  Yes
    K tasked:                  Yes
    wK tasked:                  No
    Memory [MiB]:              375
    Schwarz Cutoff:          1E-12

    OpenMP threads:              1

  Minimum eigenvalue in the overlap matrix is 5.7799966549E-03.
  Using Symmetric Orthogonalization.

  SCF Guess: Superposition of Atomic Densities via on-the-fly atomic UHF.

  ==> Iterations <==

                        Total Energy        Delta E     RMS |[F,P]|

   @RHF iter SAD:  -196.33921946805413   -1.96339e+02   0.00000e+00
   @RHF iter   1:  -197.31205018798241   -9.72831e-01   3.77772e-03 DIIS
   @RHF iter   2:  -197.47079684920155   -1.58747e-01   1.61929e-03 DIIS
   @RHF iter   3:  -197.49856045379033   -2.77636e-02   3.24241e-04 DIIS
   @RHF iter   4:  -197.50077088285789   -2.21043e-03   4.80967e-05 DIIS
   @RHF iter   5:  -197.50080939531597   -3.85125e-05   1.46910e-05 DIIS
   @RHF iter   6:  -197.50081270860159   -3.31329e-06   2.41696e-06 DIIS
   @RHF iter   7:  -197.50081281418323   -1.05582e-07   4.62135e-07 DIIS
   @RHF iter   8:  -197.50081281864266   -4.45942e-09   1.23623e-07 DIIS
   @RHF iter   9:  -197.50081281893864   -2.95984e-10   3.82184e-08 DIIS
   @RHF iter  10:  -197.50081281897187   -3.32250e-11   8.17127e-09 DIIS
   @RHF iter  11:  -197.50081281897309   -1.22213e-12   1.56647e-09 DIIS
   @RHF iter  12:  -197.50081281897309    0.00000e+00   3.00077e-10 DIIS
   @RHF iter  13:  -197.50081281897357   -4.83169e-13   7.26535e-11 DIIS
  Energy and wave function converged.

  ==> Post-Iterations <==

    Orbital Energies [Eh]
    ---------------------

    Doubly Occupied:

       1A    -11.219207     2A    -11.218599     3A    -11.218410
       4A    -11.217009     5A    -11.216780     6A     -1.048076
       7A     -1.021289     8A     -0.924778     9A     -0.836398
      10A     -0.796060    11A     -0.623004    12A     -0.601996
      13A     -0.598966    14A     -0.592258    15A     -0.549344
      16A     -0.530049    17A     -0.501468    18A     -0.489369
      19A     -0.486482    20A     -0.475912    21A     -0.463594
      22A     -0.460156

    Virtual:

      23A      0.164808    24A      0.198405    25A      0.213862
      26A      0.225518    27A      0.238434    28A      0.248252
      29A      0.258604    30A      0.265486    31A      0.273101
      32A      0.286016    33A      0.293201    34A      0.301987
      35A      0.313940    36A      0.335087    37A      0.378870
      38A      0.401310    39A      0.429651    40A      0.569065
      41A      0.580378    42A      0.601486    43A      0.610113
      44A      0.620672    45A      0.629564    46A      0.632313
      47A      0.649525    48A      0.679616    49A      0.751851
      50A      0.798013    51A      0.825384    52A      0.845289
      53A      0.855319    54A      0.873732    55A      0.878944
      56A      0.891926    57A      0.893214    58A      0.894948
      59A      0.898408    60A      0.899773    61A      0.907212
      62A      0.911185    63A      0.921525    64A      0.938253
      65A      0.947389    66A      0.969687    67A      0.982325
      68A      1.025156    69A      1.117089    70A      1.119542
      71A      1.131186    72A      1.164223    73A      1.235194
      74A      1.312626    75A      1.365498    76A      1.470037
      77A      1.478903    78A      1.484757    79A      1.498634
      80A      1.506798    81A      1.565286    82A      1.639697
      83A      1.663303    84A      1.680291    85A      1.686183
      86A      1.689693    87A      1.700877    88A      1.845200
      89A      1.852539    90A      1.866632    91A      1.875021
      92A      1.884253    93A      1.910295    94A      1.916900
      95A      1.924243    96A      1.941985    97A      1.943243
      98A      1.949130    99A      1.950670   100A      1.956869
     101A      1.962803   102A      1.975610   103A      1.990314
     104A      1.994129   105A      2.000907   106A      2.021495
     107A      2.038593   108A      2.111758   109A      2.120766
     110A      2.140176   111A      2.168699   112A      2.277076
     113A      2.298308   114A      2.300889   115A      2.304763
     116A      2.319881   117A      2.342623   118A      2.445486
     119A      2.476092   120A      2.494986   121A      2.528684
     122A      2.578348   123A      2.582943   124A      2.597550
     125A      2.612715   126A      2.618985   127A      2.745969
     128A      2.748477   129A      2.761604   130A      2.783798
     131A      2.794113   132A      2.801242   133A      2.841737
     134A      2.844821   135A      2.937599   136A      2.950907
     137A      2.956856   138A      2.965836   139A      2.974758
     140A      3.093760

    Final Occupation by Irrep:
              A
    DOCC [    22 ]

  @RHF Final Energy:  -197.50081281897357

   => Energetics <=

    Nuclear Repulsion Energy =            177.6917166661290253
    One-Electron Energy =                -616.2066484371836168
    Two-Electron Energy =                 241.0141189520810201
    Total Energy =                       -197.5008128189735714

Computation Completed

Properties will be evaluated at   0.000000,   0.000000,   0.000000 [a0]

Properties computed using the SCF density matrix

  Nuclear Dipole Moment: [e a0]
     X:    -0.7094      Y:     0.7000      Z:     0.7474

  Electronic Dipole Moment: [e a0]
     X:     0.7211      Y:    -0.6795      Z:    -0.6974

  Dipole Moment: [e a0]
     X:     0.0117      Y:     0.0206      Z:     0.0499     Total:     0.0552

  Dipole Moment: [D]
     X:     0.0297      Y:     0.0522      Z:     0.1269     Total:     0.1404

*** tstop() called on ds3 at Tue Apr 28 20:00:57 2020
Module time:
	user time   =      15.25 seconds =       0.25 minutes
	system time =       5.69 seconds =       0.09 minutes
	total time  =         20 seconds =       0.33 minutes
Total time:
	user time   =      15.25 seconds =       0.25 minutes
	system time =       5.69 seconds =       0.09 minutes
	total time  =         20 seconds =       0.33 minutes
                                     G D M A

                                 by Anthony Stone

                           version 2.2.06, 22 June 2011

               Distributed Multipoles from Gaussian wavefunctions

Starting at 20:0:57 on 28 Apr 2020

Using SCF density matrix from file ./SSI/SSI-075LEU-111LEU-1-dimer.test.9166.fchk

                         Distributed Multipole Analysis

Standard DMA

Positions and radii in angstrom
Multipole moments in atomic units, ea_0^k for rank k

C          x =  0.935310  y = -0.900543  z = -0.964191 angstrom
           Maximum rank =  0   Radius =  0.650 angstrom
                   Q00  =  -0.089020

C          x =  0.524310  y = -2.374543  z = -0.867191 angstrom
           Maximum rank =  0   Radius =  0.650 angstrom
                   Q00  =  -0.238129

C          x =  0.330310  y = -0.086543  z = -2.124191 angstrom
           Maximum rank =  0   Radius =  0.650 angstrom
                   Q00  =  -0.253956

H          x =  0.705310  y = -0.413543  z = -0.023191 angstrom
           Maximum rank =  0   Radius =  0.325 angstrom
                   Q00  =   0.060358

H          x =  2.014310  y = -0.847543  z = -1.078191 angstrom
           Maximum rank =  0   Radius =  0.325 angstrom
                   Q00  =   0.041872

H          x = -0.535690  y = -2.417543  z = -0.608191 angstrom
           Maximum rank =  0   Radius =  0.325 angstrom
                   Q00  =   0.072959

H          x =  0.628310  y = -0.525543  z = -3.075191 angstrom
           Maximum rank =  0   Radius =  0.325 angstrom
                   Q00  =   0.079073

H          x =  1.099690  y = -2.892163  z = -0.085521 angstrom
           Maximum rank =  0   Radius =  0.325 angstrom
                   Q00  =   0.088840

H          x =  0.637930  y = -2.854913  z = -1.850221 angstrom
           Maximum rank =  0   Radius =  0.325 angstrom
                   Q00  =   0.077070

H          x = -0.768720  y = -0.081533  z = -2.078371 angstrom
           Maximum rank =  0   Radius =  0.325 angstrom
                   Q00  =   0.075059

H          x =  0.714090  y =  0.944277  z = -2.113431 angstrom
           Maximum rank =  0   Radius =  0.325 angstrom
                   Q00  =   0.086118

C          x = -0.339690  y =  1.103457  z =  2.030809 angstrom
           Maximum rank =  0   Radius =  0.650 angstrom
                   Q00  =  -0.231938

C          x = -1.386690  y =  2.195457  z =  1.857809 angstrom
           Maximum rank =  0   Radius =  0.650 angstrom
                   Q00  =  -0.235615

H          x = -0.258690  y =  0.833457  z =  3.084809 angstrom
           Maximum rank =  0   Radius =  0.325 angstrom
                   Q00  =   0.078818

H          x = -0.668690  y =  0.221457  z =  1.484809 angstrom
           Maximum rank =  0   Radius =  0.325 angstrom
                   Q00  =   0.077014

H          x =  0.632310  y =  1.444457  z =  1.670809 angstrom
           Maximum rank =  0   Radius =  0.325 angstrom
                   Q00  =   0.078446

H          x = -2.361690  y =  1.746457  z =  2.045809 angstrom
           Maximum rank =  0   Radius =  0.325 angstrom
                   Q00  =   0.075680

H          x = -1.217110  y =  2.997347  z =  2.591439 angstrom
           Maximum rank =  0   Radius =  0.325 angstrom
                   Q00  =   0.077855

H          x = -1.378070  y =  2.592057  z =  0.831829 angstrom
           Maximum rank =  0   Radius =  0.325 angstrom
                   Q00  =   0.079495

Total multipoles referred to origin at
           x =   0.000000,  y =    0.000000,  z =    0.000000 angstrom
                   Q00  =  -0.000000

Finished at 20:0:57 on 28 Apr 2020

  DMA results are available in the Python driver through the
	  variable('DMA DISTRIBUTED MULTIPOLES')
  and
	  variable('DMA TOTAL MULTIPOLES')
  commands.

    Psi4 stopped on: Tuesday, 28 April 2020 08:00PM
    Psi4 wall time for execution: 0:00:20.68

*** Psi4 exiting successfully. Buy a developer a beer!
