                               Psi4 1.3.2 release

  ==> Input File <==

--------------------------------------------------------------------------
import numpy as np
set {scf_type pk
basis cc-pvdz
d_convergence 10
gdma_switch   0
gdma_limit    0
gdma_origin   [ 0.0,  0.0,  0.0 ]
}
molecule test {
    units Angstrom
    0 1
    --
    0 1
    C                1.095792183970392    -3.231887669764648    -2.342758020111449
    C               -0.835207816029608     0.152112330235352    -0.515758020111449
    C                0.473792183970392     0.268112330235352    -0.984758020111449
    C               -1.514207816029608    -1.052887669764648    -0.645758020111448
    C                1.098792183970392    -0.825887669764648    -1.584758020111448
    C               -0.885207816029608    -2.146887669764648    -1.237758020111448
    C                0.426792183970392    -2.044887669764647    -1.704758020111449
    H               -1.326207816029608     0.994112330235352    -0.051758020111449
    H                1.002792183970392     1.206112330235352    -0.891758020111448
    H               -2.535207816029608    -1.120887669764648    -0.312758020111449
    H                2.107792183970393    -0.723887669764648    -1.957758020111448
    H               -1.430207816029608    -3.073887669764648    -1.347758020111449
    H                1.702792183970392    -2.890887669764648    -3.182758020111448
    H                0.322792183970392    -3.883887669764648    -2.749758020111449
    H                1.720399183970392    -3.819207669764648    -1.653610020111449
    C               -0.194207816029608     2.454112330235352     2.245241979888551
    C               -0.712207816029608     2.170112330235352     3.657241979888551
    C                0.895792183970392     3.525112330235352     2.258241979888551
    H                0.227792183970392     1.540112330235352     1.825241979888552
    H               -1.019207816029608     2.789112330235352     1.614241979888551
    H               -1.197207816029608     3.070112330235352     4.039241979888551
    H                0.141792183970392     1.960112330235352     4.303241979888552
    H                0.486792183970392     4.447112330235353     2.675241979888551
    H                1.716792183970392     3.186112330235352     2.895241979888552
    H               -1.413282816029608     1.326252330235352     3.737201979888552
    H                1.278540183970392     3.719732330235352     1.245509179888552

}
e, wfn = energy('scf', return_wfn=True)
gdma(wfn)
dmavals = variable('DMA DISTRIBUTED MULTIPOLES')
charges = np.array(dmavals)
print(charges)
np.save('SSI-071PHE-080LYS-1-dimer.npy', np.array(charges))--------------------------------------------------------------------------

*** tstart() called on ds3
*** at Sun Apr 26 22:05:13 2020

   => Loading Basis Set <=

    Name: CC-PVDZ
    Role: ORBITAL
    Keyword: BASIS
    atoms 1-7, 16-18  entry C          line   138 file /theoryfs2/ds/metcalf/miniconda2/envs/tf2gpu/share/psi4/basis/cc-pvdz.gbs
    atoms 8-15, 19-26 entry H          line    22 file /theoryfs2/ds/metcalf/miniconda2/envs/tf2gpu/share/psi4/basis/cc-pvdz.gbs

         ---------------------------------------------------------
                                   SCF
               by Justin Turney, Rob Parrish, Andy Simmonett
                          and Daniel G. A. Smith
                              RHF Reference
                        1 Threads,    500 MiB Core
         ---------------------------------------------------------

  ==> Geometry <==

    Molecular point group: c1
    Full point group: C1

    Geometry (in Angstrom), charge = 0, multiplicity = 1:

       Center              X                  Y                   Z               Mass
    ------------   -----------------  -----------------  -----------------  -----------------
         C            1.095792183970    -3.231887669765    -2.342758020111    12.000000000000
         C           -0.835207816030     0.152112330235    -0.515758020111    12.000000000000
         C            0.473792183970     0.268112330235    -0.984758020111    12.000000000000
         C           -1.514207816030    -1.052887669765    -0.645758020111    12.000000000000
         C            1.098792183970    -0.825887669765    -1.584758020111    12.000000000000
         C           -0.885207816030    -2.146887669765    -1.237758020111    12.000000000000
         C            0.426792183970    -2.044887669765    -1.704758020111    12.000000000000
         H           -1.326207816030     0.994112330235    -0.051758020111     1.007825032230
         H            1.002792183970     1.206112330235    -0.891758020111     1.007825032230
         H           -2.535207816030    -1.120887669765    -0.312758020111     1.007825032230
         H            2.107792183970    -0.723887669765    -1.957758020111     1.007825032230
         H           -1.430207816030    -3.073887669765    -1.347758020111     1.007825032230
         H            1.702792183970    -2.890887669765    -3.182758020111     1.007825032230
         H            0.322792183970    -3.883887669765    -2.749758020111     1.007825032230
         H            1.720399183970    -3.819207669765    -1.653610020111     1.007825032230
         C           -0.194207816030     2.454112330235     2.245241979889    12.000000000000
         C           -0.712207816030     2.170112330235     3.657241979889    12.000000000000
         C            0.895792183970     3.525112330235     2.258241979889    12.000000000000
         H            0.227792183970     1.540112330235     1.825241979889     1.007825032230
         H           -1.019207816030     2.789112330235     1.614241979889     1.007825032230
         H           -1.197207816030     3.070112330235     4.039241979889     1.007825032230
         H            0.141792183970     1.960112330235     4.303241979889     1.007825032230
         H            0.486792183970     4.447112330235     2.675241979889     1.007825032230
         H            1.716792183970     3.186112330235     2.895241979889     1.007825032230
         H           -1.413282816030     1.326252330235     3.737201979889     1.007825032230
         H            1.278540183970     3.719732330235     1.245509179889     1.007825032230

  Running in c1 symmetry.

  Rotational constants: A =      0.08794  B =      0.01421  C =      0.01314 [cm^-1]
  Rotational constants: A =   2636.42512  B =    425.99097  C =    394.05305 [MHz]
  Nuclear repulsion =  473.876472003098002

  Charge       = 0
  Multiplicity = 1
  Electrons    = 76
  Nalpha       = 38
  Nbeta        = 38

  ==> Algorithm <==

  SCF Algorithm Type is PK.
  DIIS enabled.
  MOM disabled.
  Fractional occupation disabled.
  Guess Type is SAD.
  Energy threshold   = 1.00e-06
  Density threshold  = 1.00e-10
  Integral threshold = 0.00e+00

  ==> Primary Basis <==

  Basis Set: CC-PVDZ
    Blend: CC-PVDZ
    Number of shells: 108
    Number of basis function: 220
    Number of Cartesian functions: 230
    Spherical Harmonics?: true
    Max angular momentum: 2

  ==> Pre-Iterations <==

   -------------------------------------------------------
    Irrep   Nso     Nmo     Nalpha   Nbeta   Ndocc  Nsocc
   -------------------------------------------------------
     A        220     220       0       0       0       0
   -------------------------------------------------------
    Total     220     220      38      38      38       0
   -------------------------------------------------------

  ==> Integral Setup <==

  Using integral reordering PK algorithm.
  Sizing the integral batches needed.
  Building batch lookup table.
   Calculation information:
      Number of atoms:                  26
      Number of AO shells:             108
      Number of primitives:            300
      Number of atomic orbitals:       230
      Number of basis functions:       220

      Integral cutoff                 1.00e-12
      Number of threads:                 1

	Batch   1 pq = [       0,    9405] index = [             0,44231715] size =     44231715
	Batch   2 pq = [    9405,   13301] index = [      44231715,88464951] size =     44233236
	Batch   3 pq = [   13301,   16290] index = [      88464951,132690195] size =     44225244
	Batch   4 pq = [   16290,   18810] index = [     132690195,176917455] size =     44227260
	Batch   5 pq = [   18810,   21030] index = [     176917455,221140965] size =     44223510
	Batch   6 pq = [   21030,   23037] index = [     221140965,265363203] size =     44222238
	Batch   7 pq = [   23037,   24310] index = [     265363203,295500205] size =     30137002
  Task number: 27
  Buffer size: 11059200
  Buffer per thread: 2
  We computed 13161520 shell quartets total.
  Whereas there are 17325441 unique shell quartets.

  ==> DiskJK: Disk-Based J/K Matrices <==

    J tasked:                  Yes
    K tasked:                  Yes
    wK tasked:                  No
    Memory [MiB]:              375
    Schwarz Cutoff:          1E-12

    OpenMP threads:              1

  Minimum eigenvalue in the overlap matrix is 3.0879954538E-04.
  Using Symmetric Orthogonalization.

  SCF Guess: Superposition of Atomic Densities via on-the-fly atomic UHF.

  ==> Iterations <==

                        Total Energy        Delta E     RMS |[F,P]|

   @RHF iter SAD:  -386.86981549992908   -3.86870e+02   0.00000e+00
   @RHF iter   1:  -387.77302818109428   -9.03213e-01   2.74515e-03 DIIS
   @RHF iter   2:  -387.99166096689652   -2.18633e-01   1.15178e-03 DIIS
   @RHF iter   3:  -388.02658625013191   -3.49253e-02   2.49848e-04 DIIS
   @RHF iter   4:  -388.02947124688802   -2.88500e-03   5.05606e-05 DIIS
   @RHF iter   5:  -388.02955647780880   -8.52309e-05   1.62258e-05 DIIS
   @RHF iter   6:  -388.02956472211855   -8.24431e-06   4.80675e-06 DIIS
   @RHF iter   7:  -388.02956554855513   -8.26437e-07   1.23600e-06 DIIS
   @RHF iter   8:  -388.02956561458330   -6.60282e-08   3.17398e-07 DIIS
   @RHF iter   9:  -388.02956562393126   -9.34796e-09   1.39439e-07 DIIS
   @RHF iter  10:  -388.02956562612820   -2.19694e-09   6.72357e-08 DIIS
   @RHF iter  11:  -388.02956562681590   -6.87692e-10   2.65250e-08 DIIS
   @RHF iter  12:  -388.02956562691662   -1.00727e-10   9.34860e-09 DIIS
   @RHF iter  13:  -388.02956562692697   -1.03455e-11   3.46557e-09 DIIS
   @RHF iter  14:  -388.02956562692816   -1.19371e-12   1.06569e-09 DIIS
   @RHF iter  15:  -388.02956562692896   -7.95808e-13   4.48466e-10 DIIS
   @RHF iter  16:  -388.02956562692754    1.42109e-12   1.93092e-10 DIIS
   @RHF iter  17:  -388.02956562692896   -1.42109e-12   8.37529e-11 DIIS
  Energy and wave function converged.

  ==> Post-Iterations <==

    Orbital Energies [Eh]
    ---------------------

    Doubly Occupied:

       1A    -11.240785     2A    -11.235738     3A    -11.233890
       4A    -11.231086     5A    -11.230575     6A    -11.229661
       7A    -11.228938     8A    -11.219007     9A    -11.217175
      10A    -11.215615    11A     -1.150886    12A     -1.053916
      13A     -1.043377    14A     -1.010537    15A     -0.930360
      16A     -0.921831    17A     -0.824478    18A     -0.798819
      19A     -0.793407    20A     -0.690175    21A     -0.630913
      22A     -0.630267    23A     -0.626909    24A     -0.597098
      25A     -0.582239    26A     -0.576504    27A     -0.561314
      28A     -0.542924    29A     -0.533685    30A     -0.528724
      31A     -0.487709    32A     -0.484026    33A     -0.481829
      34A     -0.474716    35A     -0.469423    36A     -0.465107
      37A     -0.331395    38A     -0.320706

    Virtual:

      39A      0.134948    40A      0.140623    41A      0.171401
      42A      0.190475    43A      0.204282    44A      0.207331
      45A      0.225980    46A      0.234532    47A      0.241858
      48A      0.255249    49A      0.257636    50A      0.270333
      51A      0.284882    52A      0.285472    53A      0.289960
      54A      0.308384    55A      0.320552    56A      0.336469
      57A      0.362247    58A      0.377894    59A      0.380613
      60A      0.416078    61A      0.455680    62A      0.472180
      63A      0.479701    64A      0.492281    65A      0.559395
      66A      0.580108    67A      0.598172    68A      0.607207
      69A      0.612586    70A      0.622619    71A      0.638112
      72A      0.658163    73A      0.686128    74A      0.689388
      75A      0.714168    76A      0.717304    77A      0.739200
      78A      0.742668    79A      0.745912    80A      0.758509
      81A      0.761219    82A      0.777137    83A      0.792907
      84A      0.811825    85A      0.823548    86A      0.838292
      87A      0.850474    88A      0.865012    89A      0.867220
      90A      0.875464    91A      0.880417    92A      0.893922
      93A      0.895985    94A      0.898389    95A      0.900604
      96A      0.904758    97A      0.906685    98A      0.918961
      99A      0.924902   100A      0.926659   101A      0.937827
     102A      0.944777   103A      0.962418   104A      0.979114
     105A      0.986136   106A      1.013447   107A      1.035708
     108A      1.056787   109A      1.109721   110A      1.125778
     111A      1.145091   112A      1.150814   113A      1.165528
     114A      1.174346   115A      1.193960   116A      1.211130
     117A      1.243439   118A      1.245464   119A      1.258425
     120A      1.263767   121A      1.299527   122A      1.306596
     123A      1.314534   124A      1.326294   125A      1.375849
     126A      1.414422   127A      1.477553   128A      1.494456
     129A      1.511582   130A      1.523860   131A      1.551734
     132A      1.556973   133A      1.598035   134A      1.621186
     135A      1.680252   136A      1.682513   137A      1.690247
     138A      1.701140   139A      1.707715   140A      1.736783
     141A      1.747874   142A      1.758711   143A      1.787091
     144A      1.808936   145A      1.860155   146A      1.870818
     147A      1.875385   148A      1.885395   149A      1.888576
     150A      1.896831   151A      1.908133   152A      1.911559
     153A      1.919807   154A      1.927998   155A      1.934884
     156A      1.943490   157A      1.949098   158A      1.961307
     159A      1.968011   160A      1.974441   161A      1.976850
     162A      1.983279   163A      1.991535   164A      1.995967
     165A      2.013285   166A      2.021623   167A      2.030022
     168A      2.041491   169A      2.063752   170A      2.067723
     171A      2.109041   172A      2.122633   173A      2.142290
     174A      2.151898   175A      2.163508   176A      2.176699
     177A      2.180712   178A      2.191643   179A      2.253107
     180A      2.275897   181A      2.292664   182A      2.297303
     183A      2.305553   184A      2.311133   185A      2.318798
     186A      2.323383   187A      2.329955   188A      2.344716
     189A      2.470811   190A      2.471937   191A      2.499374
     192A      2.511718   193A      2.532228   194A      2.540675
     195A      2.582470   196A      2.609254   197A      2.621535
     198A      2.636052   199A      2.742213   200A      2.753777
     201A      2.762482   202A      2.767338   203A      2.768585
     204A      2.785552   205A      2.792908   206A      2.809312
     207A      2.819227   208A      2.851087   209A      2.872243
     210A      2.908377   211A      2.963269   212A      2.974543
     213A      2.983265   214A      3.007816   215A      3.025876
     216A      3.081454   217A      3.154627   218A      3.201318
     219A      3.298115   220A      3.964838

    Final Occupation by Irrep:
              A
    DOCC [    38 ]

  @RHF Final Energy:  -388.02956562692896

   => Energetics <=

    Nuclear Repulsion Energy =            473.8764720030980016
    One-Electron Energy =               -1462.1605884937996507
    Two-Electron Energy =                 600.2545508637726925
    Total Energy =                       -388.0295656269289566

Computation Completed

Properties will be evaluated at   0.000000,   0.000000,   0.000000 [a0]

Properties computed using the SCF density matrix

  Nuclear Dipole Moment: [e a0]
     X:     1.6752      Y:     8.1806      Z:     9.5502

  Electronic Dipole Moment: [e a0]
     X:    -1.6274      Y:    -8.3026      Z:    -9.6261

  Dipole Moment: [e a0]
     X:     0.0478      Y:    -0.1220      Z:    -0.0759     Total:     0.1514

  Dipole Moment: [D]
     X:     0.1216      Y:    -0.3101      Z:    -0.1929     Total:     0.3849

*** tstop() called on ds3 at Sun Apr 26 22:07:31 2020
Module time:
	user time   =      99.45 seconds =       1.66 minutes
	system time =      44.61 seconds =       0.74 minutes
	total time  =        138 seconds =       2.30 minutes
Total time:
	user time   =      99.45 seconds =       1.66 minutes
	system time =      44.61 seconds =       0.74 minutes
	total time  =        138 seconds =       2.30 minutes
                                     G D M A

                                 by Anthony Stone

                           version 2.2.06, 22 June 2011

               Distributed Multipoles from Gaussian wavefunctions

Starting at 22:7:31 on 26 Apr 2020

Using SCF density matrix from file ./SSI/SSI-071PHE-080LYS-1-dimer.test.15378.fchk

                         Distributed Multipole Analysis

Standard DMA

Positions and radii in angstrom
Multipole moments in atomic units, ea_0^k for rank k

C          x =  1.095792  y = -3.231888  z = -2.342758 angstrom
           Maximum rank =  0   Radius =  0.650 angstrom
                   Q00  =  -0.202435

C          x = -0.835208  y =  0.152112  z = -0.515758 angstrom
           Maximum rank =  0   Radius =  0.650 angstrom
                   Q00  =  -0.076637

C          x =  0.473792  y =  0.268112  z = -0.984758 angstrom
           Maximum rank =  0   Radius =  0.650 angstrom
                   Q00  =  -0.064510

C          x = -1.514208  y = -1.052888  z = -0.645758 angstrom
           Maximum rank =  0   Radius =  0.650 angstrom
                   Q00  =  -0.076816

C          x =  1.098792  y = -0.825888  z = -1.584758 angstrom
           Maximum rank =  0   Radius =  0.650 angstrom
                   Q00  =  -0.093330

C          x = -0.885208  y = -2.146888  z = -1.237758 angstrom
           Maximum rank =  0   Radius =  0.650 angstrom
                   Q00  =   0.004162

C          x =  0.426792  y = -2.044888  z = -1.704758 angstrom
           Maximum rank =  0   Radius =  0.650 angstrom
                   Q00  =  -0.096334

H          x = -1.326208  y =  0.994112  z = -0.051758 angstrom
           Maximum rank =  0   Radius =  0.325 angstrom
                   Q00  =   0.065276

H          x =  1.002792  y =  1.206112  z = -0.891758 angstrom
           Maximum rank =  0   Radius =  0.325 angstrom
                   Q00  =   0.064882

H          x = -2.535208  y = -1.120888  z = -0.312758 angstrom
           Maximum rank =  0   Radius =  0.325 angstrom
                   Q00  =   0.063618

H          x =  2.107792  y = -0.723888  z = -1.957758 angstrom
           Maximum rank =  0   Radius =  0.325 angstrom
                   Q00  =   0.056942

H          x = -1.430208  y = -3.073888  z = -1.347758 angstrom
           Maximum rank =  0   Radius =  0.325 angstrom
                   Q00  =   0.057338

H          x =  1.702792  y = -2.890888  z = -3.182758 angstrom
           Maximum rank =  0   Radius =  0.325 angstrom
                   Q00  =   0.098174

H          x =  0.322792  y = -3.883888  z = -2.749758 angstrom
           Maximum rank =  0   Radius =  0.325 angstrom
                   Q00  =   0.096131

H          x =  1.720399  y = -3.819208  z = -1.653610 angstrom
           Maximum rank =  0   Radius =  0.325 angstrom
                   Q00  =   0.105320

C          x = -0.194208  y =  2.454112  z =  2.245242 angstrom
           Maximum rank =  0   Radius =  0.650 angstrom
                   Q00  =  -0.093966

C          x = -0.712208  y =  2.170112  z =  3.657242 angstrom
           Maximum rank =  0   Radius =  0.650 angstrom
                   Q00  =  -0.236364

C          x =  0.895792  y =  3.525112  z =  2.258242 angstrom
           Maximum rank =  0   Radius =  0.650 angstrom
                   Q00  =  -0.239837

H          x =  0.227792  y =  1.540112  z =  1.825242 angstrom
           Maximum rank =  0   Radius =  0.325 angstrom
                   Q00  =   0.056603

H          x = -1.019208  y =  2.789112  z =  1.614242 angstrom
           Maximum rank =  0   Radius =  0.325 angstrom
                   Q00  =   0.041952

H          x = -1.197208  y =  3.070112  z =  4.039242 angstrom
           Maximum rank =  0   Radius =  0.325 angstrom
                   Q00  =   0.072861

H          x =  0.141792  y =  1.960112  z =  4.303242 angstrom
           Maximum rank =  0   Radius =  0.325 angstrom
                   Q00  =   0.074112

H          x =  0.486792  y =  4.447112  z =  2.675242 angstrom
           Maximum rank =  0   Radius =  0.325 angstrom
                   Q00  =   0.075534

H          x =  1.716792  y =  3.186112  z =  2.895242 angstrom
           Maximum rank =  0   Radius =  0.325 angstrom
                   Q00  =   0.077170

H          x = -1.413283  y =  1.326252  z =  3.737202 angstrom
           Maximum rank =  0   Radius =  0.325 angstrom
                   Q00  =   0.087667

H          x =  1.278540  y =  3.719732  z =  1.245509 angstrom
           Maximum rank =  0   Radius =  0.325 angstrom
                   Q00  =   0.082487

Total multipoles referred to origin at
           x =   0.000000,  y =    0.000000,  z =    0.000000 angstrom
                   Q00  =  -0.000000

Finished at 22:7:32 on 26 Apr 2020

  DMA results are available in the Python driver through the
	  variable('DMA DISTRIBUTED MULTIPOLES')
  and
	  variable('DMA TOTAL MULTIPOLES')
  commands.

    Psi4 stopped on: Sunday, 26 April 2020 10:07PM
    Psi4 wall time for execution: 0:02:18.57

*** Psi4 exiting successfully. Buy a developer a beer!
