                               Psi4 1.3.2 release

  ==> Input File <==

--------------------------------------------------------------------------
import numpy as np
set {scf_type pk
basis cc-pvdz
d_convergence 10
gdma_switch   0
gdma_limit    0
gdma_origin   [ 0.0,  0.0,  0.0 ]
}
molecule test {
    units Angstrom
    0 1
    --
    0 1
    C                2.990195301702679     0.633982882925735     3.135092959573845
    C                1.758195301702679     0.709982882925735     3.976092959573845
    H                3.072195301702679    -0.343017117074265     2.658092959573845
    H                2.946195301702679     1.401982882925735     2.364092959573845
    H                3.868195301702679     0.807982882925735     3.759092959573845
    H                0.877195301702679     0.615982882925735     3.338092959573845
    H                1.746195301702679     1.709982882925736     4.404092959573846
    H                1.726605301702679    -0.061747117074265     4.759312959573847
    C               -1.953804698297321    -2.747017117074265    -0.815907040426154
    C               -0.488804698297321    -0.590017117074265    -0.703907040426154
    C               -1.717804698297321    -1.291017117074265    -0.984907040426155
    C               -0.696804698297322     0.762982882925735    -1.039907040426155
    C               -2.595804698297321    -0.368017117074265    -1.432907040426155
    C                1.757195301702679    -0.029017117074265    -0.092907040426155
    C                1.512195301702679     1.309982882925735    -0.411907040426155
    C                0.770195301702679    -0.988017117074265    -0.246907040426155
    C                0.290195301702679     1.724982882925735    -0.880907040426155
    N               -1.991804698297321     0.862982882925735    -1.460907040426155
    H                2.738195301702679    -0.323017117074265     0.257092959573845
    H                2.308195301702679     2.032982882925735    -0.295907040426155
    H                0.959195301702679    -2.024017117074265    -0.006907040426155
    H                0.102195301702679     2.757982882925735    -1.133907040426155
    H               -1.817804698297321    -2.989017117074265     0.238092959573845
    H               -1.183804698297321    -3.274017117074265    -1.379907040426155
    H               -3.617804698297321    -0.552017117074265    -1.737907040426155
    H               -2.461804698297321     1.728982882925735    -1.741907040426155
    H               -2.938674698297321    -3.106527117074265    -1.148757040426155

}
e, wfn = energy('scf', return_wfn=True)
gdma(wfn)
dmavals = variable('DMA DISTRIBUTED MULTIPOLES')
charges = np.array(dmavals)
print(charges)
np.save('SSI-031ILE-097TRP-1-dimer.npy', np.array(charges))--------------------------------------------------------------------------

*** tstart() called on ds3
*** at Tue Apr 28 21:25:58 2020

   => Loading Basis Set <=

    Name: CC-PVDZ
    Role: ORBITAL
    Keyword: BASIS
    atoms 1-2, 9-17  entry C          line   138 file /theoryfs2/ds/metcalf/miniconda2/envs/tf2gpu/share/psi4/basis/cc-pvdz.gbs
    atoms 3-8, 19-27 entry H          line    22 file /theoryfs2/ds/metcalf/miniconda2/envs/tf2gpu/share/psi4/basis/cc-pvdz.gbs
    atoms 18         entry N          line   168 file /theoryfs2/ds/metcalf/miniconda2/envs/tf2gpu/share/psi4/basis/cc-pvdz.gbs

         ---------------------------------------------------------
                                   SCF
               by Justin Turney, Rob Parrish, Andy Simmonett
                          and Daniel G. A. Smith
                              RHF Reference
                        1 Threads,    500 MiB Core
         ---------------------------------------------------------

  ==> Geometry <==

    Molecular point group: c1
    Full point group: C1

    Geometry (in Angstrom), charge = 0, multiplicity = 1:

       Center              X                  Y                   Z               Mass
    ------------   -----------------  -----------------  -----------------  -----------------
         C            2.990195301703     0.633982882926     3.135092959574    12.000000000000
         C            1.758195301703     0.709982882926     3.976092959574    12.000000000000
         H            3.072195301703    -0.343017117074     2.658092959574     1.007825032230
         H            2.946195301703     1.401982882926     2.364092959574     1.007825032230
         H            3.868195301703     0.807982882926     3.759092959574     1.007825032230
         H            0.877195301703     0.615982882926     3.338092959574     1.007825032230
         H            1.746195301703     1.709982882926     4.404092959574     1.007825032230
         H            1.726605301703    -0.061747117074     4.759312959574     1.007825032230
         C           -1.953804698297    -2.747017117074    -0.815907040426    12.000000000000
         C           -0.488804698297    -0.590017117074    -0.703907040426    12.000000000000
         C           -1.717804698297    -1.291017117074    -0.984907040426    12.000000000000
         C           -0.696804698297     0.762982882926    -1.039907040426    12.000000000000
         C           -2.595804698297    -0.368017117074    -1.432907040426    12.000000000000
         C            1.757195301703    -0.029017117074    -0.092907040426    12.000000000000
         C            1.512195301703     1.309982882926    -0.411907040426    12.000000000000
         C            0.770195301703    -0.988017117074    -0.246907040426    12.000000000000
         C            0.290195301703     1.724982882926    -0.880907040426    12.000000000000
         N           -1.991804698297     0.862982882926    -1.460907040426    14.003074004430
         H            2.738195301703    -0.323017117074     0.257092959574     1.007825032230
         H            2.308195301703     2.032982882926    -0.295907040426     1.007825032230
         H            0.959195301703    -2.024017117074    -0.006907040426     1.007825032230
         H            0.102195301703     2.757982882926    -1.133907040426     1.007825032230
         H           -1.817804698297    -2.989017117074     0.238092959574     1.007825032230
         H           -1.183804698297    -3.274017117074    -1.379907040426     1.007825032230
         H           -3.617804698297    -0.552017117074    -1.737907040426     1.007825032230
         H           -2.461804698297     1.728982882926    -1.741907040426     1.007825032230
         H           -2.938674698297    -3.106527117074    -1.148757040426     1.007825032230

  Running in c1 symmetry.

  Rotational constants: A =      0.04708  B =      0.01602  C =      0.01412 [cm^-1]
  Rotational constants: A =   1411.31138  B =    480.15207  C =    423.35336 [MHz]
  Nuclear repulsion =  653.173439078299111

  Charge       = 0
  Multiplicity = 1
  Electrons    = 88
  Nalpha       = 44
  Nbeta        = 44

  ==> Algorithm <==

  SCF Algorithm Type is PK.
  DIIS enabled.
  MOM disabled.
  Fractional occupation disabled.
  Guess Type is SAD.
  Energy threshold   = 1.00e-06
  Density threshold  = 1.00e-10
  Integral threshold = 0.00e+00

  ==> Primary Basis <==

  Basis Set: CC-PVDZ
    Blend: CC-PVDZ
    Number of shells: 117
    Number of basis function: 243
    Number of Cartesian functions: 255
    Spherical Harmonics?: true
    Max angular momentum: 2

  ==> Pre-Iterations <==

   -------------------------------------------------------
    Irrep   Nso     Nmo     Nalpha   Nbeta   Ndocc  Nsocc
   -------------------------------------------------------
     A        243     243       0       0       0       0
   -------------------------------------------------------
    Total     243     243      44      44      44       0
   -------------------------------------------------------

  ==> Integral Setup <==

  Using integral reordering PK algorithm.
  Sizing the integral batches needed.
  Building batch lookup table.
   Calculation information:
      Number of atoms:                  27
      Number of AO shells:             117
      Number of primitives:            339
      Number of atomic orbitals:       255
      Number of basis functions:       243

      Integral cutoff                 1.00e-12
      Number of threads:                 1

	Batch   1 pq = [       0,    9405] index = [             0,44231715] size =     44231715
	Batch   2 pq = [    9405,   13301] index = [      44231715,88464951] size =     44233236
	Batch   3 pq = [   13301,   16290] index = [      88464951,132690195] size =     44225244
	Batch   4 pq = [   16290,   18810] index = [     132690195,176917455] size =     44227260
	Batch   5 pq = [   18810,   21030] index = [     176917455,221140965] size =     44223510
	Batch   6 pq = [   21030,   23037] index = [     221140965,265363203] size =     44222238
	Batch   7 pq = [   23037,   24883] index = [     265363203,309594286] size =     44231083
	Batch   8 pq = [   24883,   26601] index = [     309594286,353819901] size =     44225615
	Batch   9 pq = [   26601,   28214] index = [     353819901,398029005] size =     44209104
	Batch  10 pq = [   28214,   29646] index = [     398029005,439457481] size =     41428476
  Task number: 40
  Buffer size: 11059200
  Buffer per thread: 2
  We computed 22377430 shell quartets total.
  Whereas there are 23829156 unique shell quartets.

  ==> DiskJK: Disk-Based J/K Matrices <==

    J tasked:                  Yes
    K tasked:                  Yes
    wK tasked:                  No
    Memory [MiB]:              375
    Schwarz Cutoff:          1E-12

    OpenMP threads:              1

  Minimum eigenvalue in the overlap matrix is 2.4053564647E-04.
  Using Symmetric Orthogonalization.

  SCF Guess: Superposition of Atomic Densities via on-the-fly atomic UHF.

  ==> Iterations <==

                        Total Energy        Delta E     RMS |[F,P]|

   @RHF iter SAD:  -479.21904429068468   -4.79219e+02   0.00000e+00
   @RHF iter   1:  -479.47958919233855   -2.60545e-01   2.65479e-03 DIIS
   @RHF iter   2:  -479.71814919519068   -2.38560e-01   1.18938e-03 DIIS
   @RHF iter   3:  -479.76214266296535   -4.39935e-02   3.00263e-04 DIIS
   @RHF iter   4:  -479.76592457945071   -3.78192e-03   1.38418e-04 DIIS
   @RHF iter   5:  -479.76656046492747   -6.35885e-04   2.01809e-05 DIIS
   @RHF iter   6:  -479.76658963890168   -2.91740e-05   9.06592e-06 DIIS
   @RHF iter   7:  -479.76659539326590   -5.75436e-06   3.71942e-06 DIIS
   @RHF iter   8:  -479.76659695260702   -1.55934e-06   1.44499e-06 DIIS
   @RHF iter   9:  -479.76659724918250   -2.96575e-07   6.36411e-07 DIIS
   @RHF iter  10:  -479.76659730761139   -5.84289e-08   2.90803e-07 DIIS
   @RHF iter  11:  -479.76659732211192   -1.45005e-08   1.13158e-07 DIIS
   @RHF iter  12:  -479.76659732430090   -2.18898e-09   3.66748e-08 DIIS
   @RHF iter  13:  -479.76659732444489   -1.43984e-10   8.96609e-09 DIIS
   @RHF iter  14:  -479.76659732445052   -5.62750e-12   3.44637e-09 DIIS
   @RHF iter  15:  -479.76659732446365   -1.31308e-11   1.77897e-09 DIIS
   @RHF iter  16:  -479.76659732445609    7.56017e-12   7.77752e-10 DIIS
   @RHF iter  17:  -479.76659732445967   -3.58114e-12   3.44201e-10 DIIS
   @RHF iter  18:  -479.76659732445626    3.41061e-12   1.38173e-10 DIIS
   @RHF iter  19:  -479.76659732445819   -1.93268e-12   4.69122e-11 DIIS
  Energy and wave function converged.

  ==> Post-Iterations <==

    Orbital Energies [Eh]
    ---------------------

    Doubly Occupied:

       1A    -15.598971     2A    -11.261951     3A    -11.260185
       4A    -11.229960     5A    -11.229345     6A    -11.227643
       7A    -11.224967     8A    -11.219343     9A    -11.218433
      10A    -11.215286    11A    -11.206541    12A    -11.205793
      13A     -1.296553    14A     -1.132096    15A     -1.074886
      16A     -1.019902    17A     -0.999560    18A     -0.989699
      19A     -0.932242    20A     -0.841428    21A     -0.824867
      22A     -0.803204    23A     -0.753164    24A     -0.718055
      25A     -0.662412    26A     -0.644649    27A     -0.603603
      28A     -0.597358    29A     -0.595172    30A     -0.592698
      31A     -0.590577    32A     -0.571788    33A     -0.551697
      34A     -0.537040    35A     -0.526643    36A     -0.499967
      37A     -0.494685    38A     -0.476157    39A     -0.472953
      40A     -0.471112    41A     -0.463253    42A     -0.371685
      43A     -0.295224    44A     -0.277414

    Virtual:

      45A      0.127092    46A      0.169220    47A      0.179687
      48A      0.183411    49A      0.194943    50A      0.210659
      51A      0.222691    52A      0.227514    53A      0.235175
      54A      0.248418    55A      0.255422    56A      0.272985
      57A      0.274157    58A      0.281523    59A      0.287165
      60A      0.291338    61A      0.309593    62A      0.333185
      63A      0.374153    64A      0.387964    65A      0.405986
      66A      0.410383    67A      0.428595    68A      0.448852
      69A      0.476677    70A      0.482822    71A      0.501904
      72A      0.510220    73A      0.588205    74A      0.600391
      75A      0.607905    76A      0.616617    77A      0.618797
      78A      0.624811    79A      0.640377    80A      0.664194
      81A      0.672652    82A      0.691544    83A      0.701978
      84A      0.709170    85A      0.722215    86A      0.733386
      87A      0.740799    88A      0.742862    89A      0.749998
      90A      0.760421    91A      0.766392    92A      0.784486
      93A      0.793481    94A      0.814701    95A      0.827555
      96A      0.842555    97A      0.861938    98A      0.865866
      99A      0.872105   100A      0.878429   101A      0.885039
     102A      0.886527   103A      0.899393   104A      0.907816
     105A      0.912609   106A      0.914716   107A      0.942063
     108A      0.947259   109A      0.953263   110A      0.957686
     111A      0.963627   112A      0.966569   113A      0.979479
     114A      0.996891   115A      1.010160   116A      1.022128
     117A      1.060316   118A      1.073047   119A      1.088857
     120A      1.120084   121A      1.133293   122A      1.137648
     123A      1.149867   124A      1.161820   125A      1.167188
     126A      1.178337   127A      1.211895   128A      1.222824
     129A      1.228412   130A      1.235332   131A      1.243296
     132A      1.276122   133A      1.289039   134A      1.299466
     135A      1.308273   136A      1.328756   137A      1.337079
     138A      1.366331   139A      1.377152   140A      1.396287
     141A      1.443596   142A      1.483569   143A      1.517842
     144A      1.527607   145A      1.574042   146A      1.582804
     147A      1.593190   148A      1.618315   149A      1.635696
     150A      1.643181   151A      1.659237   152A      1.683358
     153A      1.686228   154A      1.695943   155A      1.700122
     156A      1.744936   157A      1.777332   158A      1.779776
     159A      1.794147   160A      1.820815   161A      1.826448
     162A      1.838563   163A      1.854827   164A      1.886814
     165A      1.890773   166A      1.894282   167A      1.895163
     168A      1.913046   169A      1.917543   170A      1.932669
     171A      1.943736   172A      1.945678   173A      1.959155
     174A      1.964884   175A      1.970374   176A      1.978895
     177A      1.982176   178A      1.997375   179A      1.998751
     180A      2.007080   181A      2.016782   182A      2.037477
     183A      2.043107   184A      2.085132   185A      2.088962
     186A      2.105816   187A      2.106595   188A      2.113378
     189A      2.117986   190A      2.143203   191A      2.146126
     192A      2.151954   193A      2.154354   194A      2.179421
     195A      2.189683   196A      2.225023   197A      2.229258
     198A      2.298308   199A      2.306910   200A      2.313220
     201A      2.321309   202A      2.328236   203A      2.342442
     204A      2.353700   205A      2.396252   206A      2.442688
     207A      2.456291   208A      2.469571   209A      2.474546
     210A      2.489047   211A      2.534372   212A      2.575446
     213A      2.584199   214A      2.600111   215A      2.610058
     216A      2.653742   217A      2.661799   218A      2.685453
     219A      2.708849   220A      2.771217   221A      2.776300
     222A      2.783671   223A      2.790625   224A      2.806799
     225A      2.808278   226A      2.817526   227A      2.860454
     228A      2.870327   229A      2.871301   230A      2.881387
     231A      2.915851   232A      2.974587   233A      2.983000
     234A      2.988365   235A      3.044881   236A      3.067792
     237A      3.098210   238A      3.134360   239A      3.215543
     240A      3.326181   241A      3.394619   242A      3.741196
     243A      3.970978

    Final Occupation by Irrep:
              A
    DOCC [    44 ]

  @RHF Final Energy:  -479.76659732445819

   => Energetics <=

    Nuclear Repulsion Energy =            653.1734390782991113
    One-Electron Energy =               -1944.3197523442747752
    Two-Electron Energy =                 811.3797159415173610
    Total Energy =                       -479.7665973244581892

Computation Completed

Properties will be evaluated at   0.000000,   0.000000,   0.000000 [a0]

Properties computed using the SCF density matrix

  Nuclear Dipole Moment: [e a0]
     X:     7.8097      Y:    -1.5189      Z:    13.4408

  Electronic Dipole Moment: [e a0]
     X:    -8.5039      Y:     1.8696      Z:   -13.7797

  Dipole Moment: [e a0]
     X:    -0.6942      Y:     0.3508      Z:    -0.3390     Total:     0.8484

  Dipole Moment: [D]
     X:    -1.7645      Y:     0.8915      Z:    -0.8615     Total:     2.1565

*** tstop() called on ds3 at Tue Apr 28 21:30:05 2020
Module time:
	user time   =     175.73 seconds =       2.93 minutes
	system time =      77.69 seconds =       1.29 minutes
	total time  =        247 seconds =       4.12 minutes
Total time:
	user time   =     175.73 seconds =       2.93 minutes
	system time =      77.69 seconds =       1.29 minutes
	total time  =        247 seconds =       4.12 minutes
                                     G D M A

                                 by Anthony Stone

                           version 2.2.06, 22 June 2011

               Distributed Multipoles from Gaussian wavefunctions

Starting at 21:30:5 on 28 Apr 2020

Using SCF density matrix from file ./SSI/SSI-031ILE-097TRP-1-dimer.test.25399.fchk

                         Distributed Multipole Analysis

Standard DMA

Positions and radii in angstrom
Multipole moments in atomic units, ea_0^k for rank k

C          x =  2.990195  y =  0.633983  z =  3.135093 angstrom
           Maximum rank =  0   Radius =  0.650 angstrom
                   Q00  =  -0.226382

C          x =  1.758195  y =  0.709983  z =  3.976093 angstrom
           Maximum rank =  0   Radius =  0.650 angstrom
                   Q00  =  -0.218654

H          x =  3.072195  y = -0.343017  z =  2.658093 angstrom
           Maximum rank =  0   Radius =  0.325 angstrom
                   Q00  =   0.072614

H          x =  2.946195  y =  1.401983  z =  2.364093 angstrom
           Maximum rank =  0   Radius =  0.325 angstrom
                   Q00  =   0.077013

H          x =  3.868195  y =  0.807983  z =  3.759093 angstrom
           Maximum rank =  0   Radius =  0.325 angstrom
                   Q00  =   0.067601

H          x =  0.877195  y =  0.615983  z =  3.338093 angstrom
           Maximum rank =  0   Radius =  0.325 angstrom
                   Q00  =   0.084747

H          x =  1.746195  y =  1.709983  z =  4.404093 angstrom
           Maximum rank =  0   Radius =  0.325 angstrom
                   Q00  =   0.068665

H          x =  1.726605  y = -0.061747  z =  4.759313 angstrom
           Maximum rank =  0   Radius =  0.325 angstrom
                   Q00  =   0.074559

C          x = -1.953805  y = -2.747017  z = -0.815907 angstrom
           Maximum rank =  0   Radius =  0.650 angstrom
                   Q00  =  -0.203601

C          x = -0.488805  y = -0.590017  z = -0.703907 angstrom
           Maximum rank =  0   Radius =  0.650 angstrom
                   Q00  =  -0.064243

C          x = -1.717805  y = -1.291017  z = -0.984907 angstrom
           Maximum rank =  0   Radius =  0.650 angstrom
                   Q00  =  -0.117419

C          x = -0.696805  y =  0.762983  z = -1.039907 angstrom
           Maximum rank =  0   Radius =  0.650 angstrom
                   Q00  =   0.255525

C          x = -2.595805  y = -0.368017  z = -1.432907 angstrom
           Maximum rank =  0   Radius =  0.650 angstrom
                   Q00  =   0.074338

C          x =  1.757195  y = -0.029017  z = -0.092907 angstrom
           Maximum rank =  0   Radius =  0.650 angstrom
                   Q00  =  -0.099391

C          x =  1.512195  y =  1.309983  z = -0.411907 angstrom
           Maximum rank =  0   Radius =  0.650 angstrom
                   Q00  =  -0.007860

C          x =  0.770195  y = -0.988017  z = -0.246907 angstrom
           Maximum rank =  0   Radius =  0.650 angstrom
                   Q00  =  -0.096387

C          x =  0.290195  y =  1.724983  z = -0.880907 angstrom
           Maximum rank =  0   Radius =  0.650 angstrom
                   Q00  =  -0.117629

N          x = -1.991805  y =  0.862983  z = -1.460907 angstrom
           Maximum rank =  0   Radius =  0.650 angstrom
                   Q00  =  -0.504172

H          x =  2.738195  y = -0.323017  z =  0.257093 angstrom
           Maximum rank =  0   Radius =  0.325 angstrom
                   Q00  =   0.062133

H          x =  2.308195  y =  2.032983  z = -0.295907 angstrom
           Maximum rank =  0   Radius =  0.325 angstrom
                   Q00  =   0.062761

H          x =  0.959195  y = -2.024017  z = -0.006907 angstrom
           Maximum rank =  0   Radius =  0.325 angstrom
                   Q00  =   0.070303

H          x =  0.102195  y =  2.757983  z = -1.133907 angstrom
           Maximum rank =  0   Radius =  0.325 angstrom
                   Q00  =   0.072469

H          x = -1.817805  y = -2.989017  z =  0.238093 angstrom
           Maximum rank =  0   Radius =  0.325 angstrom
                   Q00  =   0.095846

H          x = -1.183805  y = -3.274017  z = -1.379907 angstrom
           Maximum rank =  0   Radius =  0.325 angstrom
                   Q00  =   0.095971

H          x = -3.617805  y = -0.552017  z = -1.737907 angstrom
           Maximum rank =  0   Radius =  0.325 angstrom
                   Q00  =   0.101791

H          x = -2.461805  y =  1.728983  z = -1.741907 angstrom
           Maximum rank =  0   Radius =  0.325 angstrom
                   Q00  =   0.214162

H          x = -2.938675  y = -3.106527  z = -1.148757 angstrom
           Maximum rank =  0   Radius =  0.325 angstrom
                   Q00  =   0.105240

Total multipoles referred to origin at
           x =   0.000000,  y =    0.000000,  z =    0.000000 angstrom
                   Q00  =  -0.000000

Finished at 21:30:5 on 28 Apr 2020

  DMA results are available in the Python driver through the
	  variable('DMA DISTRIBUTED MULTIPOLES')
  and
	  variable('DMA TOTAL MULTIPOLES')
  commands.

    Psi4 stopped on: Tuesday, 28 April 2020 09:30PM
    Psi4 wall time for execution: 0:04:06.95

*** Psi4 exiting successfully. Buy a developer a beer!
