                               Psi4 1.3.2 release

  ==> Input File <==

--------------------------------------------------------------------------
import numpy as np
set {scf_type pk
basis cc-pvdz
d_convergence 10
gdma_switch   0
gdma_limit    0
gdma_origin   [ 0.0,  0.0,  0.0 ]
}
molecule test {
    units Angstrom
    0 1
    --
    0 1
    C                1.387653804881753    -0.648871932139300    -0.151487318373775
    C                2.768653804881753    -1.341871932139300    -0.076487318373775
    H                1.359653804881752     0.214128067860700     0.514512681626225
    H                1.203653804881753    -0.298871932139300    -1.169487318373775
    H                0.600653804881753    -1.344871932139300     0.135512681626225
    H                3.537653804881753    -0.599871932139300    -0.286487318373775
    H                2.930613804881752    -1.761701932139300     0.927261681626225
    H                2.842353804881753    -2.131771932139300    -0.838480318373775
    C               -1.877346195118248     1.130128067860700     0.850512681626225
    C               -2.284346195118248     0.863128067860700    -0.621487318373775
    H               -2.400346195118247     2.009128067860700     1.224512681626225
    H               -2.133346195118247     0.265128067860700     1.464512681626225
    H               -0.802346195118247     1.303128067860700     0.912512681626225
    H               -1.722346195118247    -0.005871932139300    -0.969487318373775
    H               -2.001716195118247     1.723098067860700    -1.246441318373775
    H               -3.350366195118247     0.598438067860700    -0.680952318373775

}
e, wfn = energy('scf', return_wfn=True)
gdma(wfn)
dmavals = variable('DMA DISTRIBUTED MULTIPOLES')
charges = np.array(dmavals)
print(charges)
np.save('SSI-053VAL-074ALA-1-dimer.npy', np.array(charges))--------------------------------------------------------------------------

*** tstart() called on ds3
*** at Tue Apr 28 08:56:01 2020

   => Loading Basis Set <=

    Name: CC-PVDZ
    Role: ORBITAL
    Keyword: BASIS
    atoms 1-2, 9-10  entry C          line   138 file /theoryfs2/ds/metcalf/miniconda2/envs/tf2gpu/share/psi4/basis/cc-pvdz.gbs
    atoms 3-8, 11-16 entry H          line    22 file /theoryfs2/ds/metcalf/miniconda2/envs/tf2gpu/share/psi4/basis/cc-pvdz.gbs

         ---------------------------------------------------------
                                   SCF
               by Justin Turney, Rob Parrish, Andy Simmonett
                          and Daniel G. A. Smith
                              RHF Reference
                        1 Threads,    500 MiB Core
         ---------------------------------------------------------

  ==> Geometry <==

    Molecular point group: c1
    Full point group: C1

    Geometry (in Angstrom), charge = 0, multiplicity = 1:

       Center              X                  Y                   Z               Mass
    ------------   -----------------  -----------------  -----------------  -----------------
         C            1.387653804882    -0.648871932139    -0.151487318374    12.000000000000
         C            2.768653804882    -1.341871932139    -0.076487318374    12.000000000000
         H            1.359653804882     0.214128067861     0.514512681626     1.007825032230
         H            1.203653804882    -0.298871932139    -1.169487318374     1.007825032230
         H            0.600653804882    -1.344871932139     0.135512681626     1.007825032230
         H            3.537653804882    -0.599871932139    -0.286487318374     1.007825032230
         H            2.930613804882    -1.761701932139     0.927261681626     1.007825032230
         H            2.842353804882    -2.131771932139    -0.838480318374     1.007825032230
         C           -1.877346195118     1.130128067861     0.850512681626    12.000000000000
         C           -2.284346195118     0.863128067861    -0.621487318374    12.000000000000
         H           -2.400346195118     2.009128067861     1.224512681626     1.007825032230
         H           -2.133346195118     0.265128067861     1.464512681626     1.007825032230
         H           -0.802346195118     1.303128067861     0.912512681626     1.007825032230
         H           -1.722346195118    -0.005871932139    -0.969487318374     1.007825032230
         H           -2.001716195118     1.723098067861    -1.246441318374     1.007825032230
         H           -3.350366195118     0.598438067861    -0.680952318374     1.007825032230

  Running in c1 symmetry.

  Rotational constants: A =      0.52896  B =      0.04793  C =      0.04548 [cm^-1]
  Rotational constants: A =  15857.79472  B =   1436.75882  C =   1363.60585 [MHz]
  Nuclear repulsion =  121.692229883730960

  Charge       = 0
  Multiplicity = 1
  Electrons    = 36
  Nalpha       = 18
  Nbeta        = 18

  ==> Algorithm <==

  SCF Algorithm Type is PK.
  DIIS enabled.
  MOM disabled.
  Fractional occupation disabled.
  Guess Type is SAD.
  Energy threshold   = 1.00e-06
  Density threshold  = 1.00e-10
  Integral threshold = 0.00e+00

  ==> Primary Basis <==

  Basis Set: CC-PVDZ
    Blend: CC-PVDZ
    Number of shells: 60
    Number of basis function: 116
    Number of Cartesian functions: 120
    Spherical Harmonics?: true
    Max angular momentum: 2

  ==> Pre-Iterations <==

   -------------------------------------------------------
    Irrep   Nso     Nmo     Nalpha   Nbeta   Ndocc  Nsocc
   -------------------------------------------------------
     A        116     116       0       0       0       0
   -------------------------------------------------------
    Total     116     116      18      18      18       0
   -------------------------------------------------------

  ==> Integral Setup <==

  Using integral reordering PK algorithm.
  Sizing the integral batches needed.
  Building batch lookup table.
   Calculation information:
      Number of atoms:                  16
      Number of AO shells:              60
      Number of primitives:            148
      Number of atomic orbitals:       120
      Number of basis functions:       116

      Integral cutoff                 1.00e-12
      Number of threads:                 1

	Batch   1 pq = [       0,    6786] index = [             0,23028291] size =     23028291
  Task number: 3
  Buffer size: 11059200
  Buffer per thread: 2
  We computed 1426071 shell quartets total.
  Whereas there are 1675365 unique shell quartets.

  ==> DiskJK: Disk-Based J/K Matrices <==

    J tasked:                  Yes
    K tasked:                  Yes
    wK tasked:                  No
    Memory [MiB]:              375
    Schwarz Cutoff:          1E-12

    OpenMP threads:              1

  Minimum eigenvalue in the overlap matrix is 6.8483927173E-03.
  Using Symmetric Orthogonalization.

  SCF Guess: Superposition of Atomic Densities via on-the-fly atomic UHF.

  ==> Iterations <==

                        Total Energy        Delta E     RMS |[F,P]|

   @RHF iter SAD:  -157.27950096144892   -1.57280e+02   0.00000e+00
   @RHF iter   1:  -158.31117504768747   -1.03167e+00   4.15015e-03 DIIS
   @RHF iter   2:  -158.44178539795826   -1.30610e-01   1.75491e-03 DIIS
   @RHF iter   3:  -158.46425095358506   -2.24656e-02   3.45744e-04 DIIS
   @RHF iter   4:  -158.46604265522987   -1.79170e-03   3.81550e-05 DIIS
   @RHF iter   5:  -158.46606562379225   -2.29686e-05   6.24565e-06 DIIS
   @RHF iter   6:  -158.46606622134868   -5.97556e-07   8.72564e-07 DIIS
   @RHF iter   7:  -158.46606622989577   -8.54709e-09   2.74540e-07 DIIS
   @RHF iter   8:  -158.46606623053378   -6.38011e-10   4.13117e-08 DIIS
   @RHF iter   9:  -158.46606623055698   -2.31921e-11   8.19828e-09 DIIS
   @RHF iter  10:  -158.46606623055831   -1.33582e-12   2.01465e-09 DIIS
   @RHF iter  11:  -158.46606623055885   -5.40012e-13   5.08400e-10 DIIS
   @RHF iter  12:  -158.46606623055840    4.54747e-13   1.63693e-10 DIIS
   @RHF iter  13:  -158.46606623055882   -4.26326e-13   2.59126e-11 DIIS
  Energy and wave function converged.

  ==> Post-Iterations <==

    Orbital Energies [Eh]
    ---------------------

    Doubly Occupied:

       1A    -11.221338     2A    -11.219924     3A    -11.219276
       4A    -11.217164     5A     -1.014966     6A     -1.011532
       7A     -0.839303     8A     -0.836094     9A     -0.599542
      10A     -0.597554    11A     -0.594902    12A     -0.591914
      13A     -0.498846    14A     -0.492146    15A     -0.490931
      16A     -0.489154    17A     -0.488003    18A     -0.479846

    Virtual:

      19A      0.172193    20A      0.194641    21A      0.227605
      22A      0.235132    23A      0.238589    24A      0.262118
      25A      0.263088    26A      0.276309    27A      0.280069
      28A      0.289058    29A      0.312606    30A      0.349074
      31A      0.391622    32A      0.397846    33A      0.567389
      34A      0.588792    35A      0.594825    36A      0.607543
      37A      0.609841    38A      0.647269    39A      0.672084
      40A      0.690298    41A      0.714774    42A      0.744923
      43A      0.835981    44A      0.851774    45A      0.890096
      46A      0.891455    47A      0.892279    48A      0.895144
      49A      0.900955    50A      0.909037    51A      0.913415
      52A      0.923728    53A      0.940741    54A      0.956226
      55A      0.974234    56A      1.000827    57A      1.120875
      58A      1.123393    59A      1.126320    60A      1.140069
      61A      1.223701    62A      1.261070    63A      1.466862
      64A      1.470494    65A      1.476082    66A      1.481618
      67A      1.563940    68A      1.581609    69A      1.678731
      70A      1.679763    71A      1.691605    72A      1.695305
      73A      1.846478    74A      1.855510    75A      1.869830
      76A      1.878248    77A      1.891509    78A      1.905859
      79A      1.934846    80A      1.935469    81A      1.940065
      82A      1.941336    83A      1.947265    84A      1.954554
      85A      1.956583    86A      1.958447    87A      1.968210
      88A      2.051326    89A      2.096183    90A      2.097646
      91A      2.111668    92A      2.125349    93A      2.281681
      94A      2.298493    95A      2.306162    96A      2.322608
      97A      2.441233    98A      2.446020    99A      2.461157
     100A      2.470098   101A      2.552332   102A      2.564517
     103A      2.568164   104A      2.579178   105A      2.759544
     106A      2.765810   107A      2.780631   108A      2.794701
     109A      2.832985   110A      2.845272   111A      2.847320
     112A      2.855025   113A      2.937350   114A      2.940306
     115A      2.953744   116A      2.965559

    Final Occupation by Irrep:
              A
    DOCC [    18 ]

  @RHF Final Energy:  -158.46606623055882

   => Energetics <=

    Nuclear Repulsion Energy =            121.6922298837309597
    One-Electron Energy =                -452.5117254710953603
    Two-Electron Energy =                 172.3534293568055489
    Total Energy =                       -158.4660662305588232

Computation Completed

Properties will be evaluated at   0.000000,   0.000000,   0.000000 [a0]

Properties computed using the SCF density matrix

  Nuclear Dipole Moment: [e a0]
     X:     0.0601      Y:    -0.0280      Z:    -0.0117

  Electronic Dipole Moment: [e a0]
     X:    -0.0355      Y:     0.0202      Z:     0.0114

  Dipole Moment: [e a0]
     X:     0.0247      Y:    -0.0078      Z:    -0.0003     Total:     0.0259

  Dipole Moment: [D]
     X:     0.0627      Y:    -0.0198      Z:    -0.0008     Total:     0.0657

*** tstop() called on ds3 at Tue Apr 28 08:56:13 2020
Module time:
	user time   =       8.13 seconds =       0.14 minutes
	system time =       3.46 seconds =       0.06 minutes
	total time  =         12 seconds =       0.20 minutes
Total time:
	user time   =       8.13 seconds =       0.14 minutes
	system time =       3.46 seconds =       0.06 minutes
	total time  =         12 seconds =       0.20 minutes
                                     G D M A

                                 by Anthony Stone

                           version 2.2.06, 22 June 2011

               Distributed Multipoles from Gaussian wavefunctions

Starting at 8:56:13 on 28 Apr 2020

Using SCF density matrix from file ./SSI/SSI-053VAL-074ALA-1-dimer.test.6804.fchk

                         Distributed Multipole Analysis

Standard DMA

Positions and radii in angstrom
Multipole moments in atomic units, ea_0^k for rank k

C          x =  1.387654  y = -0.648872  z = -0.151487 angstrom
           Maximum rank =  0   Radius =  0.650 angstrom
                   Q00  =  -0.247620

C          x =  2.768654  y = -1.341872  z = -0.076487 angstrom
           Maximum rank =  0   Radius =  0.650 angstrom
                   Q00  =  -0.238730

H          x =  1.359654  y =  0.214128  z =  0.514513 angstrom
           Maximum rank =  0   Radius =  0.325 angstrom
                   Q00  =   0.081184

H          x =  1.203654  y = -0.298872  z = -1.169487 angstrom
           Maximum rank =  0   Radius =  0.325 angstrom
                   Q00  =   0.080532

H          x =  0.600654  y = -1.344872  z =  0.135513 angstrom
           Maximum rank =  0   Radius =  0.325 angstrom
                   Q00  =   0.080791

H          x =  3.537654  y = -0.599872  z = -0.286487 angstrom
           Maximum rank =  0   Radius =  0.325 angstrom
                   Q00  =   0.080960

H          x =  2.930614  y = -1.761702  z =  0.927262 angstrom
           Maximum rank =  0   Radius =  0.325 angstrom
                   Q00  =   0.082138

H          x =  2.842354  y = -2.131772  z = -0.838480 angstrom
           Maximum rank =  0   Radius =  0.325 angstrom
                   Q00  =   0.081169

C          x = -1.877346  y =  1.130128  z =  0.850513 angstrom
           Maximum rank =  0   Radius =  0.650 angstrom
                   Q00  =  -0.244735

C          x = -2.284346  y =  0.863128  z = -0.621487 angstrom
           Maximum rank =  0   Radius =  0.650 angstrom
                   Q00  =  -0.241705

H          x = -2.400346  y =  2.009128  z =  1.224513 angstrom
           Maximum rank =  0   Radius =  0.325 angstrom
                   Q00  =   0.079270

H          x = -2.133346  y =  0.265128  z =  1.464513 angstrom
           Maximum rank =  0   Radius =  0.325 angstrom
                   Q00  =   0.079983

H          x = -0.802346  y =  1.303128  z =  0.912513 angstrom
           Maximum rank =  0   Radius =  0.325 angstrom
                   Q00  =   0.083851

H          x = -1.722346  y = -0.005872  z = -0.969487 angstrom
           Maximum rank =  0   Radius =  0.325 angstrom
                   Q00  =   0.079176

H          x = -2.001716  y =  1.723098  z = -1.246441 angstrom
           Maximum rank =  0   Radius =  0.325 angstrom
                   Q00  =   0.081876

H          x = -3.350366  y =  0.598438  z = -0.680952 angstrom
           Maximum rank =  0   Radius =  0.325 angstrom
                   Q00  =   0.081860

Total multipoles referred to origin at
           x =   0.000000,  y =    0.000000,  z =    0.000000 angstrom
                   Q00  =  -0.000000

Finished at 8:56:13 on 28 Apr 2020

  DMA results are available in the Python driver through the
	  variable('DMA DISTRIBUTED MULTIPOLES')
  and
	  variable('DMA TOTAL MULTIPOLES')
  commands.

    Psi4 stopped on: Tuesday, 28 April 2020 08:56AM
    Psi4 wall time for execution: 0:00:11.66

*** Psi4 exiting successfully. Buy a developer a beer!
