                               Psi4 1.3.2 release

  ==> Input File <==

--------------------------------------------------------------------------
import numpy as np
set {scf_type pk
basis cc-pvdz
d_convergence 10
gdma_switch   0
gdma_limit    0
gdma_origin   [ 0.0,  0.0,  0.0 ]
}
molecule test {
    units Angstrom
    0 1
    --
    0 1
    C                0.651893136423096    -0.091106003257827     1.738919636896284
    C                0.109893136423095     0.032893996742173     3.161919636896284
    C                2.067893136423095     0.433893996742173     1.623919636896284
    H                0.615893136423095    -1.125106003257827     1.414919636896284
    H                0.007893136423095     0.475893996742173     1.067919636896284
    H                0.913893136423096    -0.219106003257827     3.857919636896284
    H                2.126893136423095     1.433893996742173     2.053919636896284
    H                2.731893136423095    -0.209106003257827     2.206919636896284
    H               -0.717353863576904    -0.675096003257826     3.318159636896284
    H               -0.205958863576905     1.072663996742173     3.332549636896284
    H                2.406604136423095     0.486953996742173     0.578711636896284
    C               -0.886106863576904     0.130893996742173    -1.698080363103716
    C                0.036893136423095    -1.006106003257827    -2.168080363103716
    C               -2.000106863576905     0.492893996742173    -2.665080363103716
    H               -1.334106863576904    -0.136106003257827    -0.746080363103716
    H               -0.287106863576905     1.023893996742173    -1.527080363103716
    H                0.708893136423095    -1.252106003257827    -1.344080363103716
    H               -2.752106863576905    -0.292106003257827    -2.681080363103716
    H               -2.480106863576905     1.410893996742173    -2.324080363103716
    H               -1.614106863576905     0.663893996742174    -3.669080363103716
    H               -0.533478863576905    -1.906276003257827    -2.440774363103716
    H                0.646227136423095    -0.674066003257827    -3.021580363103716

}
e, wfn = energy('scf', return_wfn=True)
gdma(wfn)
dmavals = variable('DMA DISTRIBUTED MULTIPOLES')
charges = np.array(dmavals)
print(charges)
np.save('SSI-069GLU-076ILE-1-dimer.npy', np.array(charges))--------------------------------------------------------------------------

*** tstart() called on ds3
*** at Mon Apr 27 14:01:46 2020

   => Loading Basis Set <=

    Name: CC-PVDZ
    Role: ORBITAL
    Keyword: BASIS
    atoms 1-3, 12-14  entry C          line   138 file /theoryfs2/ds/metcalf/miniconda2/envs/tf2gpu/share/psi4/basis/cc-pvdz.gbs
    atoms 4-11, 15-22 entry H          line    22 file /theoryfs2/ds/metcalf/miniconda2/envs/tf2gpu/share/psi4/basis/cc-pvdz.gbs

         ---------------------------------------------------------
                                   SCF
               by Justin Turney, Rob Parrish, Andy Simmonett
                          and Daniel G. A. Smith
                              RHF Reference
                        1 Threads,    500 MiB Core
         ---------------------------------------------------------

  ==> Geometry <==

    Molecular point group: c1
    Full point group: C1

    Geometry (in Angstrom), charge = 0, multiplicity = 1:

       Center              X                  Y                   Z               Mass
    ------------   -----------------  -----------------  -----------------  -----------------
         C            0.651893136423    -0.091106003258     1.738919636896    12.000000000000
         C            0.109893136423     0.032893996742     3.161919636896    12.000000000000
         C            2.067893136423     0.433893996742     1.623919636896    12.000000000000
         H            0.615893136423    -1.125106003258     1.414919636896     1.007825032230
         H            0.007893136423     0.475893996742     1.067919636896     1.007825032230
         H            0.913893136423    -0.219106003258     3.857919636896     1.007825032230
         H            2.126893136423     1.433893996742     2.053919636896     1.007825032230
         H            2.731893136423    -0.209106003258     2.206919636896     1.007825032230
         H           -0.717353863577    -0.675096003258     3.318159636896     1.007825032230
         H           -0.205958863577     1.072663996742     3.332549636896     1.007825032230
         H            2.406604136423     0.486953996742     0.578711636896     1.007825032230
         C           -0.886106863577     0.130893996742    -1.698080363104    12.000000000000
         C            0.036893136423    -1.006106003258    -2.168080363104    12.000000000000
         C           -2.000106863577     0.492893996742    -2.665080363104    12.000000000000
         H           -1.334106863577    -0.136106003258    -0.746080363104     1.007825032230
         H           -0.287106863577     1.023893996742    -1.527080363104     1.007825032230
         H            0.708893136423    -1.252106003258    -1.344080363104     1.007825032230
         H           -2.752106863577    -0.292106003258    -2.681080363104     1.007825032230
         H           -2.480106863577     1.410893996742    -2.324080363104     1.007825032230
         H           -1.614106863577     0.663893996742    -3.669080363104     1.007825032230
         H           -0.533478863577    -1.906276003258    -2.440774363104     1.007825032230
         H            0.646227136423    -0.674066003258    -3.021580363104     1.007825032230

  Running in c1 symmetry.

  Rotational constants: A =      0.15518  B =      0.02978  C =      0.02731 [cm^-1]
  Rotational constants: A =   4652.11683  B =    892.64114  C =    818.75498 [MHz]
  Nuclear repulsion =  238.998463083011131

  Charge       = 0
  Multiplicity = 1
  Electrons    = 52
  Nalpha       = 26
  Nbeta        = 26

  ==> Algorithm <==

  SCF Algorithm Type is PK.
  DIIS enabled.
  MOM disabled.
  Fractional occupation disabled.
  Guess Type is SAD.
  Energy threshold   = 1.00e-06
  Density threshold  = 1.00e-10
  Integral threshold = 0.00e+00

  ==> Primary Basis <==

  Basis Set: CC-PVDZ
    Blend: CC-PVDZ
    Number of shells: 84
    Number of basis function: 164
    Number of Cartesian functions: 170
    Spherical Harmonics?: true
    Max angular momentum: 2

  ==> Pre-Iterations <==

   -------------------------------------------------------
    Irrep   Nso     Nmo     Nalpha   Nbeta   Ndocc  Nsocc
   -------------------------------------------------------
     A        164     164       0       0       0       0
   -------------------------------------------------------
    Total     164     164      26      26      26       0
   -------------------------------------------------------

  ==> Integral Setup <==

  Using integral reordering PK algorithm.
  Sizing the integral batches needed.
  Building batch lookup table.
   Calculation information:
      Number of atoms:                  22
      Number of AO shells:              84
      Number of primitives:            212
      Number of atomic orbitals:       170
      Number of basis functions:       164

      Integral cutoff                 1.00e-12
      Number of threads:                 1

	Batch   1 pq = [       0,    9405] index = [             0,44231715] size =     44231715
	Batch   2 pq = [    9405,   13530] index = [      44231715,91537215] size =     47305500
  Task number: 9
  Buffer size: 11059200
  Buffer per thread: 2
  We computed 5430169 shell quartets total.
  Whereas there are 6374235 unique shell quartets.

  ==> DiskJK: Disk-Based J/K Matrices <==

    J tasked:                  Yes
    K tasked:                  Yes
    wK tasked:                  No
    Memory [MiB]:              375
    Schwarz Cutoff:          1E-12

    OpenMP threads:              1

  Minimum eigenvalue in the overlap matrix is 5.0011639608E-03.
  Using Symmetric Orthogonalization.

  SCF Guess: Superposition of Atomic Densities via on-the-fly atomic UHF.

  ==> Iterations <==

                        Total Energy        Delta E     RMS |[F,P]|

   @RHF iter SAD:  -235.40625290793758   -2.35406e+02   0.00000e+00
   @RHF iter   1:  -236.31410454410843   -9.07852e-01   3.50816e-03 DIIS
   @RHF iter   2:  -236.50172910624826   -1.87625e-01   1.52863e-03 DIIS
   @RHF iter   3:  -236.53553265262593   -3.38035e-02   3.06871e-04 DIIS
   @RHF iter   4:  -236.53817394558365   -2.64129e-03   4.98225e-05 DIIS
   @RHF iter   5:  -236.53822705692068   -5.31113e-05   1.38616e-05 DIIS
   @RHF iter   6:  -236.53823135452637   -4.29761e-06   2.29038e-06 DIIS
   @RHF iter   7:  -236.53823148305844   -1.28532e-07   4.34159e-07 DIIS
   @RHF iter   8:  -236.53823148891016   -5.85172e-09   8.09020e-08 DIIS
   @RHF iter   9:  -236.53823148914410   -2.33939e-10   2.01968e-08 DIIS
   @RHF iter  10:  -236.53823148915603   -1.19371e-11   6.48248e-09 DIIS
   @RHF iter  11:  -236.53823148915706   -1.02318e-12   1.27469e-09 DIIS
   @RHF iter  12:  -236.53823148915748   -4.26326e-13   2.52207e-10 DIIS
   @RHF iter  13:  -236.53823148915748    0.00000e+00   5.88060e-11 DIIS
  Energy and wave function converged.

  ==> Post-Iterations <==

    Orbital Energies [Eh]
    ---------------------

    Doubly Occupied:

       1A    -11.218554     2A    -11.217960     3A    -11.217500
       4A    -11.216000     5A    -11.215304     6A    -11.213433
       7A     -1.057196     8A     -1.052278     9A     -0.926471
      10A     -0.922730    11A     -0.800025    12A     -0.793725
      13A     -0.627619    14A     -0.625392    15A     -0.600286
      16A     -0.590760    17A     -0.550973    18A     -0.545745
      19A     -0.535334    20A     -0.532135    21A     -0.477896
      22A     -0.473376    23A     -0.469976    24A     -0.467358
      25A     -0.466821    26A     -0.459509

    Virtual:

      27A      0.167641    28A      0.193242    29A      0.210506
      30A      0.217040    31A      0.226390    32A      0.242786
      33A      0.244705    34A      0.260958    35A      0.265721
      36A      0.273736    37A      0.286437    38A      0.288017
      39A      0.296924    40A      0.311776    41A      0.331952
      42A      0.349135    43A      0.370986    44A      0.384334
      45A      0.424647    46A      0.435147    47A      0.573344
      48A      0.584710    49A      0.597078    50A      0.603158
      51A      0.608039    52A      0.617434    53A      0.628577
      54A      0.644628    55A      0.656211    56A      0.743466
      57A      0.778285    58A      0.784336    59A      0.805744
      60A      0.816929    61A      0.850962    62A      0.861651
      63A      0.871104    64A      0.885211    65A      0.886726
      66A      0.893412    67A      0.895759    68A      0.899859
      69A      0.902198    70A      0.906657    71A      0.912895
      72A      0.918883    73A      0.927368    74A      0.935358
      75A      0.950325    76A      0.954709    77A      0.969186
      78A      0.979708    79A      1.003134    80A      1.018005
      81A      1.116244    82A      1.124804    83A      1.129813
      84A      1.149892    85A      1.205990    86A      1.229456
      87A      1.384718    88A      1.390545    89A      1.463577
      90A      1.465695    91A      1.479227    92A      1.483325
      93A      1.531137    94A      1.563524    95A      1.631902
      96A      1.646622    97A      1.667072    98A      1.680124
      99A      1.688094   100A      1.689570   101A      1.704928
     102A      1.719548   103A      1.845636   104A      1.856728
     105A      1.868382   106A      1.870816   107A      1.881013
     108A      1.895297   109A      1.905756   110A      1.916988
     111A      1.924969   112A      1.928018   113A      1.942028
     114A      1.961679   115A      1.967413   116A      1.973170
     117A      1.974183   118A      1.983824   119A      1.987826
     120A      1.992658   121A      1.994987   122A      2.010322
     123A      2.031112   124A      2.040468   125A      2.048936
     126A      2.094898   127A      2.142325   128A      2.154005
     129A      2.155084   130A      2.183306   131A      2.274607
     132A      2.287466   133A      2.303572   134A      2.309606
     135A      2.321506   136A      2.343972   137A      2.354390
     138A      2.365383   139A      2.466085   140A      2.503603
     141A      2.529252   142A      2.542990   143A      2.577383
     144A      2.582070   145A      2.613977   146A      2.619100
     147A      2.627515   148A      2.653907   149A      2.753570
     150A      2.756855   151A      2.764622   152A      2.770178
     153A      2.783586   154A      2.792065   155A      2.824789
     156A      2.841676   157A      2.909556   158A      2.922060
     159A      2.949498   160A      2.956011   161A      2.969835
     162A      2.986999   163A      3.056877   164A      3.086982

    Final Occupation by Irrep:
              A
    DOCC [    26 ]

  @RHF Final Energy:  -236.53823148915748

   => Energetics <=

    Nuclear Repulsion Energy =            238.9984630830111314
    One-Electron Energy =                -790.5246743124550903
    Two-Electron Energy =                 314.9879797402865051
    Total Energy =                       -236.5382314891575106

Computation Completed

Properties will be evaluated at   0.000000,   0.000000,   0.000000 [a0]

Properties computed using the SCF density matrix

  Nuclear Dipole Moment: [e a0]
     X:     0.2192      Y:     0.0741      Z:     0.0724

  Electronic Dipole Moment: [e a0]
     X:    -0.2362      Y:    -0.0643      Z:    -0.0617

  Dipole Moment: [e a0]
     X:    -0.0170      Y:     0.0097      Z:     0.0107     Total:     0.0223

  Dipole Moment: [D]
     X:    -0.0431      Y:     0.0247      Z:     0.0271     Total:     0.0566

*** tstop() called on ds3 at Mon Apr 27 14:02:26 2020
Module time:
	user time   =      29.01 seconds =       0.48 minutes
	system time =      12.12 seconds =       0.20 minutes
	total time  =         40 seconds =       0.67 minutes
Total time:
	user time   =      29.01 seconds =       0.48 minutes
	system time =      12.12 seconds =       0.20 minutes
	total time  =         40 seconds =       0.67 minutes
                                     G D M A

                                 by Anthony Stone

                           version 2.2.06, 22 June 2011

               Distributed Multipoles from Gaussian wavefunctions

Starting at 14:2:26 on 27 Apr 2020

Using SCF density matrix from file ./SSI/SSI-069GLU-076ILE-1-dimer.test.8576.fchk

                         Distributed Multipole Analysis

Standard DMA

Positions and radii in angstrom
Multipole moments in atomic units, ea_0^k for rank k

C          x =  0.651893  y = -0.091106  z =  1.738920 angstrom
           Maximum rank =  0   Radius =  0.650 angstrom
                   Q00  =  -0.105207

C          x =  0.109893  y =  0.032894  z =  3.161920 angstrom
           Maximum rank =  0   Radius =  0.650 angstrom
                   Q00  =  -0.217888

C          x =  2.067893  y =  0.433894  z =  1.623920 angstrom
           Maximum rank =  0   Radius =  0.650 angstrom
                   Q00  =  -0.236533

H          x =  0.615893  y = -1.125106  z =  1.414920 angstrom
           Maximum rank =  0   Radius =  0.325 angstrom
                   Q00  =   0.045488

H          x =  0.007893  y =  0.475894  z =  1.067920 angstrom
           Maximum rank =  0   Radius =  0.325 angstrom
                   Q00  =   0.046598

H          x =  0.913893  y = -0.219106  z =  3.857920 angstrom
           Maximum rank =  0   Radius =  0.325 angstrom
                   Q00  =   0.071742

H          x =  2.126893  y =  1.433894  z =  2.053920 angstrom
           Maximum rank =  0   Radius =  0.325 angstrom
                   Q00  =   0.072857

H          x =  2.731893  y = -0.209106  z =  2.206920 angstrom
           Maximum rank =  0   Radius =  0.325 angstrom
                   Q00  =   0.075146

H          x = -0.717354  y = -0.675096  z =  3.318160 angstrom
           Maximum rank =  0   Radius =  0.325 angstrom
                   Q00  =   0.083672

H          x = -0.205959  y =  1.072664  z =  3.332550 angstrom
           Maximum rank =  0   Radius =  0.325 angstrom
                   Q00  =   0.079862

H          x =  2.406604  y =  0.486954  z =  0.578712 angstrom
           Maximum rank =  0   Radius =  0.325 angstrom
                   Q00  =   0.083267

C          x = -0.886107  y =  0.130894  z = -1.698080 angstrom
           Maximum rank =  0   Radius =  0.650 angstrom
                   Q00  =  -0.067515

C          x =  0.036893  y = -1.006106  z = -2.168080 angstrom
           Maximum rank =  0   Radius =  0.650 angstrom
                   Q00  =  -0.257145

C          x = -2.000107  y =  0.492894  z = -2.665080 angstrom
           Maximum rank =  0   Radius =  0.650 angstrom
                   Q00  =  -0.241886

H          x = -1.334107  y = -0.136106  z = -0.746080 angstrom
           Maximum rank =  0   Radius =  0.325 angstrom
                   Q00  =   0.046404

H          x = -0.287107  y =  1.023894  z = -1.527080 angstrom
           Maximum rank =  0   Radius =  0.325 angstrom
                   Q00  =   0.042617

H          x =  0.708893  y = -1.252106  z = -1.344080 angstrom
           Maximum rank =  0   Radius =  0.325 angstrom
                   Q00  =   0.086278

H          x = -2.752107  y = -0.292106  z = -2.681080 angstrom
           Maximum rank =  0   Radius =  0.325 angstrom
                   Q00  =   0.078537

H          x = -2.480107  y =  1.410894  z = -2.324080 angstrom
           Maximum rank =  0   Radius =  0.325 angstrom
                   Q00  =   0.080784

H          x = -1.614107  y =  0.663894  z = -3.669080 angstrom
           Maximum rank =  0   Radius =  0.325 angstrom
                   Q00  =   0.076686

H          x = -0.533479  y = -1.906276  z = -2.440774 angstrom
           Maximum rank =  0   Radius =  0.325 angstrom
                   Q00  =   0.077850

H          x =  0.646227  y = -0.674066  z = -3.021580 angstrom
           Maximum rank =  0   Radius =  0.325 angstrom
                   Q00  =   0.078385

Total multipoles referred to origin at
           x =   0.000000,  y =    0.000000,  z =    0.000000 angstrom
                   Q00  =  -0.000000

Finished at 14:2:26 on 27 Apr 2020

  DMA results are available in the Python driver through the
	  variable('DMA DISTRIBUTED MULTIPOLES')
  and
	  variable('DMA TOTAL MULTIPOLES')
  commands.

    Psi4 stopped on: Monday, 27 April 2020 02:02PM
    Psi4 wall time for execution: 0:00:39.89

*** Psi4 exiting successfully. Buy a developer a beer!
