                               Psi4 1.3.2 release

  ==> Input File <==

--------------------------------------------------------------------------
import numpy as np
set {scf_type pk
basis cc-pvdz
d_convergence 10
gdma_switch   0
gdma_limit    0
gdma_origin   [ 0.0,  0.0,  0.0 ]
}
molecule test {
    units Angstrom
    0 1
    --
    0 1
    C                1.617361412365731    -2.087049158689731    -1.596852626249019
    C                2.345361412365731    -0.312049158689731     0.209147373750981
    C                2.621361412365731    -1.346049158689731    -0.752852626249018
    C                3.586361412365731     0.081950841310269     0.774147373750982
    C                3.975361412365731    -1.527049158689731    -0.734852626249018
    C                1.176361412365731     0.316950841310269     0.654147373750982
    C                1.272361412365731     1.306950841310269     1.627147373750981
    C                2.511361412365731     1.673950841310269     2.162147373750982
    C                3.680361412365731     1.062950841310269     1.748147373750981
    N                4.554361412365731    -0.675049158689731     0.173147373750981
    H                0.223361412365731     0.050950841310269     0.227147373750981
    H                0.376361412365731     1.804950841310269     1.974147373750981
    H                2.555361412365731     2.447950841310269     2.918147373750982
    H                0.858361412365731    -2.517049158689731    -0.942852626249019
    H                2.139361412365731    -2.917049158689731    -2.073852626249018
    H                4.512361412365731    -2.239049158689731    -1.352852626249019
    H                5.556361412365731    -0.642049158689731     0.358147373750981
    H                4.636361412365731     1.342950841310269     2.166147373750982
    H                1.120259412365731    -1.480198158689731    -2.367969626249018
    C               -3.508638587634269     2.294950841310269     1.589147373750982
    C               -2.527638587634269     0.155950841310269     0.652147373750982
    C               -3.427638587634269     1.216950841310269     0.530147373750982
    C               -2.438638587634269    -0.823049158689731    -0.334852626249018
    C               -3.248638587634269    -0.744049158689731    -1.462852626249018
    C               -4.227638587634269     1.287950841310269    -0.611852626249018
    C               -4.139638587634269     0.313950841310269    -1.605852626249018
    O               -3.158638587634269    -1.702049158689731    -2.428852626249018
    H               -1.872638587634269     0.102950841310269     1.511147373750982
    H               -1.702638587634269    -1.607049158689731    -0.263852626249019
    H               -4.118638587634269     3.103950841310269     1.187147373750981
    H               -2.507638587634269     2.693950841310270     1.734147373750981
    H               -4.936638587634270     2.098950841310269    -0.722852626249018
    H               -2.560638587634269    -2.412049158689731    -2.173852626249018
    H               -4.772638587634269     0.362950841310269    -2.480852626249019
    H               -3.938299587634269     1.986199841310269     2.553545673750982

}
e, wfn = energy('scf', return_wfn=True)
gdma(wfn)
dmavals = variable('DMA DISTRIBUTED MULTIPOLES')
charges = np.array(dmavals)
print(charges)
np.save('SSI-022TRP-039TYR-1-dimer.npy', np.array(charges))--------------------------------------------------------------------------

*** tstart() called on ds3
*** at Sun Apr 26 20:34:15 2020

   => Loading Basis Set <=

    Name: CC-PVDZ
    Role: ORBITAL
    Keyword: BASIS
    atoms 1-9, 20-26   entry C          line   138 file /theoryfs2/ds/metcalf/miniconda2/envs/tf2gpu/share/psi4/basis/cc-pvdz.gbs
    atoms 10           entry N          line   168 file /theoryfs2/ds/metcalf/miniconda2/envs/tf2gpu/share/psi4/basis/cc-pvdz.gbs
    atoms 11-19, 28-35 entry H          line    22 file /theoryfs2/ds/metcalf/miniconda2/envs/tf2gpu/share/psi4/basis/cc-pvdz.gbs
    atoms 27           entry O          line   198 file /theoryfs2/ds/metcalf/miniconda2/envs/tf2gpu/share/psi4/basis/cc-pvdz.gbs

         ---------------------------------------------------------
                                   SCF
               by Justin Turney, Rob Parrish, Andy Simmonett
                          and Daniel G. A. Smith
                              RHF Reference
                        1 Threads,    500 MiB Core
         ---------------------------------------------------------

  ==> Geometry <==

    Molecular point group: c1
    Full point group: C1

    Geometry (in Angstrom), charge = 0, multiplicity = 1:

       Center              X                  Y                   Z               Mass
    ------------   -----------------  -----------------  -----------------  -----------------
         C            1.617361412366    -2.087049158690    -1.596852626249    12.000000000000
         C            2.345361412366    -0.312049158690     0.209147373751    12.000000000000
         C            2.621361412366    -1.346049158690    -0.752852626249    12.000000000000
         C            3.586361412366     0.081950841310     0.774147373751    12.000000000000
         C            3.975361412366    -1.527049158690    -0.734852626249    12.000000000000
         C            1.176361412366     0.316950841310     0.654147373751    12.000000000000
         C            1.272361412366     1.306950841310     1.627147373751    12.000000000000
         C            2.511361412366     1.673950841310     2.162147373751    12.000000000000
         C            3.680361412366     1.062950841310     1.748147373751    12.000000000000
         N            4.554361412366    -0.675049158690     0.173147373751    14.003074004430
         H            0.223361412366     0.050950841310     0.227147373751     1.007825032230
         H            0.376361412366     1.804950841310     1.974147373751     1.007825032230
         H            2.555361412366     2.447950841310     2.918147373751     1.007825032230
         H            0.858361412366    -2.517049158690    -0.942852626249     1.007825032230
         H            2.139361412366    -2.917049158690    -2.073852626249     1.007825032230
         H            4.512361412366    -2.239049158690    -1.352852626249     1.007825032230
         H            5.556361412366    -0.642049158690     0.358147373751     1.007825032230
         H            4.636361412366     1.342950841310     2.166147373751     1.007825032230
         H            1.120259412366    -1.480198158690    -2.367969626249     1.007825032230
         C           -3.508638587634     2.294950841310     1.589147373751    12.000000000000
         C           -2.527638587634     0.155950841310     0.652147373751    12.000000000000
         C           -3.427638587634     1.216950841310     0.530147373751    12.000000000000
         C           -2.438638587634    -0.823049158690    -0.334852626249    12.000000000000
         C           -3.248638587634    -0.744049158690    -1.462852626249    12.000000000000
         C           -4.227638587634     1.287950841310    -0.611852626249    12.000000000000
         C           -4.139638587634     0.313950841310    -1.605852626249    12.000000000000
         O           -3.158638587634    -1.702049158690    -2.428852626249    15.994914619570
         H           -1.872638587634     0.102950841310     1.511147373751     1.007825032230
         H           -1.702638587634    -1.607049158690    -0.263852626249     1.007825032230
         H           -4.118638587634     3.103950841310     1.187147373751     1.007825032230
         H           -2.507638587634     2.693950841310     1.734147373751     1.007825032230
         H           -4.936638587634     2.098950841310    -0.722852626249     1.007825032230
         H           -2.560638587634    -2.412049158690    -2.173852626249     1.007825032230
         H           -4.772638587634     0.362950841310    -2.480852626249     1.007825032230
         H           -3.938299587634     1.986199841310     2.553545673751     1.007825032230

  Running in c1 symmetry.

  Rotational constants: A =      0.02177  B =      0.00669  C =      0.00523 [cm^-1]
  Rotational constants: A =    652.68401  B =    200.53863  C =    156.66779 [MHz]
  Nuclear repulsion = 1167.589092305086751

  Charge       = 0
  Multiplicity = 1
  Electrons    = 128
  Nalpha       = 64
  Nbeta        = 64

  ==> Algorithm <==

  SCF Algorithm Type is PK.
  DIIS enabled.
  MOM disabled.
  Fractional occupation disabled.
  Guess Type is SAD.
  Energy threshold   = 1.00e-06
  Density threshold  = 1.00e-10
  Integral threshold = 0.00e+00

  ==> Primary Basis <==

  Basis Set: CC-PVDZ
    Blend: CC-PVDZ
    Number of shells: 159
    Number of basis function: 337
    Number of Cartesian functions: 355
    Spherical Harmonics?: true
    Max angular momentum: 2

  ==> Pre-Iterations <==

   -------------------------------------------------------
    Irrep   Nso     Nmo     Nalpha   Nbeta   Ndocc  Nsocc
   -------------------------------------------------------
     A        337     337       0       0       0       0
   -------------------------------------------------------
    Total     337     337      64      64      64       0
   -------------------------------------------------------

  ==> Integral Setup <==

  Using integral reordering PK algorithm.
  Sizing the integral batches needed.
  Building batch lookup table.
   Calculation information:
      Number of atoms:                  35
      Number of AO shells:             159
      Number of primitives:            481
      Number of atomic orbitals:       355
      Number of basis functions:       337

      Integral cutoff                 1.00e-12
      Number of threads:                 1

	Batch   1 pq = [       0,    9405] index = [             0,44231715] size =     44231715
	Batch   2 pq = [    9405,   13301] index = [      44231715,88464951] size =     44233236
	Batch   3 pq = [   13301,   16290] index = [      88464951,132690195] size =     44225244
	Batch   4 pq = [   16290,   18810] index = [     132690195,176917455] size =     44227260
	Batch   5 pq = [   18810,   21030] index = [     176917455,221140965] size =     44223510
	Batch   6 pq = [   21030,   23037] index = [     221140965,265363203] size =     44222238
	Batch   7 pq = [   23037,   24883] index = [     265363203,309594286] size =     44231083
	Batch   8 pq = [   24883,   26601] index = [     309594286,353819901] size =     44225615
	Batch   9 pq = [   26601,   28214] index = [     353819901,398029005] size =     44209104
	Batch  10 pq = [   28214,   29740] index = [     398029005,442248670] size =     44219665
	Batch  11 pq = [   29740,   31191] index = [     442248670,486454836] size =     44206166
	Batch  12 pq = [   31191,   32578] index = [     486454836,530679331] size =     44224495
	Batch  13 pq = [   32578,   33908] index = [     530679331,574893186] size =     44213855
	Batch  14 pq = [   33908,   35188] index = [     574893186,619115266] size =     44222080
	Batch  15 pq = [   35188,   36423] index = [     619115266,663335676] size =     44220410
	Batch  16 pq = [   36423,   37617] index = [     663335676,707538153] size =     44202477
	Batch  17 pq = [   37617,   38775] index = [     707538153,751769700] size =     44231547
	Batch  18 pq = [   38775,   39899] index = [     751769700,795985050] size =     44215350
	Batch  19 pq = [   39899,   40992] index = [     795985050,840192528] size =     44207478
	Batch  20 pq = [   40992,   42057] index = [     840192528,884416653] size =     44224125
	Batch  21 pq = [   42057,   43095] index = [     884416653,928611060] size =     44194407
	Batch  22 pq = [   43095,   44109] index = [     928611060,972823995] size =     44212935
	Batch  23 pq = [   44109,   45100] index = [     972823995,1017027550] size =     44203555
	Batch  24 pq = [   45100,   46070] index = [    1017027550,1061245485] size =     44217935
	Batch  25 pq = [   46070,   47020] index = [    1061245485,1105463710] size =     44218225
	Batch  26 pq = [   47020,   47951] index = [    1105463710,1149673176] size =     44209466
	Batch  27 pq = [   47951,   48864] index = [    1149673176,1193869680] size =     44196504
	Batch  28 pq = [   48864,   49761] index = [    1193869680,1238103441] size =     44233761
	Batch  29 pq = [   49761,   50642] index = [    1238103441,1282331403] size =     44227962
	Batch  30 pq = [   50642,   51508] index = [    1282331403,1326562786] size =     44231383
	Batch  31 pq = [   51508,   52359] index = [    1326562786,1370758620] size =     44195834
	Batch  32 pq = [   52359,   53197] index = [    1370758620,1414987003] size =     44228383
	Batch  33 pq = [   53197,   54022] index = [    1414987003,1459215253] size =     44228250
	Batch  34 pq = [   54022,   54834] index = [    1459215253,1503411195] size =     44195942
	Batch  35 pq = [   54834,   55634] index = [    1503411195,1547598795] size =     44187600
	Batch  36 pq = [   55634,   56423] index = [    1547598795,1591805676] size =     44206881
	Batch  37 pq = [   56423,   56953] index = [    1591805676,1621850581] size =     30044905
  Task number: 147
  Buffer size: 11059200
  Buffer per thread: 2
  We computed 79815629 shell quartets total.
  Whereas there are 80905560 unique shell quartets.

  ==> DiskJK: Disk-Based J/K Matrices <==

    J tasked:                  Yes
    K tasked:                  Yes
    wK tasked:                  No
    Memory [MiB]:              375
    Schwarz Cutoff:          1E-12

    OpenMP threads:              1

  Minimum eigenvalue in the overlap matrix is 2.1901233955E-04.
  Using Symmetric Orthogonalization.

  SCF Guess: Superposition of Atomic Densities via on-the-fly atomic UHF.

  ==> Iterations <==

                        Total Energy        Delta E     RMS |[F,P]|

   @RHF iter SAD:  -744.36391507662108   -7.44364e+02   0.00000e+00
   @RHF iter   1:  -744.78349026052808   -4.19575e-01   2.20619e-03 DIIS
   @RHF iter   2:  -745.09920556453903   -3.15715e-01   9.62358e-04 DIIS
   @RHF iter   3:  -745.15246979573124   -5.32642e-02   2.54331e-04 DIIS
   @RHF iter   4:  -745.15748313843358   -5.01334e-03   1.12446e-04 DIIS
   @RHF iter   5:  -745.15830535234295   -8.22214e-04   1.72029e-05 DIIS
   @RHF iter   6:  -745.15834353695709   -3.81846e-05   8.29505e-06 DIIS
   @RHF iter   7:  -745.15835166231182   -8.12535e-06   3.10548e-06 DIIS
   @RHF iter   8:  -745.15835369594913   -2.03364e-06   1.30779e-06 DIIS
   @RHF iter   9:  -745.15835410622947   -4.10280e-07   5.81301e-07 DIIS
   @RHF iter  10:  -745.15835420207850   -9.58490e-08   2.77205e-07 DIIS
   @RHF iter  11:  -745.15835422750683   -2.54283e-08   1.08162e-07 DIIS
   @RHF iter  12:  -745.15835423089766   -3.39082e-09   4.27219e-08 DIIS
   @RHF iter  13:  -745.15835423127783   -3.80169e-10   1.43685e-08 DIIS
   @RHF iter  14:  -745.15835423131307   -3.52429e-11   5.36732e-09 DIIS
   @RHF iter  15:  -745.15835423131500   -1.93268e-12   2.15394e-09 DIIS
   @RHF iter  16:  -745.15835423131773   -2.72848e-12   1.02103e-09 DIIS
   @RHF iter  17:  -745.15835423131966   -1.93268e-12   5.49312e-10 DIIS
   @RHF iter  18:  -745.15835423131716    2.50111e-12   2.07244e-10 DIIS
   @RHF iter  19:  -745.15835423132194   -4.77485e-12   9.15158e-11 DIIS
  Energy and wave function converged.

  ==> Post-Iterations <==

    Orbital Energies [Eh]
    ---------------------

    Doubly Occupied:

       1A    -20.581916     2A    -15.603461     3A    -11.298187
       4A    -11.267049     5A    -11.264514     6A    -11.238048
       7A    -11.237893     8A    -11.233065     9A    -11.232229
      10A    -11.232225    11A    -11.230429    12A    -11.229383
      13A    -11.229077    14A    -11.228989    15A    -11.226838
      16A    -11.221609    17A    -11.221430    18A    -11.220505
      19A     -1.398621    20A     -1.297230    21A     -1.149176
      22A     -1.130074    23A     -1.073518    24A     -1.035594
      25A     -1.016894    26A     -0.998652    27A     -0.989150
      28A     -0.933203    29A     -0.925092    30A     -0.843824
      31A     -0.841441    32A     -0.804548    33A     -0.800890
      34A     -0.754792    35A     -0.731483    36A     -0.720538
      37A     -0.666852    38A     -0.664266    39A     -0.643347
      40A     -0.640238    41A     -0.607681    42A     -0.603744
      43A     -0.594255    44A     -0.593431    45A     -0.585111
      46A     -0.582790    47A     -0.569910    48A     -0.568693
      49A     -0.563786    50A     -0.555889    51A     -0.540739
      52A     -0.529609    53A     -0.524529    54A     -0.497276
      55A     -0.495917    56A     -0.482934    57A     -0.472626
      58A     -0.464689    59A     -0.463214    60A     -0.374042
      61A     -0.337378    62A     -0.300910    63A     -0.296654
      64A     -0.276614

    Virtual:

      65A      0.124519    66A      0.128722    67A      0.153059
      68A      0.160010    69A      0.169326    70A      0.176549
      71A      0.180494    72A      0.203617    73A      0.206502
      74A      0.213685    75A      0.223953    76A      0.226895
      77A      0.235635    78A      0.252105    79A      0.257903
      80A      0.258144    81A      0.276251    82A      0.284048
      83A      0.296259    84A      0.303178    85A      0.339286
      86A      0.357899    87A      0.366966    88A      0.373215
      89A      0.379063    90A      0.389400    91A      0.404793
      92A      0.424183    93A      0.432352    94A      0.448702
      95A      0.456621    96A      0.474898    97A      0.480832
      98A      0.497237    99A      0.497640   100A      0.505061
     101A      0.513191   102A      0.515958   103A      0.593948
     104A      0.605939   105A      0.621442   106A      0.629175
     107A      0.634676   108A      0.640139   109A      0.655894
     110A      0.660221   111A      0.666024   112A      0.688337
     113A      0.692120   114A      0.695171   115A      0.704632
     116A      0.711031   117A      0.716884   118A      0.727702
     119A      0.730271   120A      0.735479   121A      0.738727
     122A      0.739988   123A      0.745804   124A      0.749037
     125A      0.756928   126A      0.763336   127A      0.772766
     128A      0.776490   129A      0.781951   130A      0.785734
     131A      0.792825   132A      0.798366   133A      0.802533
     134A      0.818398   135A      0.833660   136A      0.839146
     137A      0.845207   138A      0.850444   139A      0.871951
     140A      0.879891   141A      0.882226   142A      0.886806
     143A      0.891621   144A      0.898593   145A      0.900995
     146A      0.907046   147A      0.914228   148A      0.925328
     149A      0.929855   150A      0.933707   151A      0.943759
     152A      0.950362   153A      0.960737   154A      0.967762
     155A      0.980485   156A      0.990550   157A      1.001558
     158A      1.007003   159A      1.031469   160A      1.040512
     161A      1.060512   162A      1.065474   163A      1.070698
     164A      1.077336   165A      1.097796   166A      1.112561
     167A      1.129187   168A      1.133430   169A      1.141144
     170A      1.151331   171A      1.157954   172A      1.164188
     173A      1.195500   174A      1.199490   175A      1.205218
     176A      1.207952   177A      1.227017   178A      1.232628
     179A      1.243345   180A      1.247969   181A      1.255532
     182A      1.269651   183A      1.270545   184A      1.287108
     185A      1.290571   186A      1.293280   187A      1.298857
     188A      1.305754   189A      1.315851   190A      1.329419
     191A      1.334952   192A      1.355435   193A      1.359652
     194A      1.361088   195A      1.365399   196A      1.376805
     197A      1.395521   198A      1.441249   199A      1.459191
     200A      1.490782   201A      1.509849   202A      1.521716
     203A      1.543111   204A      1.549252   205A      1.565688
     206A      1.591779   207A      1.596644   208A      1.618616
     209A      1.627609   210A      1.637878   211A      1.650071
     212A      1.664840   213A      1.681199   214A      1.689716
     215A      1.695196   216A      1.700060   217A      1.734452
     218A      1.739619   219A      1.748086   220A      1.761595
     221A      1.778360   222A      1.779314   223A      1.792740
     224A      1.802091   225A      1.809898   226A      1.811800
     227A      1.825147   228A      1.827332   229A      1.867514
     230A      1.876290   231A      1.885415   232A      1.897276
     233A      1.898298   234A      1.904644   235A      1.914510
     236A      1.917939   237A      1.921072   238A      1.925334
     239A      1.930217   240A      1.938118   241A      1.945253
     242A      1.958346   243A      1.959570   244A      1.964060
     245A      1.969580   246A      1.974704   247A      2.004933
     248A      2.009428   249A      2.014406   250A      2.016527
     251A      2.024899   252A      2.045825   253A      2.049235
     254A      2.058499   255A      2.071430   256A      2.072659
     257A      2.081713   258A      2.085725   259A      2.093747
     260A      2.101908   261A      2.104344   262A      2.115513
     263A      2.123681   264A      2.141039   265A      2.150346
     266A      2.161686   267A      2.172675   268A      2.184929
     269A      2.192047   270A      2.212980   271A      2.214242
     272A      2.241772   273A      2.247683   274A      2.261255
     275A      2.274615   276A      2.290070   277A      2.301369
     278A      2.326139   279A      2.329290   280A      2.335590
     281A      2.350347   282A      2.355911   283A      2.367944
     284A      2.395124   285A      2.406446   286A      2.430831
     287A      2.452943   288A      2.463496   289A      2.470946
     290A      2.483909   291A      2.512155   292A      2.528315
     293A      2.533507   294A      2.544977   295A      2.579219
     296A      2.609880   297A      2.614742   298A      2.637954
     299A      2.648307   300A      2.664184   301A      2.681435
     302A      2.695652   303A      2.748260   304A      2.770818
     305A      2.778057   306A      2.784195   307A      2.790776
     308A      2.799248   309A      2.810487   310A      2.817114
     311A      2.836667   312A      2.863135   313A      2.880926
     314A      2.882709   315A      2.895359   316A      2.908993
     317A      2.958013   318A      2.961083   319A      3.003926
     320A      3.034507   321A      3.055265   322A      3.077141
     323A      3.086136   324A      3.110950   325A      3.127420
     326A      3.208168   327A      3.252548   328A      3.284603
     329A      3.310922   330A      3.348479   331A      3.380242
     332A      3.577017   333A      3.671376   334A      3.735730
     335A      3.956939   336A      3.972085   337A      4.191963

    Final Occupation by Irrep:
              A
    DOCC [    64 ]

  @RHF Final Energy:  -745.15835423132194

   => Energetics <=

    Nuclear Repulsion Energy =           1167.5890923050867514
    One-Electron Energy =               -3329.6175093258020752
    Two-Electron Energy =                1416.8700627893931596
    Total Energy =                       -745.1583542313219368

Computation Completed

Properties will be evaluated at   0.000000,   0.000000,   0.000000 [a0]

Properties computed using the SCF density matrix

  Nuclear Dipole Moment: [e a0]
     X:    -4.1829      Y:     2.0387      Z:     2.0979

  Electronic Dipole Moment: [e a0]
     X:     5.2842      Y:    -2.4214      Z:    -1.8493

  Dipole Moment: [e a0]
     X:     1.1013      Y:    -0.3828      Z:     0.2486     Total:     1.1922

  Dipole Moment: [D]
     X:     2.7993      Y:    -0.9730      Z:     0.6319     Total:     3.0302

*** tstop() called on ds3 at Sun Apr 26 20:55:59 2020
Module time:
	user time   =     801.25 seconds =      13.35 minutes
	system time =     288.50 seconds =       4.81 minutes
	total time  =       1304 seconds =      21.73 minutes
Total time:
	user time   =     801.25 seconds =      13.35 minutes
	system time =     288.50 seconds =       4.81 minutes
	total time  =       1304 seconds =      21.73 minutes
                                     G D M A

                                 by Anthony Stone

                           version 2.2.06, 22 June 2011

               Distributed Multipoles from Gaussian wavefunctions

Starting at 20:56:0 on 26 Apr 2020

Using SCF density matrix from file ./SSI/SSI-022TRP-039TYR-1-dimer.test.27178.fchk

                         Distributed Multipole Analysis

Standard DMA

Positions and radii in angstrom
Multipole moments in atomic units, ea_0^k for rank k

C          x =  1.617361  y = -2.087049  z = -1.596853 angstrom
           Maximum rank =  0   Radius =  0.650 angstrom
                   Q00  =  -0.211514

C          x =  2.345361  y = -0.312049  z =  0.209147 angstrom
           Maximum rank =  0   Radius =  0.650 angstrom
                   Q00  =  -0.051674

C          x =  2.621361  y = -1.346049  z = -0.752853 angstrom
           Maximum rank =  0   Radius =  0.650 angstrom
                   Q00  =  -0.131399

C          x =  3.586361  y =  0.081951  z =  0.774147 angstrom
           Maximum rank =  0   Radius =  0.650 angstrom
                   Q00  =   0.280721

C          x =  3.975361  y = -1.527049  z = -0.734853 angstrom
           Maximum rank =  0   Radius =  0.650 angstrom
                   Q00  =   0.074601

C          x =  1.176361  y =  0.316951  z =  0.654147 angstrom
           Maximum rank =  0   Radius =  0.650 angstrom
                   Q00  =  -0.095379

C          x =  1.272361  y =  1.306951  z =  1.627147 angstrom
           Maximum rank =  0   Radius =  0.650 angstrom
                   Q00  =  -0.109468

C          x =  2.511361  y =  1.673951  z =  2.162147 angstrom
           Maximum rank =  0   Radius =  0.650 angstrom
                   Q00  =  -0.025435

C          x =  3.680361  y =  1.062951  z =  1.748147 angstrom
           Maximum rank =  0   Radius =  0.650 angstrom
                   Q00  =  -0.121453

N          x =  4.554361  y = -0.675049  z =  0.173147 angstrom
           Maximum rank =  0   Radius =  0.650 angstrom
                   Q00  =  -0.495893

H          x =  0.223361  y =  0.050951  z =  0.227147 angstrom
           Maximum rank =  0   Radius =  0.325 angstrom
                   Q00  =   0.076162

H          x =  0.376361  y =  1.804951  z =  1.974147 angstrom
           Maximum rank =  0   Radius =  0.325 angstrom
                   Q00  =   0.055384

H          x =  2.555361  y =  2.447951  z =  2.918147 angstrom
           Maximum rank =  0   Radius =  0.325 angstrom
                   Q00  =   0.062597

H          x =  0.858361  y = -2.517049  z = -0.942853 angstrom
           Maximum rank =  0   Radius =  0.325 angstrom
                   Q00  =   0.091104

H          x =  2.139361  y = -2.917049  z = -2.073853 angstrom
           Maximum rank =  0   Radius =  0.325 angstrom
                   Q00  =   0.104303

H          x =  4.512361  y = -2.239049  z = -1.352853 angstrom
           Maximum rank =  0   Radius =  0.325 angstrom
                   Q00  =   0.101543

H          x =  5.556361  y = -0.642049  z =  0.358147 angstrom
           Maximum rank =  0   Radius =  0.325 angstrom
                   Q00  =   0.218818

H          x =  4.636361  y =  1.342951  z =  2.166147 angstrom
           Maximum rank =  0   Radius =  0.325 angstrom
                   Q00  =   0.072903

H          x =  1.120259  y = -1.480198  z = -2.367970 angstrom
           Maximum rank =  0   Radius =  0.325 angstrom
                   Q00  =   0.104345

C          x = -3.508639  y =  2.294951  z =  1.589147 angstrom
           Maximum rank =  0   Radius =  0.650 angstrom
                   Q00  =  -0.199356

C          x = -2.527639  y =  0.155951  z =  0.652147 angstrom
           Maximum rank =  0   Radius =  0.650 angstrom
                   Q00  =   0.024054

C          x = -3.427639  y =  1.216951  z =  0.530147 angstrom
           Maximum rank =  0   Radius =  0.650 angstrom
                   Q00  =  -0.134592

C          x = -2.438639  y = -0.823049  z = -0.334853 angstrom
           Maximum rank =  0   Radius =  0.650 angstrom
                   Q00  =  -0.186381

C          x = -3.248639  y = -0.744049  z = -1.462853 angstrom
           Maximum rank =  0   Radius =  0.650 angstrom
                   Q00  =   0.319000

C          x = -4.227639  y =  1.287951  z = -0.611853 angstrom
           Maximum rank =  0   Radius =  0.650 angstrom
                   Q00  =  -0.011614

C          x = -4.139639  y =  0.313951  z = -1.605853 angstrom
           Maximum rank =  0   Radius =  0.650 angstrom
                   Q00  =  -0.123240

O          x = -3.158639  y = -1.702049  z = -2.428853 angstrom
           Maximum rank =  0   Radius =  0.650 angstrom
                   Q00  =  -0.677498

H          x = -1.872639  y =  0.102951  z =  1.511147 angstrom
           Maximum rank =  0   Radius =  0.325 angstrom
                   Q00  =   0.069706

H          x = -1.702639  y = -1.607049  z = -0.263853 angstrom
           Maximum rank =  0   Radius =  0.325 angstrom
                   Q00  =   0.072212

H          x = -4.118639  y =  3.103951  z =  1.187147 angstrom
           Maximum rank =  0   Radius =  0.325 angstrom
                   Q00  =   0.094860

H          x = -2.507639  y =  2.693951  z =  1.734147 angstrom
           Maximum rank =  0   Radius =  0.325 angstrom
                   Q00  =   0.097732

H          x = -4.936639  y =  2.098951  z = -0.722853 angstrom
           Maximum rank =  0   Radius =  0.325 angstrom
                   Q00  =   0.065943

H          x = -2.560639  y = -2.412049  z = -2.173853 angstrom
           Maximum rank =  0   Radius =  0.325 angstrom
                   Q00  =   0.406550

H          x = -4.772639  y =  0.362951  z = -2.480853 angstrom
           Maximum rank =  0   Radius =  0.325 angstrom
                   Q00  =   0.081314

H          x = -3.938300  y =  1.986200  z =  2.553546 angstrom
           Maximum rank =  0   Radius =  0.325 angstrom
                   Q00  =   0.101044

Total multipoles referred to origin at
           x =   0.000000,  y =    0.000000,  z =    0.000000 angstrom
                   Q00  =  -0.000000

Finished at 20:56:0 on 26 Apr 2020

  DMA results are available in the Python driver through the
	  variable('DMA DISTRIBUTED MULTIPOLES')
  and
	  variable('DMA TOTAL MULTIPOLES')
  commands.

    Psi4 stopped on: Sunday, 26 April 2020 08:56PM
    Psi4 wall time for execution: 0:21:44.91

*** Psi4 exiting successfully. Buy a developer a beer!
