                               Psi4 1.3.2 release

  ==> Input File <==

--------------------------------------------------------------------------
import numpy as np
set {scf_type pk
basis cc-pvdz
d_convergence 10
gdma_switch   0
gdma_limit    0
gdma_origin   [ 0.0,  0.0,  0.0 ]
}
molecule test {
    units Angstrom
    0 1
    --
    0 1
    C                1.864183993555537     1.629496443907646     0.085038321142787
    C                2.804183993555537     1.046496443907647    -0.973961678857213
    H                0.830183993555537     1.550496443907646    -0.246961678857213
    H                1.982183993555537     1.093496443907646     1.029038321142786
    H                2.090183993555537     2.680496443907646     0.250038321142787
    H                3.828183993555537     1.194496443907646    -0.625961678857214
    H                2.663639993555537     1.564096443907646    -1.934347678857214
    H                2.624165993555537    -0.030733556092354    -1.105014678857213
    C               -1.056816006444463    -0.742503556092354     0.251038321142787
    C               -2.113816006444463     0.049496443907647     1.045038321142786
    C               -1.573816006444463    -2.035503556092354    -0.389961678857213
    H               -0.704816006444463    -0.105503556092353    -0.558961678857213
    H               -0.208816006444463    -0.972503556092354     0.897038321142786
    H               -3.008816006444463     0.163496443907647     0.432038321142787
    H               -0.788816006444463    -2.446503556092353    -1.028961678857214
    H               -1.760816006444463    -2.775503556092354     0.388038321142787
    H               -1.750977106444463     1.050876443907646     1.319988321142787
    H               -2.406569306444463    -0.480933556092354     1.963148321142786
    H               -2.483043606444463    -1.860453556092354    -0.983816678857213

}
e, wfn = energy('scf', return_wfn=True)
gdma(wfn)
dmavals = variable('DMA DISTRIBUTED MULTIPOLES')
charges = np.array(dmavals)
print(charges)
np.save('SSI-092ALA-164GLU-1-dimer.npy', np.array(charges))--------------------------------------------------------------------------

*** tstart() called on ds3
*** at Tue Apr 28 09:17:40 2020

   => Loading Basis Set <=

    Name: CC-PVDZ
    Role: ORBITAL
    Keyword: BASIS
    atoms 1-2, 9-11  entry C          line   138 file /theoryfs2/ds/metcalf/miniconda2/envs/tf2gpu/share/psi4/basis/cc-pvdz.gbs
    atoms 3-8, 12-19 entry H          line    22 file /theoryfs2/ds/metcalf/miniconda2/envs/tf2gpu/share/psi4/basis/cc-pvdz.gbs

         ---------------------------------------------------------
                                   SCF
               by Justin Turney, Rob Parrish, Andy Simmonett
                          and Daniel G. A. Smith
                              RHF Reference
                        1 Threads,    500 MiB Core
         ---------------------------------------------------------

  ==> Geometry <==

    Molecular point group: c1
    Full point group: C1

    Geometry (in Angstrom), charge = 0, multiplicity = 1:

       Center              X                  Y                   Z               Mass
    ------------   -----------------  -----------------  -----------------  -----------------
         C            1.864183993556     1.629496443908     0.085038321143    12.000000000000
         C            2.804183993556     1.046496443908    -0.973961678857    12.000000000000
         H            0.830183993556     1.550496443908    -0.246961678857     1.007825032230
         H            1.982183993556     1.093496443908     1.029038321143     1.007825032230
         H            2.090183993556     2.680496443908     0.250038321143     1.007825032230
         H            3.828183993556     1.194496443908    -0.625961678857     1.007825032230
         H            2.663639993556     1.564096443908    -1.934347678857     1.007825032230
         H            2.624165993556    -0.030733556092    -1.105014678857     1.007825032230
         C           -1.056816006444    -0.742503556092     0.251038321143    12.000000000000
         C           -2.113816006444     0.049496443908     1.045038321143    12.000000000000
         C           -1.573816006444    -2.035503556092    -0.389961678857    12.000000000000
         H           -0.704816006444    -0.105503556092    -0.558961678857     1.007825032230
         H           -0.208816006444    -0.972503556092     0.897038321143     1.007825032230
         H           -3.008816006444     0.163496443908     0.432038321143     1.007825032230
         H           -0.788816006444    -2.446503556092    -1.028961678857     1.007825032230
         H           -1.760816006444    -2.775503556092     0.388038321143     1.007825032230
         H           -1.750977106444     1.050876443908     1.319988321143     1.007825032230
         H           -2.406569306444    -0.480933556092     1.963148321143     1.007825032230
         H           -2.483043606444    -1.860453556092    -0.983816678857     1.007825032230

  Running in c1 symmetry.

  Rotational constants: A =      0.20419  B =      0.04174  C =      0.03591 [cm^-1]
  Rotational constants: A =   6121.47616  B =   1251.30111  C =   1076.54393 [MHz]
  Nuclear repulsion =  177.241641129198655

  Charge       = 0
  Multiplicity = 1
  Electrons    = 44
  Nalpha       = 22
  Nbeta        = 22

  ==> Algorithm <==

  SCF Algorithm Type is PK.
  DIIS enabled.
  MOM disabled.
  Fractional occupation disabled.
  Guess Type is SAD.
  Energy threshold   = 1.00e-06
  Density threshold  = 1.00e-10
  Integral threshold = 0.00e+00

  ==> Primary Basis <==

  Basis Set: CC-PVDZ
    Blend: CC-PVDZ
    Number of shells: 72
    Number of basis function: 140
    Number of Cartesian functions: 145
    Spherical Harmonics?: true
    Max angular momentum: 2

  ==> Pre-Iterations <==

   -------------------------------------------------------
    Irrep   Nso     Nmo     Nalpha   Nbeta   Ndocc  Nsocc
   -------------------------------------------------------
     A        140     140       0       0       0       0
   -------------------------------------------------------
    Total     140     140      22      22      22       0
   -------------------------------------------------------

  ==> Integral Setup <==

  Using integral reordering PK algorithm.
  Sizing the integral batches needed.
  Building batch lookup table.
   Calculation information:
      Number of atoms:                  19
      Number of AO shells:              72
      Number of primitives:            180
      Number of atomic orbitals:       145
      Number of basis functions:       140

      Integral cutoff                 1.00e-12
      Number of threads:                 1

	Batch   1 pq = [       0,    9405] index = [             0,44231715] size =     44231715
	Batch   2 pq = [    9405,    9870] index = [      44231715,48713385] size =      4481670
  Task number: 5
  Buffer size: 11059200
  Buffer per thread: 2
  We computed 2868105 shell quartets total.
  Whereas there are 3454506 unique shell quartets.

  ==> DiskJK: Disk-Based J/K Matrices <==

    J tasked:                  Yes
    K tasked:                  Yes
    wK tasked:                  No
    Memory [MiB]:              375
    Schwarz Cutoff:          1E-12

    OpenMP threads:              1

  Minimum eigenvalue in the overlap matrix is 5.4950982842E-03.
  Using Symmetric Orthogonalization.

  SCF Guess: Superposition of Atomic Densities via on-the-fly atomic UHF.

  ==> Iterations <==

                        Total Energy        Delta E     RMS |[F,P]|

   @RHF iter SAD:  -196.31537863898274   -1.96315e+02   0.00000e+00
   @RHF iter   1:  -197.31441946237382   -9.99041e-01   3.77638e-03 DIIS
   @RHF iter   2:  -197.47302833789928   -1.58609e-01   1.62169e-03 DIIS
   @RHF iter   3:  -197.50086346223998   -2.78351e-02   3.23604e-04 DIIS
   @RHF iter   4:  -197.50306387343733   -2.20041e-03   4.84255e-05 DIIS
   @RHF iter   5:  -197.50310198343192   -3.81100e-05   1.48689e-05 DIIS
   @RHF iter   6:  -197.50310530385957   -3.32043e-06   2.31791e-06 DIIS
   @RHF iter   7:  -197.50310540177904   -9.79195e-08   4.29531e-07 DIIS
   @RHF iter   8:  -197.50310540550021   -3.72117e-09   1.12860e-07 DIIS
   @RHF iter   9:  -197.50310540573929   -2.39083e-10   3.43831e-08 DIIS
   @RHF iter  10:  -197.50310540576584   -2.65459e-11   7.77821e-09 DIIS
   @RHF iter  11:  -197.50310540576885   -3.01270e-12   1.49728e-09 DIIS
   @RHF iter  12:  -197.50310540576831    5.40012e-13   2.91247e-10 DIIS
   @RHF iter  13:  -197.50310540576771    5.96856e-13   5.73260e-11 DIIS
  Energy and wave function converged.

  ==> Post-Iterations <==

    Orbital Energies [Eh]
    ---------------------

    Doubly Occupied:

       1A    -11.220965     2A    -11.219707     3A    -11.218084
       4A    -11.217340     5A    -11.215896     6A     -1.049540
       7A     -1.017187     8A     -0.924617     9A     -0.836486
      10A     -0.796700    11A     -0.624776    12A     -0.600213
      13A     -0.597268    14A     -0.589509    15A     -0.547516
      16A     -0.532456    17A     -0.499228    18A     -0.487313
      19A     -0.485795    20A     -0.473062    21A     -0.471467
      22A     -0.461206

    Virtual:

      23A      0.168247    24A      0.195061    25A      0.212387
      26A      0.222258    27A      0.235807    28A      0.250084
      29A      0.254813    30A      0.266792    31A      0.271880
      32A      0.280556    33A      0.300156    34A      0.302828
      35A      0.308938    36A      0.354667    37A      0.382316
      38A      0.396740    39A      0.427407    40A      0.562337
      41A      0.576620    42A      0.598414    43A      0.601832
      44A      0.610264    45A      0.618668    46A      0.635591
      47A      0.653718    48A      0.682667    49A      0.761763
      50A      0.795853    51A      0.814229    52A      0.840944
      53A      0.856360    54A      0.879327    55A      0.887453
      56A      0.890133    57A      0.893962    58A      0.899551
      59A      0.900379    60A      0.907890    61A      0.914008
      62A      0.917509    63A      0.922145    64A      0.935465
      65A      0.956190    66A      0.962576    67A      0.989374
      68A      0.999527    69A      1.119090    70A      1.124080
      71A      1.127904    72A      1.147112    73A      1.199975
      74A      1.254653    75A      1.377393    76A      1.465302
      77A      1.473481    78A      1.480749    79A      1.490895
      80A      1.527175    81A      1.551394    82A      1.639488
      83A      1.670618    84A      1.681919    85A      1.688466
      86A      1.698130    87A      1.715666    88A      1.850631
      89A      1.862019    90A      1.870362    91A      1.886038
      92A      1.888476    93A      1.893985    94A      1.915382
      95A      1.930225    96A      1.938436    97A      1.943451
      98A      1.947355    99A      1.951555   100A      1.958180
     101A      1.968421   102A      1.972793   103A      1.977288
     104A      1.985433   105A      2.005914   106A      2.022335
     107A      2.050411   108A      2.098301   109A      2.111891
     110A      2.126154   111A      2.157813   112A      2.277317
     113A      2.292287   114A      2.308663   115A      2.319444
     116A      2.336331   117A      2.347143   118A      2.451603
     119A      2.467883   120A      2.488595   121A      2.530510
     122A      2.561099   123A      2.569086   124A      2.577348
     125A      2.605438   126A      2.629194   127A      2.752462
     128A      2.756054   129A      2.761947   130A      2.782221
     131A      2.796597   132A      2.812992   133A      2.850852
     134A      2.854662   135A      2.906817   136A      2.949384
     137A      2.963482   138A      2.971392   139A      2.977562
     140A      3.055762

    Final Occupation by Irrep:
              A
    DOCC [    22 ]

  @RHF Final Energy:  -197.50310540576771

   => Energetics <=

    Nuclear Repulsion Energy =            177.2416411291986549
    One-Electron Energy =                -615.3168295158377532
    Two-Electron Energy =                 240.5720829808713574
    Total Energy =                       -197.5031054057677125

Computation Completed

Properties will be evaluated at   0.000000,   0.000000,   0.000000 [a0]

Properties computed using the SCF density matrix

  Nuclear Dipole Moment: [e a0]
     X:     0.8492      Y:     0.5862      Z:    -0.1919

  Electronic Dipole Moment: [e a0]
     X:    -0.8219      Y:    -0.5772      Z:     0.1907

  Dipole Moment: [e a0]
     X:     0.0273      Y:     0.0090      Z:    -0.0012     Total:     0.0288

  Dipole Moment: [D]
     X:     0.0694      Y:     0.0229      Z:    -0.0031     Total:     0.0731

*** tstop() called on ds3 at Tue Apr 28 09:18:05 2020
Module time:
	user time   =      18.01 seconds =       0.30 minutes
	system time =       7.84 seconds =       0.13 minutes
	total time  =         25 seconds =       0.42 minutes
Total time:
	user time   =      18.01 seconds =       0.30 minutes
	system time =       7.84 seconds =       0.13 minutes
	total time  =         25 seconds =       0.42 minutes
                                     G D M A

                                 by Anthony Stone

                           version 2.2.06, 22 June 2011

               Distributed Multipoles from Gaussian wavefunctions

Starting at 9:18:5 on 28 Apr 2020

Using SCF density matrix from file ./SSI/SSI-092ALA-164GLU-1-dimer.test.10029.fchk

                         Distributed Multipole Analysis

Standard DMA

Positions and radii in angstrom
Multipole moments in atomic units, ea_0^k for rank k

C          x =  1.864184  y =  1.629496  z =  0.085038 angstrom
           Maximum rank =  0   Radius =  0.650 angstrom
                   Q00  =  -0.242412

C          x =  2.804184  y =  1.046496  z = -0.973962 angstrom
           Maximum rank =  0   Radius =  0.650 angstrom
                   Q00  =  -0.235378

H          x =  0.830184  y =  1.550496  z = -0.246962 angstrom
           Maximum rank =  0   Radius =  0.325 angstrom
                   Q00  =   0.082593

H          x =  1.982184  y =  1.093496  z =  1.029038 angstrom
           Maximum rank =  0   Radius =  0.325 angstrom
                   Q00  =   0.079011

H          x =  2.090184  y =  2.680496  z =  0.250038 angstrom
           Maximum rank =  0   Radius =  0.325 angstrom
                   Q00  =   0.078384

H          x =  3.828184  y =  1.194496  z = -0.625962 angstrom
           Maximum rank =  0   Radius =  0.325 angstrom
                   Q00  =   0.078144

H          x =  2.663640  y =  1.564096  z = -1.934348 angstrom
           Maximum rank =  0   Radius =  0.325 angstrom
                   Q00  =   0.079086

H          x =  2.624166  y = -0.030734  z = -1.105015 angstrom
           Maximum rank =  0   Radius =  0.325 angstrom
                   Q00  =   0.079411

C          x = -1.056816  y = -0.742504  z =  0.251038 angstrom
           Maximum rank =  0   Radius =  0.650 angstrom
                   Q00  =  -0.079151

C          x = -2.113816  y =  0.049496  z =  1.045038 angstrom
           Maximum rank =  0   Radius =  0.650 angstrom
                   Q00  =  -0.238936

C          x = -1.573816  y = -2.035504  z = -0.389962 angstrom
           Maximum rank =  0   Radius =  0.650 angstrom
                   Q00  =  -0.254443

H          x = -0.704816  y = -0.105504  z = -0.558962 angstrom
           Maximum rank =  0   Radius =  0.325 angstrom
                   Q00  =   0.040509

H          x = -0.208816  y = -0.972504  z =  0.897038 angstrom
           Maximum rank =  0   Radius =  0.325 angstrom
                   Q00  =   0.051364

H          x = -3.008816  y =  0.163496  z =  0.432038 angstrom
           Maximum rank =  0   Radius =  0.325 angstrom
                   Q00  =   0.076409

H          x = -0.788816  y = -2.446504  z = -1.028962 angstrom
           Maximum rank =  0   Radius =  0.325 angstrom
                   Q00  =   0.083381

H          x = -1.760816  y = -2.775504  z =  0.388038 angstrom
           Maximum rank =  0   Radius =  0.325 angstrom
                   Q00  =   0.077193

H          x = -1.750977  y =  1.050876  z =  1.319988 angstrom
           Maximum rank =  0   Radius =  0.325 angstrom
                   Q00  =   0.086608

H          x = -2.406569  y = -0.480934  z =  1.963148 angstrom
           Maximum rank =  0   Radius =  0.325 angstrom
                   Q00  =   0.077904

H          x = -2.483044  y = -1.860454  z = -0.983817 angstrom
           Maximum rank =  0   Radius =  0.325 angstrom
                   Q00  =   0.080322

Total multipoles referred to origin at
           x =   0.000000,  y =    0.000000,  z =    0.000000 angstrom
                   Q00  =  -0.000000

Finished at 9:18:5 on 28 Apr 2020

  DMA results are available in the Python driver through the
	  variable('DMA DISTRIBUTED MULTIPOLES')
  and
	  variable('DMA TOTAL MULTIPOLES')
  commands.

    Psi4 stopped on: Tuesday, 28 April 2020 09:18AM
    Psi4 wall time for execution: 0:00:25.52

*** Psi4 exiting successfully. Buy a developer a beer!
