                               Psi4 1.3.2 release

  ==> Input File <==

--------------------------------------------------------------------------
import numpy as np
set {scf_type pk
basis cc-pvdz
d_convergence 10
gdma_switch   0
gdma_limit    0
gdma_origin   [ 0.0,  0.0,  0.0 ]
}
molecule test {
    units Angstrom
    -1 1
    --
    -1 1
    C                0.844999300330806    -0.934911261898371     1.773231152540667
    C                0.854999300330806     0.443088738101629     1.091231152540667
    O                1.702999300330806     0.682088738101629     0.194231152540667
    O               -0.002000699669194     1.286088738101629     1.453231152540667
    H               -0.106000699669194    -1.084911261898371     2.289231152540667
    H                1.639999300330806    -0.963911261898371     2.522231152540667
    H                0.986269300330806    -1.763177261898371     1.063291152540667
    C               -1.035000699669194    -0.315911261898371    -2.101768847459333
    C               -2.302000699669194    -1.130911261898371    -2.332768847459333
    H               -0.794000699669194    -0.297911261898371    -1.041768847459333
    H               -0.203000699669194    -0.750911261898371    -2.658768847459333
    H               -1.191000699669194     0.709088738101629    -2.442768847459333
    H               -2.566000699669194    -1.068911261898371    -3.389768847459333
    H               -3.132269699669194    -0.745913261898371    -1.722498847459333
    H               -2.138565699669194    -2.186732261898371    -2.070982847459333

}
e, wfn = energy('scf', return_wfn=True)
gdma(wfn)
dmavals = variable('DMA DISTRIBUTED MULTIPOLES')
charges = np.array(dmavals)
print(charges)
np.save('SSI-043GLU-104ALA-1-dimer.npy', np.array(charges))--------------------------------------------------------------------------

*** tstart() called on ds3
*** at Sun Apr 26 17:54:32 2020

   => Loading Basis Set <=

    Name: CC-PVDZ
    Role: ORBITAL
    Keyword: BASIS
    atoms 1-2, 8-9   entry C          line   138 file /theoryfs2/ds/metcalf/miniconda2/envs/tf2gpu/share/psi4/basis/cc-pvdz.gbs
    atoms 3-4        entry O          line   198 file /theoryfs2/ds/metcalf/miniconda2/envs/tf2gpu/share/psi4/basis/cc-pvdz.gbs
    atoms 5-7, 10-15 entry H          line    22 file /theoryfs2/ds/metcalf/miniconda2/envs/tf2gpu/share/psi4/basis/cc-pvdz.gbs

         ---------------------------------------------------------
                                   SCF
               by Justin Turney, Rob Parrish, Andy Simmonett
                          and Daniel G. A. Smith
                              RHF Reference
                        1 Threads,    500 MiB Core
         ---------------------------------------------------------

  ==> Geometry <==

    Molecular point group: c1
    Full point group: C1

    Geometry (in Angstrom), charge = -1, multiplicity = 1:

       Center              X                  Y                   Z               Mass
    ------------   -----------------  -----------------  -----------------  -----------------
         C            0.844999300331    -0.934911261898     1.773231152541    12.000000000000
         C            0.854999300331     0.443088738102     1.091231152541    12.000000000000
         O            1.702999300331     0.682088738102     0.194231152541    15.994914619570
         O           -0.002000699669     1.286088738102     1.453231152541    15.994914619570
         H           -0.106000699669    -1.084911261898     2.289231152541     1.007825032230
         H            1.639999300331    -0.963911261898     2.522231152541     1.007825032230
         H            0.986269300331    -1.763177261898     1.063291152541     1.007825032230
         C           -1.035000699669    -0.315911261898    -2.101768847459    12.000000000000
         C           -2.302000699669    -1.130911261898    -2.332768847459    12.000000000000
         H           -0.794000699669    -0.297911261898    -1.041768847459     1.007825032230
         H           -0.203000699669    -0.750911261898    -2.658768847459     1.007825032230
         H           -1.191000699669     0.709088738102    -2.442768847459     1.007825032230
         H           -2.566000699669    -1.068911261898    -3.389768847459     1.007825032230
         H           -3.132269699669    -0.745913261898    -1.722498847459     1.007825032230
         H           -2.138565699669    -2.186732261898    -2.070982847459     1.007825032230

  Running in c1 symmetry.

  Rotational constants: A =      0.16014  B =      0.03880  C =      0.03760 [cm^-1]
  Rotational constants: A =   4800.87140  B =   1163.19769  C =   1127.28771 [MHz]
  Nuclear repulsion =  220.475129188655956

  Charge       = -1
  Multiplicity = 1
  Electrons    = 50
  Nalpha       = 25
  Nbeta        = 25

  ==> Algorithm <==

  SCF Algorithm Type is PK.
  DIIS enabled.
  MOM disabled.
  Fractional occupation disabled.
  Guess Type is SAD.
  Energy threshold   = 1.00e-06
  Density threshold  = 1.00e-10
  Integral threshold = 0.00e+00

  ==> Primary Basis <==

  Basis Set: CC-PVDZ
    Blend: CC-PVDZ
    Number of shells: 63
    Number of basis function: 129
    Number of Cartesian functions: 135
    Spherical Harmonics?: true
    Max angular momentum: 2

  ==> Pre-Iterations <==

   -------------------------------------------------------
    Irrep   Nso     Nmo     Nalpha   Nbeta   Ndocc  Nsocc
   -------------------------------------------------------
     A        129     129       0       0       0       0
   -------------------------------------------------------
    Total     129     129      25      25      25       0
   -------------------------------------------------------

  ==> Integral Setup <==

  Using integral reordering PK algorithm.
  Sizing the integral batches needed.
  Building batch lookup table.
   Calculation information:
      Number of atoms:                  15
      Number of AO shells:              63
      Number of primitives:            177
      Number of atomic orbitals:       135
      Number of basis functions:       129

      Integral cutoff                 1.00e-12
      Number of threads:                 1

	Batch   1 pq = [       0,    8385] index = [             0,35158305] size =     35158305
  Task number: 4
  Buffer size: 11059200
  Buffer per thread: 2
  We computed 1667963 shell quartets total.
  Whereas there are 2033136 unique shell quartets.

  ==> DiskJK: Disk-Based J/K Matrices <==

    J tasked:                  Yes
    K tasked:                  Yes
    wK tasked:                  No
    Memory [MiB]:              375
    Schwarz Cutoff:          1E-12

    OpenMP threads:              1

  Minimum eigenvalue in the overlap matrix is 5.3740643051E-03.
  Using Symmetric Orthogonalization.

  SCF Guess: Superposition of Atomic Densities via on-the-fly atomic UHF.

  ==> Iterations <==

                        Total Energy        Delta E     RMS |[F,P]|

   @RHF iter SAD:  -304.79622766234894   -3.04796e+02   0.00000e+00
   @RHF iter   1:  -306.20759831963568   -1.41137e+00   5.67183e-03 DIIS
   @RHF iter   2:  -306.40698845369155   -1.99390e-01   3.21154e-03 DIIS
   @RHF iter   3:  -306.46979988875648   -6.28114e-02   4.78248e-04 DIIS
   @RHF iter   4:  -306.47239338063150   -2.59349e-03   1.77362e-04 DIIS
   @RHF iter   5:  -306.47277969100219   -3.86310e-04   2.56027e-05 DIIS
   @RHF iter   6:  -306.47278996324440   -1.02722e-05   5.61671e-06 DIIS
   @RHF iter   7:  -306.47279044602107   -4.82777e-07   1.68789e-06 DIIS
   @RHF iter   8:  -306.47279048810236   -4.20813e-08   5.41472e-07 DIIS
   @RHF iter   9:  -306.47279049197505   -3.87269e-09   2.30451e-07 DIIS
   @RHF iter  10:  -306.47279049280564   -8.30596e-10   8.96420e-08 DIIS
   @RHF iter  11:  -306.47279049299749   -1.91847e-10   2.48491e-08 DIIS
   @RHF iter  12:  -306.47279049301721   -1.97247e-11   8.06916e-09 DIIS
   @RHF iter  13:  -306.47279049301898   -1.76215e-12   2.40110e-09 DIIS
   @RHF iter  14:  -306.47279049301949   -5.11591e-13   6.83631e-10 DIIS
   @RHF iter  15:  -306.47279049301966   -1.70530e-13   2.57569e-10 DIIS
   @RHF iter  16:  -306.47279049301869    9.66338e-13   6.93542e-11 DIIS
  Energy and wave function converged.

  ==> Post-Iterations <==

    Orbital Energies [Eh]
    ---------------------

    Doubly Occupied:

       1A    -20.253536     2A    -20.251677     3A    -11.113286
       4A    -11.111733     5A    -11.088075     6A    -11.050513
       7A     -1.138978     8A     -1.025750     9A     -0.902162
      10A     -0.791659    11A     -0.717383    12A     -0.495721
      13A     -0.483374    14A     -0.480876    15A     -0.408548
      16A     -0.401512    17A     -0.394960    18A     -0.383201
      19A     -0.367667    20A     -0.364378    21A     -0.335650
      22A     -0.297632    23A     -0.177228    24A     -0.164508
      25A     -0.153201

    Virtual:

      26A      0.292152    27A      0.344965    28A      0.354213
      29A      0.360864    30A      0.372339    31A      0.397374
      32A      0.399890    33A      0.420664    34A      0.449794
      35A      0.494315    36A      0.516844    37A      0.573855
      38A      0.676868    39A      0.697174    40A      0.717210
      41A      0.721620    42A      0.758940    43A      0.794066
      44A      0.813131    45A      0.848205    46A      0.872128
      47A      0.950525    48A      0.975749    49A      0.993210
      50A      0.996055    51A      1.013014    52A      1.019173
      53A      1.023610    54A      1.038735    55A      1.040578
      56A      1.052511    57A      1.068614    58A      1.077910
      59A      1.136108    60A      1.154564    61A      1.239311
      62A      1.248031    63A      1.266294    64A      1.325830
      65A      1.353057    66A      1.393871    67A      1.402292
      68A      1.535938    69A      1.566893    70A      1.582026
      71A      1.590572    72A      1.605820    73A      1.608835
      74A      1.657594    75A      1.674983    76A      1.715406
      77A      1.751548    78A      1.786604    79A      1.824246
      80A      1.837799    81A      1.844469    82A      1.975297
      83A      1.982153    84A      2.019479    85A      2.054075
      86A      2.055798    87A      2.064831    88A      2.067606
      89A      2.077061    90A      2.082136    91A      2.088385
      92A      2.119628    93A      2.130171    94A      2.199538
      95A      2.225582    96A      2.240482    97A      2.260901
      98A      2.371401    99A      2.412259   100A      2.429743
     101A      2.436121   102A      2.455100   103A      2.571871
     104A      2.576101   105A      2.597128   106A      2.662812
     107A      2.673559   108A      2.715803   109A      2.717075
     110A      2.778664   111A      2.864217   112A      2.913747
     113A      2.935740   114A      2.959492   115A      2.966787
     116A      2.978203   117A      2.990578   118A      3.064169
     119A      3.105911   120A      3.249440   121A      3.282876
     122A      3.303784   123A      3.367121   124A      3.642206
     125A      3.769079   126A      3.825527   127A      4.062597
     128A      4.073018   129A      4.190009

    Final Occupation by Irrep:
              A
    DOCC [    25 ]

  @RHF Final Energy:  -306.47279049301869

   => Energetics <=

    Nuclear Repulsion Energy =            220.4751291886559557
    One-Electron Energy =                -865.1894206239481946
    Two-Electron Energy =                 338.2415009422735466
    Total Energy =                       -306.4727904930186924

Computation Completed

Properties will be evaluated at   0.000000,   0.000000,   0.000000 [a0]

Properties computed using the SCF density matrix

  Nuclear Dipole Moment: [e a0]
     X:    -7.0271      Y:    -7.6340      Z:    -6.9779

  Electronic Dipole Moment: [e a0]
     X:     5.6614      Y:     5.7428      Z:     5.7885

  Dipole Moment: [e a0]
     X:    -1.3658      Y:    -1.8912      Z:    -1.1894     Total:     2.6185

  Dipole Moment: [D]
     X:    -3.4714      Y:    -4.8068      Z:    -3.0232     Total:     6.6555

*** tstop() called on ds3 at Sun Apr 26 17:54:51 2020
Module time:
	user time   =      13.08 seconds =       0.22 minutes
	system time =       5.75 seconds =       0.10 minutes
	total time  =         19 seconds =       0.32 minutes
Total time:
	user time   =      13.08 seconds =       0.22 minutes
	system time =       5.75 seconds =       0.10 minutes
	total time  =         19 seconds =       0.32 minutes
                                     G D M A

                                 by Anthony Stone

                           version 2.2.06, 22 June 2011

               Distributed Multipoles from Gaussian wavefunctions

Starting at 17:54:51 on 26 Apr 2020

Using SCF density matrix from file ./SSI/SSI-043GLU-104ALA-1-dimer.test.21736.fchk

                         Distributed Multipole Analysis

Standard DMA

Positions and radii in angstrom
Multipole moments in atomic units, ea_0^k for rank k

C          x =  0.844999  y = -0.934911  z =  1.773231 angstrom
           Maximum rank =  0   Radius =  0.650 angstrom
                   Q00  =  -0.284349

C          x =  0.854999  y =  0.443089  z =  1.091231 angstrom
           Maximum rank =  0   Radius =  0.650 angstrom
                   Q00  =   0.969025

O          x =  1.702999  y =  0.682089  z =  0.194231 angstrom
           Maximum rank =  0   Radius =  0.650 angstrom
                   Q00  =  -0.931802

O          x = -0.002001  y =  1.286089  z =  1.453231 angstrom
           Maximum rank =  0   Radius =  0.650 angstrom
                   Q00  =  -0.930433

H          x = -0.106001  y = -1.084911  z =  2.289231 angstrom
           Maximum rank =  0   Radius =  0.325 angstrom
                   Q00  =   0.050608

H          x =  1.639999  y = -0.963911  z =  2.522231 angstrom
           Maximum rank =  0   Radius =  0.325 angstrom
                   Q00  =   0.077224

H          x =  0.986269  y = -1.763177  z =  1.063291 angstrom
           Maximum rank =  0   Radius =  0.325 angstrom
                   Q00  =   0.053447

C          x = -1.035001  y = -0.315911  z = -2.101769 angstrom
           Maximum rank =  0   Radius =  0.650 angstrom
                   Q00  =  -0.189615

C          x = -2.302001  y = -1.130911  z = -2.332769 angstrom
           Maximum rank =  0   Radius =  0.650 angstrom
                   Q00  =  -0.255719

H          x = -0.794001  y = -0.297911  z = -1.041769 angstrom
           Maximum rank =  0   Radius =  0.325 angstrom
                   Q00  =   0.126016

H          x = -0.203001  y = -0.750911  z = -2.658769 angstrom
           Maximum rank =  0   Radius =  0.325 angstrom
                   Q00  =   0.061746

H          x = -1.191001  y =  0.709089  z = -2.442769 angstrom
           Maximum rank =  0   Radius =  0.325 angstrom
                   Q00  =   0.069423

H          x = -2.566001  y = -1.068911  z = -3.389769 angstrom
           Maximum rank =  0   Radius =  0.325 angstrom
                   Q00  =   0.047978

H          x = -3.132270  y = -0.745913  z = -1.722499 angstrom
           Maximum rank =  0   Radius =  0.325 angstrom
                   Q00  =   0.073291

H          x = -2.138566  y = -2.186732  z = -2.070983 angstrom
           Maximum rank =  0   Radius =  0.325 angstrom
                   Q00  =   0.063158

Total multipoles referred to origin at
           x =   0.000000,  y =    0.000000,  z =    0.000000 angstrom
                   Q00  =  -1.000000

Finished at 17:54:51 on 26 Apr 2020

  DMA results are available in the Python driver through the
	  variable('DMA DISTRIBUTED MULTIPOLES')
  and
	  variable('DMA TOTAL MULTIPOLES')
  commands.

    Psi4 stopped on: Sunday, 26 April 2020 05:54PM
    Psi4 wall time for execution: 0:00:18.89

*** Psi4 exiting successfully. Buy a developer a beer!
