                               Psi4 1.3.2 release

  ==> Input File <==

--------------------------------------------------------------------------
import numpy as np
set {scf_type pk
basis cc-pvdz
d_convergence 10
gdma_switch   0
gdma_limit    0
gdma_origin   [ 0.0,  0.0,  0.0 ]
}
molecule test {
    units Angstrom
    0 1
    --
    0 1
    C                1.526142569164045    -0.002995954536195     1.774382426891577
    C                2.428142569164046    -0.408995954536195     2.953382426891578
    H                1.716142569164045    -0.650995954536195     0.918382426891577
    H                0.482142569164045    -0.105995954536195     2.059382426891577
    H                1.719142569164045     1.033004045463805     1.495382426891577
    H                2.232142569164045     0.298004045463805     3.758382426891578
    H                3.480082569164045    -0.322177954536195     2.643732426891578
    H                2.189102569164045    -1.417706954536195     3.321302426891577
    C                0.647142569164045     1.502004045463805    -1.806617573108423
    C               -1.259857430835955     0.817004045463805    -0.226617573108423
    C               -0.318857430835955     0.567004045463805    -1.169617573108423
    C               -1.269857430835955    -1.328995954536195    -0.682617573108423
    N               -1.838857430835955    -0.402995954536195     0.083382426891577
    N               -0.312857430835955    -0.786995954536195    -1.439617573108423
    H               -1.483857430835955     1.779004045463805     0.218382426891577
    H               -2.546857430835955    -0.571995954536195     0.801382426891577
    H                1.635142569164045     1.229004045463805    -1.434617573108423
    H                0.428142569164045     2.497004045463805    -1.433617573108423
    H               -1.482857430835955    -2.377995954536195    -0.626617573108423
    H                0.657262569164045     1.511405045463805    -2.906527573108423

}
e, wfn = energy('scf', return_wfn=True)
gdma(wfn)
dmavals = variable('DMA DISTRIBUTED MULTIPOLES')
charges = np.array(dmavals)
print(charges)
np.save('SSI-007LEU-168HIE-1-dimer.npy', np.array(charges))--------------------------------------------------------------------------

*** tstart() called on ds3
*** at Tue Apr 28 20:08:20 2020

   => Loading Basis Set <=

    Name: CC-PVDZ
    Role: ORBITAL
    Keyword: BASIS
    atoms 1-2, 9-12  entry C          line   138 file /theoryfs2/ds/metcalf/miniconda2/envs/tf2gpu/share/psi4/basis/cc-pvdz.gbs
    atoms 3-8, 15-20 entry H          line    22 file /theoryfs2/ds/metcalf/miniconda2/envs/tf2gpu/share/psi4/basis/cc-pvdz.gbs
    atoms 13-14      entry N          line   168 file /theoryfs2/ds/metcalf/miniconda2/envs/tf2gpu/share/psi4/basis/cc-pvdz.gbs

         ---------------------------------------------------------
                                   SCF
               by Justin Turney, Rob Parrish, Andy Simmonett
                          and Daniel G. A. Smith
                              RHF Reference
                        1 Threads,    500 MiB Core
         ---------------------------------------------------------

  ==> Geometry <==

    Molecular point group: c1
    Full point group: C1

    Geometry (in Angstrom), charge = 0, multiplicity = 1:

       Center              X                  Y                   Z               Mass
    ------------   -----------------  -----------------  -----------------  -----------------
         C            1.526142569164    -0.002995954536     1.774382426892    12.000000000000
         C            2.428142569164    -0.408995954536     2.953382426892    12.000000000000
         H            1.716142569164    -0.650995954536     0.918382426892     1.007825032230
         H            0.482142569164    -0.105995954536     2.059382426892     1.007825032230
         H            1.719142569164     1.033004045464     1.495382426892     1.007825032230
         H            2.232142569164     0.298004045464     3.758382426892     1.007825032230
         H            3.480082569164    -0.322177954536     2.643732426892     1.007825032230
         H            2.189102569164    -1.417706954536     3.321302426892     1.007825032230
         C            0.647142569164     1.502004045464    -1.806617573108    12.000000000000
         C           -1.259857430836     0.817004045464    -0.226617573108    12.000000000000
         C           -0.318857430836     0.567004045464    -1.169617573108    12.000000000000
         C           -1.269857430836    -1.328995954536    -0.682617573108    12.000000000000
         N           -1.838857430836    -0.402995954536     0.083382426892    14.003074004430
         N           -0.312857430836    -0.786995954536    -1.439617573108    14.003074004430
         H           -1.483857430836     1.779004045464     0.218382426892     1.007825032230
         H           -2.546857430836    -0.571995954536     0.801382426892     1.007825032230
         H            1.635142569164     1.229004045464    -1.434617573108     1.007825032230
         H            0.428142569164     2.497004045464    -1.433617573108     1.007825032230
         H           -1.482857430836    -2.377995954536    -0.626617573108     1.007825032230
         H            0.657262569164     1.511405045464    -2.906527573108     1.007825032230

  Running in c1 symmetry.

  Rotational constants: A =      0.08317  B =      0.03581  C =      0.03001 [cm^-1]
  Rotational constants: A =   2493.31972  B =   1073.57048  C =    899.55727 [MHz]
  Nuclear repulsion =  362.437631638750418

  Charge       = 0
  Multiplicity = 1
  Electrons    = 62
  Nalpha       = 31
  Nbeta        = 31

  ==> Algorithm <==

  SCF Algorithm Type is PK.
  DIIS enabled.
  MOM disabled.
  Fractional occupation disabled.
  Guess Type is SAD.
  Energy threshold   = 1.00e-06
  Density threshold  = 1.00e-10
  Integral threshold = 0.00e+00

  ==> Primary Basis <==

  Basis Set: CC-PVDZ
    Blend: CC-PVDZ
    Number of shells: 84
    Number of basis function: 172
    Number of Cartesian functions: 180
    Spherical Harmonics?: true
    Max angular momentum: 2

  ==> Pre-Iterations <==

   -------------------------------------------------------
    Irrep   Nso     Nmo     Nalpha   Nbeta   Ndocc  Nsocc
   -------------------------------------------------------
     A        172     172       0       0       0       0
   -------------------------------------------------------
    Total     172     172      31      31      31       0
   -------------------------------------------------------

  ==> Integral Setup <==

  Using integral reordering PK algorithm.
  Sizing the integral batches needed.
  Building batch lookup table.
   Calculation information:
      Number of atoms:                  20
      Number of AO shells:              84
      Number of primitives:            236
      Number of atomic orbitals:       180
      Number of basis functions:       172

      Integral cutoff                 1.00e-12
      Number of threads:                 1

	Batch   1 pq = [       0,    9405] index = [             0,44231715] size =     44231715
	Batch   2 pq = [    9405,   13301] index = [      44231715,88464951] size =     44233236
	Batch   3 pq = [   13301,   14878] index = [      88464951,110684881] size =     22219930
  Task number: 11
  Buffer size: 11059200
  Buffer per thread: 2
  We computed 5790885 shell quartets total.
  Whereas there are 6374235 unique shell quartets.

  ==> DiskJK: Disk-Based J/K Matrices <==

    J tasked:                  Yes
    K tasked:                  Yes
    wK tasked:                  No
    Memory [MiB]:              375
    Schwarz Cutoff:          1E-12

    OpenMP threads:              1

  Minimum eigenvalue in the overlap matrix is 1.1746716754E-03.
  Using Symmetric Orthogonalization.

  SCF Guess: Superposition of Atomic Densities via on-the-fly atomic UHF.

  ==> Iterations <==

                        Total Energy        Delta E     RMS |[F,P]|

   @RHF iter SAD:  -342.19831896755721   -3.42198e+02   0.00000e+00
   @RHF iter   1:  -342.88723297344188   -6.88914e-01   3.35821e-03 DIIS
   @RHF iter   2:  -343.05942185056631   -1.72189e-01   1.70715e-03 DIIS
   @RHF iter   3:  -343.10027893158235   -4.08571e-02   4.45429e-04 DIIS
   @RHF iter   4:  -343.10386303321116   -3.58410e-03   1.83670e-04 DIIS
   @RHF iter   5:  -343.10444121964434   -5.78186e-04   2.63946e-05 DIIS
   @RHF iter   6:  -343.10446203742021   -2.08178e-05   1.16060e-05 DIIS
   @RHF iter   7:  -343.10446544530612   -3.40789e-06   3.94620e-06 DIIS
   @RHF iter   8:  -343.10446617363601   -7.28330e-07   1.62538e-06 DIIS
   @RHF iter   9:  -343.10446632626446   -1.52628e-07   5.63091e-07 DIIS
   @RHF iter  10:  -343.10446634108541   -1.48210e-08   1.73575e-07 DIIS
   @RHF iter  11:  -343.10446634277412   -1.68870e-09   7.64747e-08 DIIS
   @RHF iter  12:  -343.10446634301655   -2.42437e-10   3.11351e-08 DIIS
   @RHF iter  13:  -343.10446634306311   -4.65548e-11   8.66541e-09 DIIS
   @RHF iter  14:  -343.10446634306874   -5.62750e-12   3.34635e-09 DIIS
   @RHF iter  15:  -343.10446634306840    3.41061e-13   1.31713e-09 DIIS
   @RHF iter  16:  -343.10446634306879   -3.97904e-13   4.43046e-10 DIIS
   @RHF iter  17:  -343.10446634306697    1.81899e-12   1.23415e-10 DIIS
   @RHF iter  18:  -343.10446634306703   -5.68434e-14   4.51107e-11 DIIS
  Energy and wave function converged.

  ==> Post-Iterations <==

    Orbital Energies [Eh]
    ---------------------

    Doubly Occupied:

       1A    -15.622517     2A    -15.530103     3A    -11.293661
       4A    -11.249434     5A    -11.239841     6A    -11.220776
       7A    -11.214428     8A    -11.208087     9A     -1.338092
      10A     -1.154096    11A     -1.031837    12A     -1.009346
      13A     -0.939706    14A     -0.829794    15A     -0.819905
      16A     -0.760493    17A     -0.738560    18A     -0.608740
      19A     -0.603810    20A     -0.595956    21A     -0.592738
      22A     -0.589203    23A     -0.553333    24A     -0.539329
      25A     -0.517607    26A     -0.489968    27A     -0.481628
      28A     -0.476988    29A     -0.416751    30A     -0.377329
      31A     -0.309026

    Virtual:

      32A      0.167035    33A      0.184663    34A      0.190033
      35A      0.201972    36A      0.224131    37A      0.226638
      38A      0.234647    39A      0.262335    40A      0.264194
      41A      0.269708    42A      0.284241    43A      0.296114
      44A      0.297886    45A      0.320436    46A      0.382437
      47A      0.389006    48A      0.397562    49A      0.423157
      50A      0.474367    51A      0.496575    52A      0.573931
      53A      0.601200    54A      0.601384    55A      0.614600
      56A      0.619429    57A      0.648816    58A      0.667888
      59A      0.681823    60A      0.696136    61A      0.736986
      62A      0.748357    63A      0.763508    64A      0.788042
      65A      0.809110    66A      0.817266    67A      0.828758
      68A      0.854640    69A      0.875425    70A      0.896661
      71A      0.897879    72A      0.901496    73A      0.913275
      74A      0.919413    75A      0.924260    76A      0.932305
      77A      0.940805    78A      0.957380    79A      0.980559
      80A      0.984361    81A      1.014227    82A      1.038315
      83A      1.075309    84A      1.098638    85A      1.105072
      86A      1.129213    87A      1.133527    88A      1.143821
      89A      1.158025    90A      1.183619    91A      1.253719
      92A      1.259269    93A      1.277284    94A      1.315696
      95A      1.328552    96A      1.354779    97A      1.428602
      98A      1.444517    99A      1.468594   100A      1.480865
     101A      1.503555   102A      1.514359   103A      1.570719
     104A      1.581801   105A      1.601902   106A      1.661222
     107A      1.681317   108A      1.692608   109A      1.703593
     110A      1.733716   111A      1.775385   112A      1.811669
     113A      1.815329   114A      1.848259   115A      1.874945
     116A      1.890036   117A      1.904248   118A      1.911867
     119A      1.931604   120A      1.939676   121A      1.952676
     122A      1.957135   123A      1.965978   124A      1.969292
     125A      1.986974   126A      2.006256   127A      2.018356
     128A      2.030865   129A      2.062821   130A      2.095056
     131A      2.122127   132A      2.127988   133A      2.131171
     134A      2.136377   135A      2.176146   136A      2.199747
     137A      2.239051   138A      2.306318   139A      2.324511
     140A      2.340700   141A      2.372750   142A      2.411570
     143A      2.435963   144A      2.455329   145A      2.479813
     146A      2.482286   147A      2.500217   148A      2.551866
     149A      2.562345   150A      2.586226   151A      2.610826
     152A      2.680700   153A      2.746615   154A      2.767749
     155A      2.773485   156A      2.782523   157A      2.798838
     158A      2.808769   159A      2.831402   160A      2.848394
     161A      2.858063   162A      2.864966   163A      2.887693
     164A      2.923542   165A      2.950392   166A      2.970722
     167A      2.979545   168A      3.062870   169A      3.163463
     170A      3.252322   171A      3.461054   172A      3.783446

    Final Occupation by Irrep:
              A
    DOCC [    31 ]

  @RHF Final Energy:  -343.10446634306703

   => Energetics <=

    Nuclear Repulsion Energy =            362.4376316387504176
    One-Electron Energy =               -1182.3780310798783830
    Two-Electron Energy =                 476.8359330980609343
    Total Energy =                       -343.1044663430670312

Computation Completed

Properties will be evaluated at   0.000000,   0.000000,   0.000000 [a0]

Properties computed using the SCF density matrix

  Nuclear Dipole Moment: [e a0]
     X:     8.4676      Y:     2.7226      Z:     8.2677

  Electronic Dipole Moment: [e a0]
     X:    -9.4327      Y:    -2.5384      Z:    -7.3222

  Dipole Moment: [e a0]
     X:    -0.9651      Y:     0.1842      Z:     0.9455     Total:     1.3636

  Dipole Moment: [D]
     X:    -2.4531      Y:     0.4682      Z:     2.4031     Total:     3.4658

*** tstop() called on ds3 at Tue Apr 28 20:09:18 2020
Module time:
	user time   =      42.57 seconds =       0.71 minutes
	system time =      17.84 seconds =       0.30 minutes
	total time  =         58 seconds =       0.97 minutes
Total time:
	user time   =      42.57 seconds =       0.71 minutes
	system time =      17.84 seconds =       0.30 minutes
	total time  =         58 seconds =       0.97 minutes
                                     G D M A

                                 by Anthony Stone

                           version 2.2.06, 22 June 2011

               Distributed Multipoles from Gaussian wavefunctions

Starting at 20:9:18 on 28 Apr 2020

Using SCF density matrix from file ./SSI/SSI-007LEU-168HIE-1-dimer.test.5692.fchk

                         Distributed Multipole Analysis

Standard DMA

Positions and radii in angstrom
Multipole moments in atomic units, ea_0^k for rank k

C          x =  1.526143  y = -0.002996  z =  1.774382 angstrom
           Maximum rank =  0   Radius =  0.650 angstrom
                   Q00  =  -0.229760

C          x =  2.428143  y = -0.408996  z =  2.953382 angstrom
           Maximum rank =  0   Radius =  0.650 angstrom
                   Q00  =  -0.237922

H          x =  1.716143  y = -0.650996  z =  0.918382 angstrom
           Maximum rank =  0   Radius =  0.325 angstrom
                   Q00  =   0.087714

H          x =  0.482143  y = -0.105996  z =  2.059382 angstrom
           Maximum rank =  0   Radius =  0.325 angstrom
                   Q00  =   0.068324

H          x =  1.719143  y =  1.033004  z =  1.495382 angstrom
           Maximum rank =  0   Radius =  0.325 angstrom
                   Q00  =   0.074891

H          x =  2.232143  y =  0.298004  z =  3.758382 angstrom
           Maximum rank =  0   Radius =  0.325 angstrom
                   Q00  =   0.071971

H          x =  3.480083  y = -0.322178  z =  2.643732 angstrom
           Maximum rank =  0   Radius =  0.325 angstrom
                   Q00  =   0.080148

H          x =  2.189103  y = -1.417707  z =  3.321302 angstrom
           Maximum rank =  0   Radius =  0.325 angstrom
                   Q00  =   0.079282

C          x =  0.647143  y =  1.502004  z = -1.806618 angstrom
           Maximum rank =  0   Radius =  0.650 angstrom
                   Q00  =  -0.189895

C          x = -1.259857  y =  0.817004  z = -0.226618 angstrom
           Maximum rank =  0   Radius =  0.650 angstrom
                   Q00  =  -0.008619

C          x = -0.318857  y =  0.567004  z = -1.169618 angstrom
           Maximum rank =  0   Radius =  0.650 angstrom
                   Q00  =   0.229288

C          x = -1.269857  y = -1.328996  z = -0.682618 angstrom
           Maximum rank =  0   Radius =  0.650 angstrom
                   Q00  =   0.464102

N          x = -1.838857  y = -0.402996  z =  0.083382 angstrom
           Maximum rank =  0   Radius =  0.650 angstrom
                   Q00  =  -0.480449

N          x = -0.312857  y = -0.786996  z = -1.439618 angstrom
           Maximum rank =  0   Radius =  0.650 angstrom
                   Q00  =  -0.763987

H          x = -1.483857  y =  1.779004  z =  0.218382 angstrom
           Maximum rank =  0   Radius =  0.325 angstrom
                   Q00  =   0.102156

H          x = -2.546857  y = -0.571996  z =  0.801382 angstrom
           Maximum rank =  0   Radius =  0.325 angstrom
                   Q00  =   0.227555

H          x =  1.635143  y =  1.229004  z = -1.434618 angstrom
           Maximum rank =  0   Radius =  0.325 angstrom
                   Q00  =   0.104989

H          x =  0.428143  y =  2.497004  z = -1.433618 angstrom
           Maximum rank =  0   Radius =  0.325 angstrom
                   Q00  =   0.087941

H          x = -1.482857  y = -2.377996  z = -0.626618 angstrom
           Maximum rank =  0   Radius =  0.325 angstrom
                   Q00  =   0.119854

H          x =  0.657263  y =  1.511405  z = -2.906528 angstrom
           Maximum rank =  0   Radius =  0.325 angstrom
                   Q00  =   0.112415

Total multipoles referred to origin at
           x =   0.000000,  y =    0.000000,  z =    0.000000 angstrom
                   Q00  =  -0.000000

Finished at 20:9:18 on 28 Apr 2020

  DMA results are available in the Python driver through the
	  variable('DMA DISTRIBUTED MULTIPOLES')
  and
	  variable('DMA TOTAL MULTIPOLES')
  commands.

    Psi4 stopped on: Tuesday, 28 April 2020 08:09PM
    Psi4 wall time for execution: 0:00:58.62

*** Psi4 exiting successfully. Buy a developer a beer!
