                               Psi4 1.3.2 release

  ==> Input File <==

--------------------------------------------------------------------------
import numpy as np
set {scf_type pk
basis cc-pvdz
d_convergence 10
gdma_switch   0
gdma_limit    0
gdma_origin   [ 0.0,  0.0,  0.0 ]
}
molecule test {
    units Angstrom
    0 1
    --
    0 1
    C               -0.817443965158546     3.132586379186191     1.939142693611263
    O                0.188556034841454     2.176586379186191     1.846142693611263
    H                0.991556034841453     2.474586379186191     2.296142693611263
    H               -1.210443965158547     3.341586379186191     0.945142693611264
    H               -0.417443965158547     4.053586379186192     2.366142693611264
    H               -1.619843965158547     2.744821379186191     2.583962693611264
    C                0.056556034841454     0.081586379186191    -2.667857306388736
    C                0.350556034841453    -0.179413620813809    -0.077857306388736
    C                0.144556034841454    -0.643413620813809    -1.344857306388736
    C               -0.025443965158546    -2.326413620813809     0.071142693611264
    N                0.274556034841453    -1.256413620813809     0.781142693611264
    N               -0.137443965158546    -1.979413620813809    -1.220857306388736
    H                0.647556034841454     0.816586379186191     0.159142693611264
    H                0.355556034841453    -1.220413620813809     1.802142693611263
    H               -0.810443965158546    -0.316413620813809    -3.194857306388736
    H                0.909556034841454    -0.100413620813809    -3.303857306388736
    H               -0.192443965158547    -3.317413620813809     0.474142693611263
    H               -0.083703965158546     1.166066379186191    -2.548564306388736

}
e, wfn = energy('scf', return_wfn=True)
gdma(wfn)
dmavals = variable('DMA DISTRIBUTED MULTIPOLES')
charges = np.array(dmavals)
print(charges)
np.save('SSI-120SER-136HIE-1-dimer.npy', np.array(charges))--------------------------------------------------------------------------

*** tstart() called on ds3
*** at Tue Apr 28 08:50:20 2020

   => Loading Basis Set <=

    Name: CC-PVDZ
    Role: ORBITAL
    Keyword: BASIS
    atoms 1, 7-10    entry C          line   138 file /theoryfs2/ds/metcalf/miniconda2/envs/tf2gpu/share/psi4/basis/cc-pvdz.gbs
    atoms 2          entry O          line   198 file /theoryfs2/ds/metcalf/miniconda2/envs/tf2gpu/share/psi4/basis/cc-pvdz.gbs
    atoms 3-6, 13-18 entry H          line    22 file /theoryfs2/ds/metcalf/miniconda2/envs/tf2gpu/share/psi4/basis/cc-pvdz.gbs
    atoms 11-12      entry N          line   168 file /theoryfs2/ds/metcalf/miniconda2/envs/tf2gpu/share/psi4/basis/cc-pvdz.gbs

         ---------------------------------------------------------
                                   SCF
               by Justin Turney, Rob Parrish, Andy Simmonett
                          and Daniel G. A. Smith
                              RHF Reference
                        1 Threads,    500 MiB Core
         ---------------------------------------------------------

  ==> Geometry <==

    Molecular point group: c1
    Full point group: C1

    Geometry (in Angstrom), charge = 0, multiplicity = 1:

       Center              X                  Y                   Z               Mass
    ------------   -----------------  -----------------  -----------------  -----------------
         C           -0.817443965159     3.132586379186     1.939142693611    12.000000000000
         O            0.188556034841     2.176586379186     1.846142693611    15.994914619570
         H            0.991556034841     2.474586379186     2.296142693611     1.007825032230
         H           -1.210443965159     3.341586379186     0.945142693611     1.007825032230
         H           -0.417443965159     4.053586379186     2.366142693611     1.007825032230
         H           -1.619843965159     2.744821379186     2.583962693611     1.007825032230
         C            0.056556034841     0.081586379186    -2.667857306389    12.000000000000
         C            0.350556034841    -0.179413620814    -0.077857306389    12.000000000000
         C            0.144556034841    -0.643413620814    -1.344857306389    12.000000000000
         C           -0.025443965159    -2.326413620814     0.071142693611    12.000000000000
         N            0.274556034841    -1.256413620814     0.781142693611    14.003074004430
         N           -0.137443965159    -1.979413620814    -1.220857306389    14.003074004430
         H            0.647556034841     0.816586379186     0.159142693611     1.007825032230
         H            0.355556034841    -1.220413620814     1.802142693611     1.007825032230
         H           -0.810443965159    -0.316413620814    -3.194857306389     1.007825032230
         H            0.909556034841    -0.100413620814    -3.303857306389     1.007825032230
         H           -0.192443965159    -3.317413620814     0.474142693611     1.007825032230
         H           -0.083703965159     1.166066379186    -2.548564306389     1.007825032230

  Running in c1 symmetry.

  Rotational constants: A =      0.10131  B =      0.03052  C =      0.02456 [cm^-1]
  Rotational constants: A =   3037.18858  B =    915.10451  C =    736.31939 [MHz]
  Nuclear repulsion =  355.125372944057915

  Charge       = 0
  Multiplicity = 1
  Electrons    = 62
  Nalpha       = 31
  Nbeta        = 31

  ==> Algorithm <==

  SCF Algorithm Type is PK.
  DIIS enabled.
  MOM disabled.
  Fractional occupation disabled.
  Guess Type is SAD.
  Energy threshold   = 1.00e-06
  Density threshold  = 1.00e-10
  Integral threshold = 0.00e+00

  ==> Primary Basis <==

  Basis Set: CC-PVDZ
    Blend: CC-PVDZ
    Number of shells: 78
    Number of basis function: 162
    Number of Cartesian functions: 170
    Spherical Harmonics?: true
    Max angular momentum: 2

  ==> Pre-Iterations <==

   -------------------------------------------------------
    Irrep   Nso     Nmo     Nalpha   Nbeta   Ndocc  Nsocc
   -------------------------------------------------------
     A        162     162       0       0       0       0
   -------------------------------------------------------
    Total     162     162      31      31      31       0
   -------------------------------------------------------

  ==> Integral Setup <==

  Using integral reordering PK algorithm.
  Sizing the integral batches needed.
  Building batch lookup table.
   Calculation information:
      Number of atoms:                  18
      Number of AO shells:              78
      Number of primitives:            226
      Number of atomic orbitals:       170
      Number of basis functions:       162

      Integral cutoff                 1.00e-12
      Number of threads:                 1

	Batch   1 pq = [       0,    9405] index = [             0,44231715] size =     44231715
	Batch   2 pq = [    9405,   13203] index = [      44231715,87166206] size =     42934491
  Task number: 8
  Buffer size: 11059200
  Buffer per thread: 2
  We computed 3801499 shell quartets total.
  Whereas there are 4747821 unique shell quartets.

  ==> DiskJK: Disk-Based J/K Matrices <==

    J tasked:                  Yes
    K tasked:                  Yes
    wK tasked:                  No
    Memory [MiB]:              375
    Schwarz Cutoff:          1E-12

    OpenMP threads:              1

  Minimum eigenvalue in the overlap matrix is 1.2087967550E-03.
  Using Symmetric Orthogonalization.

  SCF Guess: Superposition of Atomic Densities via on-the-fly atomic UHF.

  ==> Iterations <==

                        Total Energy        Delta E     RMS |[F,P]|

   @RHF iter SAD:  -377.97693303353321   -3.77977e+02   0.00000e+00
   @RHF iter   1:  -378.71588790466853   -7.38955e-01   3.58271e-03 DIIS
   @RHF iter   2:  -378.87243778791071   -1.56550e-01   1.90638e-03 DIIS
   @RHF iter   3:  -378.91273505505058   -4.02973e-02   4.34904e-04 DIIS
   @RHF iter   4:  -378.91581027980101   -3.07522e-03   1.72915e-04 DIIS
   @RHF iter   5:  -378.91624950852867   -4.39229e-04   3.67161e-05 DIIS
   @RHF iter   6:  -378.91627696591866   -2.74574e-05   1.42980e-05 DIIS
   @RHF iter   7:  -378.91628225795586   -5.29204e-06   5.09769e-06 DIIS
   @RHF iter   8:  -378.91628345054386   -1.19259e-06   1.98591e-06 DIIS
   @RHF iter   9:  -378.91628368414428   -2.33600e-07   7.32829e-07 DIIS
   @RHF iter  10:  -378.91628370456908   -2.04248e-08   2.51118e-07 DIIS
   @RHF iter  11:  -378.91628370774453   -3.17544e-09   8.05806e-08 DIIS
   @RHF iter  12:  -378.91628370800964   -2.65118e-10   3.28694e-08 DIIS
   @RHF iter  13:  -378.91628370804983   -4.01883e-11   1.09850e-08 DIIS
   @RHF iter  14:  -378.91628370805489   -5.05906e-12   3.55354e-09 DIIS
   @RHF iter  15:  -378.91628370805324    1.64846e-12   1.63664e-09 DIIS
   @RHF iter  16:  -378.91628370805421   -9.66338e-13   4.68292e-10 DIIS
   @RHF iter  17:  -378.91628370805273    1.47793e-12   1.88788e-10 DIIS
   @RHF iter  18:  -378.91628370805506   -2.33058e-12   6.24311e-11 DIIS
  Energy and wave function converged.

  ==> Post-Iterations <==

    Orbital Energies [Eh]
    ---------------------

    Doubly Occupied:

       1A    -20.564815     2A    -15.608686     3A    -15.513282
       4A    -11.284340     5A    -11.277795     6A    -11.226699
       7A    -11.225239     8A    -11.213625     9A     -1.374778
      10A     -1.325915    11A     -1.138217    12A     -1.010230
      13A     -0.932853    14A     -0.928192    15A     -0.802997
      16A     -0.744886    17A     -0.728400    18A     -0.703398
      19A     -0.633293    20A     -0.614202    21A     -0.593469
      22A     -0.588937    23A     -0.572889    24A     -0.540992
      25A     -0.527677    26A     -0.511633    27A     -0.500649
      28A     -0.452533    29A     -0.393083    30A     -0.363631
      31A     -0.290052

    Virtual:

      32A      0.162715    33A      0.188460    34A      0.200991
      35A      0.207795    36A      0.218890    37A      0.237057
      38A      0.242698    39A      0.250922    40A      0.264263
      41A      0.290183    42A      0.307012    43A      0.335030
      44A      0.362527    45A      0.396606    46A      0.412246
      47A      0.425484    48A      0.489512    49A      0.505920
      50A      0.609840    51A      0.612505    52A      0.626969
      53A      0.631564    54A      0.671005    55A      0.675285
      56A      0.706583    57A      0.718503    58A      0.727626
      59A      0.766817    60A      0.788057    61A      0.795030
      62A      0.813606    63A      0.828390    64A      0.847492
      65A      0.850063    66A      0.869759    67A      0.878265
      68A      0.892383    69A      0.904935    70A      0.914459
      71A      0.937522    72A      0.947840    73A      0.973663
      74A      0.987178    75A      1.036674    76A      1.061497
      77A      1.072398    78A      1.112927    79A      1.128145
      80A      1.138647    81A      1.160969    82A      1.174859
      83A      1.179240    84A      1.191778    85A      1.238820
      86A      1.276349    87A      1.314217    88A      1.319860
      89A      1.330306    90A      1.362766    91A      1.393697
      92A      1.431817    93A      1.463469    94A      1.503009
      95A      1.532765    96A      1.554380    97A      1.597896
      98A      1.611712    99A      1.631377   100A      1.659882
     101A      1.669753   102A      1.704188   103A      1.711780
     104A      1.723508   105A      1.786436   106A      1.829921
     107A      1.844357   108A      1.854119   109A      1.872372
     110A      1.894628   111A      1.916086   112A      1.931323
     113A      1.938101   114A      1.941804   115A      1.953027
     116A      1.974133   117A      1.980409   118A      2.006609
     119A      2.029672   120A      2.062735   121A      2.077582
     122A      2.096958   123A      2.122655   124A      2.164994
     125A      2.204082   126A      2.224609   127A      2.257419
     128A      2.313724   129A      2.340757   130A      2.369757
     131A      2.374987   132A      2.397645   133A      2.413767
     134A      2.457134   135A      2.467732   136A      2.468433
     137A      2.486459   138A      2.567933   139A      2.626982
     140A      2.713219   141A      2.725897   142A      2.729263
     143A      2.758574   144A      2.771210   145A      2.784185
     146A      2.796102   147A      2.805075   148A      2.841007
     149A      2.898128   150A      2.919927   151A      2.945184
     152A      2.983991   153A      3.090020   154A      3.176226
     155A      3.252769   156A      3.294188   157A      3.395927
     158A      3.444783   159A      3.485463   160A      3.619196
     161A      3.796869   162A      4.076409

    Final Occupation by Irrep:
              A
    DOCC [    31 ]

  @RHF Final Energy:  -378.91628370805506

   => Energetics <=

    Nuclear Repulsion Energy =            355.1253729440579150
    One-Electron Energy =               -1219.7085411093396488
    Two-Electron Energy =                 485.6668844572266153
    Total Energy =                       -378.9162837080550617

Computation Completed

Properties will be evaluated at   0.000000,   0.000000,   0.000000 [a0]

Properties computed using the SCF density matrix

  Nuclear Dipole Moment: [e a0]
     X:    -1.3402      Y:     9.0595      Z:     1.4909

  Electronic Dipole Moment: [e a0]
     X:     1.6632      Y:    -7.7937      Z:     0.2940

  Dipole Moment: [e a0]
     X:     0.3231      Y:     1.2658      Z:     1.7850     Total:     2.2119

  Dipole Moment: [D]
     X:     0.8212      Y:     3.2173      Z:     4.5369     Total:     5.6222

*** tstop() called on ds3 at Tue Apr 28 08:51:00 2020
Module time:
	user time   =      27.83 seconds =       0.46 minutes
	system time =      14.20 seconds =       0.24 minutes
	total time  =         40 seconds =       0.67 minutes
Total time:
	user time   =      27.83 seconds =       0.46 minutes
	system time =      14.20 seconds =       0.24 minutes
	total time  =         40 seconds =       0.67 minutes
                                     G D M A

                                 by Anthony Stone

                           version 2.2.06, 22 June 2011

               Distributed Multipoles from Gaussian wavefunctions

Starting at 8:51:0 on 28 Apr 2020

Using SCF density matrix from file ./SSI/SSI-120SER-136HIE-1-dimer.test.16045.fchk

                         Distributed Multipole Analysis

Standard DMA

Positions and radii in angstrom
Multipole moments in atomic units, ea_0^k for rank k

C          x = -0.817444  y =  3.132586  z =  1.939143 angstrom
           Maximum rank =  0   Radius =  0.650 angstrom
                   Q00  =  -0.037616

O          x =  0.188556  y =  2.176586  z =  1.846143 angstrom
           Maximum rank =  0   Radius =  0.650 angstrom
                   Q00  =  -0.588252

H          x =  0.991556  y =  2.474586  z =  2.296143 angstrom
           Maximum rank =  0   Radius =  0.325 angstrom
                   Q00  =   0.396471

H          x = -1.210444  y =  3.341586  z =  0.945143 angstrom
           Maximum rank =  0   Radius =  0.325 angstrom
                   Q00  =   0.094600

H          x = -0.417444  y =  4.053586  z =  2.366143 angstrom
           Maximum rank =  0   Radius =  0.325 angstrom
                   Q00  =   0.068406

H          x = -1.619844  y =  2.744821  z =  2.583963 angstrom
           Maximum rank =  0   Radius =  0.325 angstrom
                   Q00  =   0.083615

C          x =  0.056556  y =  0.081586  z = -2.667857 angstrom
           Maximum rank =  0   Radius =  0.650 angstrom
                   Q00  =  -0.198966

C          x =  0.350556  y = -0.179414  z = -0.077857 angstrom
           Maximum rank =  0   Radius =  0.650 angstrom
                   Q00  =   0.023713

C          x =  0.144556  y = -0.643414  z = -1.344857 angstrom
           Maximum rank =  0   Radius =  0.650 angstrom
                   Q00  =   0.196795

C          x = -0.025444  y = -2.326414  z =  0.071143 angstrom
           Maximum rank =  0   Radius =  0.650 angstrom
                   Q00  =   0.448631

N          x =  0.274556  y = -1.256414  z =  0.781143 angstrom
           Maximum rank =  0   Radius =  0.650 angstrom
                   Q00  =  -0.461359

N          x = -0.137444  y = -1.979414  z = -1.220857 angstrom
           Maximum rank =  0   Radius =  0.650 angstrom
                   Q00  =  -0.764591

H          x =  0.647556  y =  0.816586  z =  0.159143 angstrom
           Maximum rank =  0   Radius =  0.325 angstrom
                   Q00  =   0.089945

H          x =  0.355556  y = -1.220414  z =  1.802143 angstrom
           Maximum rank =  0   Radius =  0.325 angstrom
                   Q00  =   0.223896

H          x = -0.810444  y = -0.316414  z = -3.194857 angstrom
           Maximum rank =  0   Radius =  0.325 angstrom
                   Q00  =   0.111798

H          x =  0.909556  y = -0.100414  z = -3.303857 angstrom
           Maximum rank =  0   Radius =  0.325 angstrom
                   Q00  =   0.105843

H          x = -0.192444  y = -3.317414  z =  0.474143 angstrom
           Maximum rank =  0   Radius =  0.325 angstrom
                   Q00  =   0.117401

H          x = -0.083704  y =  1.166066  z = -2.548564 angstrom
           Maximum rank =  0   Radius =  0.325 angstrom
                   Q00  =   0.089671

Total multipoles referred to origin at
           x =   0.000000,  y =    0.000000,  z =    0.000000 angstrom
                   Q00  =  -0.000000

Finished at 8:51:1 on 28 Apr 2020

  DMA results are available in the Python driver through the
	  variable('DMA DISTRIBUTED MULTIPOLES')
  and
	  variable('DMA TOTAL MULTIPOLES')
  commands.

    Psi4 stopped on: Tuesday, 28 April 2020 08:51AM
    Psi4 wall time for execution: 0:00:41.00

*** Psi4 exiting successfully. Buy a developer a beer!
