                               Psi4 1.3.2 release

  ==> Input File <==

--------------------------------------------------------------------------
import numpy as np
set {scf_type pk
basis cc-pvdz
d_convergence 10
gdma_switch   0
gdma_limit    0
gdma_origin   [ 0.0,  0.0,  0.0 ]
}
molecule test {
    units Angstrom
    -1 1
    --
    -1 1
    C                2.071746311961959    -3.533971443847731    -0.017360310756124
    C                3.038746311961959    -2.472971443847731     0.489639689243876
    O                4.178746311961959    -2.788971443847731     0.850639689243876
    O                2.673746311961959    -1.290971443847731     0.508639689243876
    H                2.224746311961959    -3.637971443847731    -1.092360310756124
    H                1.048746311961959    -3.193971443847731     0.139639689243876
    H                2.226256311961959    -4.518814143847731     0.447619689243876
    C                1.200746311961959     2.166028556152269     0.797639689243876
    C                0.399746311961959     0.059028556152269    -0.342360310756124
    C                0.195746311961959     1.277028556152269     0.205639689243876
    C               -1.746253688038041     0.391028556152269    -0.545360310756125
    C               -1.200253688038041     1.557028556152269     0.076639689243876
    C               -3.037253688038041     0.097028556152269    -0.902360310756124
    C               -2.054253688038041     2.611028556152269     0.390639689243876
    C               -3.655253688038041     1.222028556152269    -0.778360310756124
    C               -3.277253688038041     2.479028556152269    -0.099360310756124
    N               -0.733253688038041    -0.470971443847731    -0.762360310756124
    H                1.343746311961959    -0.273971443847731    -0.692360310756124
    H               -0.801253688038041    -1.341971443847731    -1.270360310756125
    H                1.613746311961959     1.700028556152269     1.693639689243875
    H                0.692746311961959     3.083028556152269     1.098639689243876
    H               -3.349253688038041    -0.751971443847731    -1.477360310756124
    H               -1.690253688038041     3.542028556152269     0.800639689243876
    H               -4.070253688038041     1.233028556152269    -1.756360310756124
    H               -3.794253688038041     3.371028556152269    -0.323360310756124
    H                2.003506311961959     2.402523556152269     0.083749689243876

}
e, wfn = energy('scf', return_wfn=True)
gdma(wfn)
dmavals = variable('DMA DISTRIBUTED MULTIPOLES')
charges = np.array(dmavals)
print(charges)
np.save('SSI-086ASP-092TRP-1-dimer.npy', np.array(charges))--------------------------------------------------------------------------

*** tstart() called on ds3
*** at Sun Apr 26 20:41:25 2020

   => Loading Basis Set <=

    Name: CC-PVDZ
    Role: ORBITAL
    Keyword: BASIS
    atoms 1-2, 8-16  entry C          line   138 file /theoryfs2/ds/metcalf/miniconda2/envs/tf2gpu/share/psi4/basis/cc-pvdz.gbs
    atoms 3-4        entry O          line   198 file /theoryfs2/ds/metcalf/miniconda2/envs/tf2gpu/share/psi4/basis/cc-pvdz.gbs
    atoms 5-7, 18-26 entry H          line    22 file /theoryfs2/ds/metcalf/miniconda2/envs/tf2gpu/share/psi4/basis/cc-pvdz.gbs
    atoms 17         entry N          line   168 file /theoryfs2/ds/metcalf/miniconda2/envs/tf2gpu/share/psi4/basis/cc-pvdz.gbs

         ---------------------------------------------------------
                                   SCF
               by Justin Turney, Rob Parrish, Andy Simmonett
                          and Daniel G. A. Smith
                              RHF Reference
                        1 Threads,    500 MiB Core
         ---------------------------------------------------------

  ==> Geometry <==

    Molecular point group: c1
    Full point group: C1

    Geometry (in Angstrom), charge = -1, multiplicity = 1:

       Center              X                  Y                   Z               Mass
    ------------   -----------------  -----------------  -----------------  -----------------
         C            2.071746311962    -3.533971443848    -0.017360310756    12.000000000000
         C            3.038746311962    -2.472971443848     0.489639689244    12.000000000000
         O            4.178746311962    -2.788971443848     0.850639689244    15.994914619570
         O            2.673746311962    -1.290971443848     0.508639689244    15.994914619570
         H            2.224746311962    -3.637971443848    -1.092360310756     1.007825032230
         H            1.048746311962    -3.193971443848     0.139639689244     1.007825032230
         H            2.226256311962    -4.518814143848     0.447619689244     1.007825032230
         C            1.200746311962     2.166028556152     0.797639689244    12.000000000000
         C            0.399746311962     0.059028556152    -0.342360310756    12.000000000000
         C            0.195746311962     1.277028556152     0.205639689244    12.000000000000
         C           -1.746253688038     0.391028556152    -0.545360310756    12.000000000000
         C           -1.200253688038     1.557028556152     0.076639689244    12.000000000000
         C           -3.037253688038     0.097028556152    -0.902360310756    12.000000000000
         C           -2.054253688038     2.611028556152     0.390639689244    12.000000000000
         C           -3.655253688038     1.222028556152    -0.778360310756    12.000000000000
         C           -3.277253688038     2.479028556152    -0.099360310756    12.000000000000
         N           -0.733253688038    -0.470971443848    -0.762360310756    14.003074004430
         H            1.343746311962    -0.273971443848    -0.692360310756     1.007825032230
         H           -0.801253688038    -1.341971443848    -1.270360310756     1.007825032230
         H            1.613746311962     1.700028556152     1.693639689244     1.007825032230
         H            0.692746311962     3.083028556152     1.098639689244     1.007825032230
         H           -3.349253688038    -0.751971443848    -1.477360310756     1.007825032230
         H           -1.690253688038     3.542028556152     0.800639689244     1.007825032230
         H           -4.070253688038     1.233028556152    -1.756360310756     1.007825032230
         H           -3.794253688038     3.371028556152    -0.323360310756     1.007825032230
         H            2.003506311962     2.402523556152     0.083749689244     1.007825032230

  Running in c1 symmetry.

  Rotational constants: A =      0.05420  B =      0.01004  C =      0.00860 [cm^-1]
  Rotational constants: A =   1625.02274  B =    301.12818  C =    257.80944 [MHz]
  Nuclear repulsion =  817.262314325191483

  Charge       = -1
  Multiplicity = 1
  Electrons    = 102
  Nalpha       = 51
  Nbeta        = 51

  ==> Algorithm <==

  SCF Algorithm Type is PK.
  DIIS enabled.
  MOM disabled.
  Fractional occupation disabled.
  Guess Type is SAD.
  Energy threshold   = 1.00e-06
  Density threshold  = 1.00e-10
  Integral threshold = 0.00e+00

  ==> Primary Basis <==

  Basis Set: CC-PVDZ
    Blend: CC-PVDZ
    Number of shells: 120
    Number of basis function: 256
    Number of Cartesian functions: 270
    Spherical Harmonics?: true
    Max angular momentum: 2

  ==> Pre-Iterations <==

   -------------------------------------------------------
    Irrep   Nso     Nmo     Nalpha   Nbeta   Ndocc  Nsocc
   -------------------------------------------------------
     A        256     256       0       0       0       0
   -------------------------------------------------------
    Total     256     256      51      51      51       0
   -------------------------------------------------------

  ==> Integral Setup <==

  Using integral reordering PK algorithm.
  Sizing the integral batches needed.
  Building batch lookup table.
   Calculation information:
      Number of atoms:                  26
      Number of AO shells:             120
      Number of primitives:            368
      Number of atomic orbitals:       270
      Number of basis functions:       256

      Integral cutoff                 1.00e-12
      Number of threads:                 1

	Batch   1 pq = [       0,    9405] index = [             0,44231715] size =     44231715
	Batch   2 pq = [    9405,   13301] index = [      44231715,88464951] size =     44233236
	Batch   3 pq = [   13301,   16290] index = [      88464951,132690195] size =     44225244
	Batch   4 pq = [   16290,   18810] index = [     132690195,176917455] size =     44227260
	Batch   5 pq = [   18810,   21030] index = [     176917455,221140965] size =     44223510
	Batch   6 pq = [   21030,   23037] index = [     221140965,265363203] size =     44222238
	Batch   7 pq = [   23037,   24883] index = [     265363203,309594286] size =     44231083
	Batch   8 pq = [   24883,   26601] index = [     309594286,353819901] size =     44225615
	Batch   9 pq = [   26601,   28214] index = [     353819901,398029005] size =     44209104
	Batch  10 pq = [   28214,   29740] index = [     398029005,442248670] size =     44219665
	Batch  11 pq = [   29740,   31191] index = [     442248670,486454836] size =     44206166
	Batch  12 pq = [   31191,   32578] index = [     486454836,530679331] size =     44224495
	Batch  13 pq = [   32578,   32896] index = [     530679331,541089856] size =     10410525
  Task number: 49
  Buffer size: 11059200
  Buffer per thread: 2
  We computed 23708870 shell quartets total.
  Whereas there are 26357430 unique shell quartets.

  ==> DiskJK: Disk-Based J/K Matrices <==

    J tasked:                  Yes
    K tasked:                  Yes
    wK tasked:                  No
    Memory [MiB]:              375
    Schwarz Cutoff:          1E-12

    OpenMP threads:              1

  Minimum eigenvalue in the overlap matrix is 2.6510295709E-04.
  Using Symmetric Orthogonalization.

  SCF Guess: Superposition of Atomic Densities via on-the-fly atomic UHF.

  ==> Iterations <==

                        Total Energy        Delta E     RMS |[F,P]|

   @RHF iter SAD:  -627.27244612493348   -6.27272e+02   0.00000e+00
   @RHF iter   1:  -627.26368179495910    8.76433e-03   3.31459e-03 DIIS
   @RHF iter   2:  -627.57855242181222   -3.14871e-01   1.75174e-03 DIIS
   @RHF iter   3:  -627.65804761484492   -7.94952e-02   3.25892e-04 DIIS
   @RHF iter   4:  -627.66252088852514   -4.47327e-03   1.23018e-04 DIIS
   @RHF iter   5:  -627.66318007315817   -6.59185e-04   2.54689e-05 DIIS
   @RHF iter   6:  -627.66321789392248   -3.78208e-05   1.24869e-05 DIIS
   @RHF iter   7:  -627.66322736435791   -9.47044e-06   3.53812e-06 DIIS
   @RHF iter   8:  -627.66322900886269   -1.64450e-06   1.27626e-06 DIIS
   @RHF iter   9:  -627.66322922784093   -2.18978e-07   4.89687e-07 DIIS
   @RHF iter  10:  -627.66322925110728   -2.32664e-08   1.43117e-07 DIIS
   @RHF iter  11:  -627.66322925364955   -2.54227e-09   5.23824e-08 DIIS
   @RHF iter  12:  -627.66322925409986   -4.50314e-10   3.29579e-08 DIIS
   @RHF iter  13:  -627.66322925426039   -1.60526e-10   1.41512e-08 DIIS
   @RHF iter  14:  -627.66322925430552   -4.51337e-11   6.19832e-09 DIIS
   @RHF iter  15:  -627.66322925430893   -3.41061e-12   2.48883e-09 DIIS
   @RHF iter  16:  -627.66322925431155   -2.61480e-12   9.32404e-10 DIIS
   @RHF iter  17:  -627.66322925430950    2.04636e-12   4.70655e-10 DIIS
   @RHF iter  18:  -627.66322925431155   -2.04636e-12   1.54520e-10 DIIS
   @RHF iter  19:  -627.66322925430836    3.18323e-12   6.99725e-11 DIIS
  Energy and wave function converged.

  ==> Post-Iterations <==

    Orbital Energies [Eh]
    ---------------------

    Doubly Occupied:

       1A    -20.271072     2A    -20.265619     3A    -15.486454
       4A    -11.154485     5A    -11.134623     6A    -11.133571
       7A    -11.125950     8A    -11.125888     9A    -11.119461
      10A    -11.117424    11A    -11.115742    12A    -11.106201
      13A    -11.084514    14A    -11.066775    15A     -1.207697
      16A     -1.173125    17A     -1.058767    18A     -1.051534
      19A     -0.985019    20A     -0.928379    21A     -0.872917
      22A     -0.822872    23A     -0.813452    24A     -0.735879
      25A     -0.702998    26A     -0.657958    27A     -0.626933
      28A     -0.564314    29A     -0.538900    30A     -0.528830
      31A     -0.513278    32A     -0.509466    33A     -0.482695
      34A     -0.452564    35A     -0.446430    36A     -0.433837
      37A     -0.427173    38A     -0.424708    39A     -0.419599
      40A     -0.413582    41A     -0.399284    42A     -0.372079
      43A     -0.356777    44A     -0.337308    45A     -0.321833
      46A     -0.273259    47A     -0.200164    48A     -0.195359
      49A     -0.181139    50A     -0.173575    51A     -0.147118

    Virtual:

      52A      0.227230    53A      0.253249    54A      0.267449
      55A      0.282305    56A      0.299990    57A      0.319139
      58A      0.327732    59A      0.343139    60A      0.353632
      61A      0.362763    62A      0.384308    63A      0.409857
      64A      0.412245    65A      0.418114    66A      0.448954
      67A      0.460809    68A      0.477936    69A      0.498649
      70A      0.504819    71A      0.528003    72A      0.550161
      73A      0.563004    74A      0.576049    75A      0.599271
      76A      0.605513    77A      0.635026    78A      0.685567
      79A      0.697658    80A      0.707666    81A      0.735393
      82A      0.743473    83A      0.755975    84A      0.768878
      85A      0.785573    86A      0.792317    87A      0.807438
      88A      0.808626    89A      0.816558    90A      0.819848
      91A      0.841017    92A      0.844897    93A      0.856413
      94A      0.859513    95A      0.880828    96A      0.890289
      97A      0.897046    98A      0.906463    99A      0.913912
     100A      0.921490   101A      0.931490   102A      0.954481
     103A      0.958699   104A      0.971860   105A      0.990757
     106A      0.994179   107A      0.997183   108A      1.012896
     109A      1.020557   110A      1.028986   111A      1.030249
     112A      1.042716   113A      1.051753   114A      1.055375
     115A      1.066014   116A      1.076619   117A      1.093181
     118A      1.107582   119A      1.127184   120A      1.140118
     121A      1.149664   122A      1.163134   123A      1.191809
     124A      1.199691   125A      1.205135   126A      1.243350
     127A      1.248587   128A      1.252709   129A      1.272576
     130A      1.284457   131A      1.300368   132A      1.313062
     133A      1.324086   134A      1.339844   135A      1.347600
     136A      1.362901   137A      1.394531   138A      1.413270
     139A      1.437388   140A      1.463657   141A      1.474253
     142A      1.491396   143A      1.498993   144A      1.505952
     145A      1.540277   146A      1.552191   147A      1.573821
     148A      1.588868   149A      1.610370   150A      1.639541
     151A      1.653566   152A      1.663895   153A      1.675852
     154A      1.695791   155A      1.713690   156A      1.721530
     157A      1.741152   158A      1.745699   159A      1.757883
     160A      1.781436   161A      1.797926   162A      1.817004
     163A      1.824910   164A      1.826896   165A      1.840770
     166A      1.855418   167A      1.875912   168A      1.910834
     169A      1.913722   170A      1.937384   171A      1.956405
     172A      1.972486   173A      1.980021   174A      1.998139
     175A      2.004656   176A      2.010581   177A      2.042326
     178A      2.051745   179A      2.057064   180A      2.062623
     181A      2.081405   182A      2.089182   183A      2.102608
     184A      2.111145   185A      2.126413   186A      2.145028
     187A      2.151649   188A      2.172330   189A      2.185663
     190A      2.189321   191A      2.200939   192A      2.208031
     193A      2.224493   194A      2.233245   195A      2.272229
     196A      2.278098   197A      2.314695   198A      2.329545
     199A      2.336225   200A      2.343501   201A      2.358748
     202A      2.365896   203A      2.405169   204A      2.408635
     205A      2.417735   206A      2.428181   207A      2.455757
     208A      2.471492   209A      2.493052   210A      2.534134
     211A      2.538676   212A      2.547557   213A      2.567167
     214A      2.591659   215A      2.650348   216A      2.667094
     217A      2.670909   218A      2.692713   219A      2.698040
     220A      2.735116   221A      2.757434   222A      2.778298
     223A      2.793305   224A      2.823252   225A      2.837793
     226A      2.882300   227A      2.897188   228A      2.904648
     229A      2.907025   230A      2.937702   231A      2.952246
     232A      2.961005   233A      2.969669   234A      2.980247
     235A      2.995635   236A      3.048136   237A      3.086439
     238A      3.131969   239A      3.177961   240A      3.198180
     241A      3.232985   242A      3.252299   243A      3.281101
     244A      3.284702   245A      3.318728   246A      3.366163
     247A      3.398837   248A      3.552215   249A      3.651797
     250A      3.768249   251A      3.827134   252A      3.864885
     253A      3.922397   254A      4.076262   255A      4.118565
     256A      4.221973

    Final Occupation by Irrep:
              A
    DOCC [    51 ]

  @RHF Final Energy:  -627.66322925430836

   => Energetics <=

    Nuclear Repulsion Energy =            817.2623143251914826
    One-Electron Energy =               -2491.7339314804735295
    Two-Electron Energy =                1046.8083879009736847
    Total Energy =                       -627.6632292543083622

Computation Completed

Properties will be evaluated at   0.000000,   0.000000,   0.000000 [a0]

Properties computed using the SCF density matrix

  Nuclear Dipole Moment: [e a0]
     X:    -2.3572      Y:     1.4939      Z:    -2.1927

  Electronic Dipole Moment: [e a0]
     X:    -2.3982      Y:     0.7032      Z:     0.3014

  Dipole Moment: [e a0]
     X:    -4.7554      Y:     2.1971      Z:    -1.8912     Total:     5.5693

  Dipole Moment: [D]
     X:   -12.0870      Y:     5.5844      Z:    -4.8070     Total:    14.1559

*** tstop() called on ds3 at Sun Apr 26 20:47:10 2020
Module time:
	user time   =     256.13 seconds =       4.27 minutes
	system time =     101.69 seconds =       1.69 minutes
	total time  =        345 seconds =       5.75 minutes
Total time:
	user time   =     256.13 seconds =       4.27 minutes
	system time =     101.69 seconds =       1.69 minutes
	total time  =        345 seconds =       5.75 minutes
                                     G D M A

                                 by Anthony Stone

                           version 2.2.06, 22 June 2011

               Distributed Multipoles from Gaussian wavefunctions

Starting at 20:47:10 on 26 Apr 2020

Using SCF density matrix from file ./SSI/SSI-086ASP-092TRP-1-dimer.test.9824.fchk

                         Distributed Multipole Analysis

Standard DMA

Positions and radii in angstrom
Multipole moments in atomic units, ea_0^k for rank k

C          x =  2.071746  y = -3.533971  z = -0.017360 angstrom
           Maximum rank =  0   Radius =  0.650 angstrom
                   Q00  =  -0.294459

C          x =  3.038746  y = -2.472971  z =  0.489640 angstrom
           Maximum rank =  0   Radius =  0.650 angstrom
                   Q00  =   0.976201

O          x =  4.178746  y = -2.788971  z =  0.850640 angstrom
           Maximum rank =  0   Radius =  0.650 angstrom
                   Q00  =  -0.917481

O          x =  2.673746  y = -1.290971  z =  0.508640 angstrom
           Maximum rank =  0   Radius =  0.650 angstrom
                   Q00  =  -0.912527

H          x =  2.224746  y = -3.637971  z = -1.092360 angstrom
           Maximum rank =  0   Radius =  0.325 angstrom
                   Q00  =   0.076306

H          x =  1.048746  y = -3.193971  z =  0.139640 angstrom
           Maximum rank =  0   Radius =  0.325 angstrom
                   Q00  =   0.048166

H          x =  2.226256  y = -4.518814  z =  0.447620 angstrom
           Maximum rank =  0   Radius =  0.325 angstrom
                   Q00  =   0.067042

C          x =  1.200746  y =  2.166029  z =  0.797640 angstrom
           Maximum rank =  0   Radius =  0.650 angstrom
                   Q00  =  -0.203164

C          x =  0.399746  y =  0.059029  z = -0.342360 angstrom
           Maximum rank =  0   Radius =  0.650 angstrom
                   Q00  =   0.154235

C          x =  0.195746  y =  1.277029  z =  0.205640 angstrom
           Maximum rank =  0   Radius =  0.650 angstrom
                   Q00  =  -0.185130

C          x = -1.746254  y =  0.391029  z = -0.545360 angstrom
           Maximum rank =  0   Radius =  0.650 angstrom
                   Q00  =   0.179055

C          x = -1.200254  y =  1.557029  z =  0.076640 angstrom
           Maximum rank =  0   Radius =  0.650 angstrom
                   Q00  =  -0.062103

C          x = -3.037254  y =  0.097029  z = -0.902360 angstrom
           Maximum rank =  0   Radius =  0.650 angstrom
                   Q00  =   0.056486

C          x = -2.054254  y =  2.611029  z =  0.390640 angstrom
           Maximum rank =  0   Radius =  0.650 angstrom
                   Q00  =  -0.052932

C          x = -3.655254  y =  1.222029  z = -0.778360 angstrom
           Maximum rank =  0   Radius =  0.650 angstrom
                   Q00  =  -0.155333

C          x = -3.277254  y =  2.479029  z = -0.099360 angstrom
           Maximum rank =  0   Radius =  0.650 angstrom
                   Q00  =  -0.157646

N          x = -0.733254  y = -0.470971  z = -0.762360 angstrom
           Maximum rank =  0   Radius =  0.650 angstrom
                   Q00  =  -0.410101

H          x =  1.343746  y = -0.273971  z = -0.692360 angstrom
           Maximum rank =  0   Radius =  0.325 angstrom
                   Q00  =   0.092832

H          x = -0.801254  y = -1.341971  z = -1.270360 angstrom
           Maximum rank =  0   Radius =  0.325 angstrom
                   Q00  =   0.205114

H          x =  1.613746  y =  1.700029  z =  1.693640 angstrom
           Maximum rank =  0   Radius =  0.325 angstrom
                   Q00  =   0.121877

H          x =  0.692746  y =  3.083029  z =  1.098640 angstrom
           Maximum rank =  0   Radius =  0.325 angstrom
                   Q00  =   0.059180

H          x = -3.349254  y = -0.751971  z = -1.477360 angstrom
           Maximum rank =  0   Radius =  0.325 angstrom
                   Q00  =   0.060418

H          x = -1.690254  y =  3.542029  z =  0.800640 angstrom
           Maximum rank =  0   Radius =  0.325 angstrom
                   Q00  =   0.062434

H          x = -4.070254  y =  1.233029  z = -1.756360 angstrom
           Maximum rank =  0   Radius =  0.325 angstrom
                   Q00  =   0.040962

H          x = -3.794254  y =  3.371029  z = -0.323360 angstrom
           Maximum rank =  0   Radius =  0.325 angstrom
                   Q00  =   0.052871

H          x =  2.003506  y =  2.402524  z =  0.083750 angstrom
           Maximum rank =  0   Radius =  0.325 angstrom
                   Q00  =   0.097697

Total multipoles referred to origin at
           x =   0.000000,  y =    0.000000,  z =    0.000000 angstrom
                   Q00  =  -1.000000

Finished at 20:47:10 on 26 Apr 2020

  DMA results are available in the Python driver through the
	  variable('DMA DISTRIBUTED MULTIPOLES')
  and
	  variable('DMA TOTAL MULTIPOLES')
  commands.

    Psi4 stopped on: Sunday, 26 April 2020 08:47PM
    Psi4 wall time for execution: 0:05:45.16

*** Psi4 exiting successfully. Buy a developer a beer!
