                               Psi4 1.3.2 release

  ==> Input File <==

--------------------------------------------------------------------------
import numpy as np
set {scf_type pk
basis cc-pvdz
d_convergence 10
gdma_switch   0
gdma_limit    0
gdma_origin   [ 0.0,  0.0,  0.0 ]
}
molecule test {
    units Angstrom
    0 1
    --
    0 1
    C                1.829033013961369     0.512225956944480     3.025831049263822
    C                2.938033013961369     0.175225956944480     4.010831049263822
    H                1.595033013961369     1.574225956944480     3.069831049263821
    H                2.167033013961368     0.281225956944480     2.014831049263822
    H                0.938033013961369    -0.078774043055520     3.243831049263822
    H                3.763033013961369     0.855225956944480     3.832831049263821
    H                3.301033013961369    -0.813774043055520     3.760831049263822
    H                2.626943013961369     0.213215956944480     5.065241049263822
    C               -0.113966986038631     2.019225956944480     0.467831049263821
    C               -1.245966986038631     3.022225956944480     0.241831049263821
    C               -0.294966986038631     0.725225956944480    -0.287168950736179
    C                0.224033013961369     0.565225956944480    -1.573168950736179
    C               -1.009966986038631    -0.332774043055520     0.286831049263821
    C                0.033033013961369    -0.628774043055520    -2.279168950736179
    C               -1.203966986038631    -1.529774043055520    -0.408168950736179
    C               -0.680966986038631    -1.675774043055520    -1.691168950736179
    O               -0.867966986038631    -2.848774043055520    -2.362168950736179
    H                0.850033013961369     2.468225956944480     0.220831049263821
    H               -0.092966986038631     1.769225956944480     1.526831049263821
    H               -2.166966986038631     2.466225956944480     0.050831049263821
    H                0.774033013961369     1.369225956944480    -2.025168950736179
    H               -1.417966986038631    -0.225774043055520     1.283831049263821
    H                0.445033013961369    -0.751774043055520    -3.267168950736179
    H               -1.751966986038631    -2.344774043055520     0.041831049263821
    H               -0.475966986038631    -2.829774043055520    -3.242168950736179
    H               -1.025176986038631     3.684595956944480    -0.608176950736179
    H               -1.401696986038631     3.613995956944480     1.155920049263821

}
e, wfn = energy('scf', return_wfn=True)
gdma(wfn)
dmavals = variable('DMA DISTRIBUTED MULTIPOLES')
charges = np.array(dmavals)
print(charges)
np.save('SSI-011ILE-038TYR-1-dimer.npy', np.array(charges))--------------------------------------------------------------------------

*** tstart() called on ds3
*** at Tue Apr 28 20:16:42 2020

   => Loading Basis Set <=

    Name: CC-PVDZ
    Role: ORBITAL
    Keyword: BASIS
    atoms 1-2, 9-16  entry C          line   138 file /theoryfs2/ds/metcalf/miniconda2/envs/tf2gpu/share/psi4/basis/cc-pvdz.gbs
    atoms 3-8, 18-27 entry H          line    22 file /theoryfs2/ds/metcalf/miniconda2/envs/tf2gpu/share/psi4/basis/cc-pvdz.gbs
    atoms 17         entry O          line   198 file /theoryfs2/ds/metcalf/miniconda2/envs/tf2gpu/share/psi4/basis/cc-pvdz.gbs

         ---------------------------------------------------------
                                   SCF
               by Justin Turney, Rob Parrish, Andy Simmonett
                          and Daniel G. A. Smith
                              RHF Reference
                        1 Threads,    500 MiB Core
         ---------------------------------------------------------

  ==> Geometry <==

    Molecular point group: c1
    Full point group: C1

    Geometry (in Angstrom), charge = 0, multiplicity = 1:

       Center              X                  Y                   Z               Mass
    ------------   -----------------  -----------------  -----------------  -----------------
         C            1.829033013961     0.512225956944     3.025831049264    12.000000000000
         C            2.938033013961     0.175225956944     4.010831049264    12.000000000000
         H            1.595033013961     1.574225956944     3.069831049264     1.007825032230
         H            2.167033013961     0.281225956944     2.014831049264     1.007825032230
         H            0.938033013961    -0.078774043056     3.243831049264     1.007825032230
         H            3.763033013961     0.855225956944     3.832831049264     1.007825032230
         H            3.301033013961    -0.813774043056     3.760831049264     1.007825032230
         H            2.626943013961     0.213215956944     5.065241049264     1.007825032230
         C           -0.113966986039     2.019225956944     0.467831049264    12.000000000000
         C           -1.245966986039     3.022225956944     0.241831049264    12.000000000000
         C           -0.294966986039     0.725225956944    -0.287168950736    12.000000000000
         C            0.224033013961     0.565225956944    -1.573168950736    12.000000000000
         C           -1.009966986039    -0.332774043056     0.286831049264    12.000000000000
         C            0.033033013961    -0.628774043056    -2.279168950736    12.000000000000
         C           -1.203966986039    -1.529774043056    -0.408168950736    12.000000000000
         C           -0.680966986039    -1.675774043056    -1.691168950736    12.000000000000
         O           -0.867966986039    -2.848774043056    -2.362168950736    15.994914619570
         H            0.850033013961     2.468225956944     0.220831049264     1.007825032230
         H           -0.092966986039     1.769225956944     1.526831049264     1.007825032230
         H           -2.166966986039     2.466225956944     0.050831049264     1.007825032230
         H            0.774033013961     1.369225956944    -2.025168950736     1.007825032230
         H           -1.417966986039    -0.225774043056     1.283831049264     1.007825032230
         H            0.445033013961    -0.751774043056    -3.267168950736     1.007825032230
         H           -1.751966986039    -2.344774043056     0.041831049264     1.007825032230
         H           -0.475966986039    -2.829774043056    -3.242168950736     1.007825032230
         H           -1.025176986039     3.684595956944    -0.608176950736     1.007825032230
         H           -1.401696986039     3.613995956944     1.155920049264     1.007825032230

  Running in c1 symmetry.

  Rotational constants: A =      0.03878  B =      0.01709  C =      0.01350 [cm^-1]
  Rotational constants: A =   1162.68646  B =    512.42120  C =    404.63157 [MHz]
  Nuclear repulsion =  577.094193611302103

  Charge       = 0
  Multiplicity = 1
  Electrons    = 84
  Nalpha       = 42
  Nbeta        = 42

  ==> Algorithm <==

  SCF Algorithm Type is PK.
  DIIS enabled.
  MOM disabled.
  Fractional occupation disabled.
  Guess Type is SAD.
  Energy threshold   = 1.00e-06
  Density threshold  = 1.00e-10
  Integral threshold = 0.00e+00

  ==> Primary Basis <==

  Basis Set: CC-PVDZ
    Blend: CC-PVDZ
    Number of shells: 114
    Number of basis function: 234
    Number of Cartesian functions: 245
    Spherical Harmonics?: true
    Max angular momentum: 2

  ==> Pre-Iterations <==

   -------------------------------------------------------
    Irrep   Nso     Nmo     Nalpha   Nbeta   Ndocc  Nsocc
   -------------------------------------------------------
     A        234     234       0       0       0       0
   -------------------------------------------------------
    Total     234     234      42      42      42       0
   -------------------------------------------------------

  ==> Integral Setup <==

  Using integral reordering PK algorithm.
  Sizing the integral batches needed.
  Building batch lookup table.
   Calculation information:
      Number of atoms:                  27
      Number of AO shells:             114
      Number of primitives:            322
      Number of atomic orbitals:       245
      Number of basis functions:       234

      Integral cutoff                 1.00e-12
      Number of threads:                 1

	Batch   1 pq = [       0,    9405] index = [             0,44231715] size =     44231715
	Batch   2 pq = [    9405,   13301] index = [      44231715,88464951] size =     44233236
	Batch   3 pq = [   13301,   16290] index = [      88464951,132690195] size =     44225244
	Batch   4 pq = [   16290,   18810] index = [     132690195,176917455] size =     44227260
	Batch   5 pq = [   18810,   21030] index = [     176917455,221140965] size =     44223510
	Batch   6 pq = [   21030,   23037] index = [     221140965,265363203] size =     44222238
	Batch   7 pq = [   23037,   24883] index = [     265363203,309594286] size =     44231083
	Batch   8 pq = [   24883,   26601] index = [     309594286,353819901] size =     44225615
	Batch   9 pq = [   26601,   27495] index = [     353819901,378001260] size =     24181359
  Task number: 35
  Buffer size: 11059200
  Buffer per thread: 2
  We computed 19153201 shell quartets total.
  Whereas there are 21487290 unique shell quartets.

  ==> DiskJK: Disk-Based J/K Matrices <==

    J tasked:                  Yes
    K tasked:                  Yes
    wK tasked:                  No
    Memory [MiB]:              375
    Schwarz Cutoff:          1E-12

    OpenMP threads:              1

  Minimum eigenvalue in the overlap matrix is 3.2967852511E-04.
  Using Symmetric Orthogonalization.

  SCF Guess: Superposition of Atomic Densities via on-the-fly atomic UHF.

  ==> Iterations <==

                        Total Energy        Delta E     RMS |[F,P]|

   @RHF iter SAD:  -461.67755443724559   -4.61678e+02   0.00000e+00
   @RHF iter   1:  -462.60570601690563   -9.28152e-01   2.80720e-03 DIIS
   @RHF iter   2:  -462.84537408202493   -2.39668e-01   1.19202e-03 DIIS
   @RHF iter   3:  -462.88473271967251   -3.93586e-02   2.75430e-04 DIIS
   @RHF iter   4:  -462.88802570325174   -3.29298e-03   1.18269e-04 DIIS
   @RHF iter   5:  -462.88847191190052   -4.46209e-04   1.93973e-05 DIIS
   @RHF iter   6:  -462.88849178188690   -1.98700e-05   5.55865e-06 DIIS
   @RHF iter   7:  -462.88849332449888   -1.54261e-06   1.97228e-06 DIIS
   @RHF iter   8:  -462.88849354011791   -2.15619e-07   6.88902e-07 DIIS
   @RHF iter   9:  -462.88849357353433   -3.34164e-08   2.17788e-07 DIIS
   @RHF iter  10:  -462.88849357790906   -4.37473e-09   8.26259e-08 DIIS
   @RHF iter  11:  -462.88849357895987   -1.05081e-09   4.04046e-08 DIIS
   @RHF iter  12:  -462.88849357920844   -2.48576e-10   1.92801e-08 DIIS
   @RHF iter  13:  -462.88849357928120   -7.27596e-11   7.61818e-09 DIIS
   @RHF iter  14:  -462.88849357929178   -1.05729e-11   1.71057e-09 DIIS
   @RHF iter  15:  -462.88849357928859    3.18323e-12   5.75643e-10 DIIS
   @RHF iter  16:  -462.88849357928819    3.97904e-13   1.82333e-10 DIIS
   @RHF iter  17:  -462.88849357928700    1.19371e-12   6.59189e-11 DIIS
  Energy and wave function converged.

  ==> Post-Iterations <==

    Orbital Energies [Eh]
    ---------------------

    Doubly Occupied:

       1A    -20.582737     2A    -11.299653     3A    -11.238860
       4A    -11.238540     5A    -11.233769     6A    -11.230633
       7A    -11.230416     8A    -11.224746     9A    -11.220126
      10A    -11.214180    11A    -11.213574    12A     -1.398388
      13A     -1.148828    14A     -1.056365    15A     -1.019609
      16A     -1.015393    17A     -0.974558    18A     -0.859457
      19A     -0.843129    20A     -0.835091    21A     -0.790143
      22A     -0.730592    23A     -0.668243    24A     -0.646376
      25A     -0.613893    26A     -0.599169    27A     -0.598508
      28A     -0.594287    29A     -0.585469    30A     -0.582444
      31A     -0.566688    32A     -0.547803    33A     -0.518454
      34A     -0.499726    35A     -0.495605    36A     -0.485786
      37A     -0.483162    38A     -0.474874    39A     -0.468930
      40A     -0.461141    41A     -0.336674    42A     -0.300155

    Virtual:

      43A      0.128764    44A      0.152981    45A      0.178573
      46A      0.180457    47A      0.194020    48A      0.207611
      49A      0.216702    50A      0.231314    51A      0.242537
      52A      0.248849    53A      0.255818    54A      0.268284
      55A      0.276958    56A      0.287571    57A      0.294136
      58A      0.298815    59A      0.310712    60A      0.327379
      61A      0.356561    62A      0.384922    63A      0.406061
      64A      0.425312    65A      0.426696    66A      0.473567
      67A      0.487387    68A      0.495176    69A      0.516763
      70A      0.573314    71A      0.596987    72A      0.603320
      73A      0.604981    74A      0.622719    75A      0.646389
      76A      0.655585    77A      0.665471    78A      0.681993
      79A      0.698833    80A      0.701471    81A      0.710533
      82A      0.722752    83A      0.735639    84A      0.743417
      85A      0.746096    86A      0.759311    87A      0.774307
      88A      0.794862    89A      0.812414    90A      0.825834
      91A      0.844510    92A      0.846795    93A      0.855846
      94A      0.874968    95A      0.878942    96A      0.885882
      97A      0.894022    98A      0.895638    99A      0.899573
     100A      0.905397   101A      0.908779   102A      0.915765
     103A      0.922702   104A      0.935051   105A      0.935783
     106A      0.949018   107A      0.957529   108A      0.975318
     109A      0.989664   110A      0.991548   111A      1.015048
     112A      1.018309   113A      1.030710   114A      1.074982
     115A      1.121473   116A      1.130417   117A      1.141019
     118A      1.142253   119A      1.154415   120A      1.170190
     121A      1.192039   122A      1.233372   123A      1.240977
     124A      1.252583   125A      1.266869   126A      1.285437
     127A      1.290424   128A      1.304822   129A      1.310025
     130A      1.346898   131A      1.361139   132A      1.375102
     133A      1.417956   134A      1.462417   135A      1.467392
     136A      1.492367   137A      1.501350   138A      1.510489
     139A      1.542078   140A      1.597073   141A      1.618170
     142A      1.623960   143A      1.637488   144A      1.669485
     145A      1.685293   146A      1.697629   147A      1.698546
     148A      1.727482   149A      1.732501   150A      1.749863
     151A      1.797147   152A      1.830783   153A      1.848533
     154A      1.858425   155A      1.863118   156A      1.875408
     157A      1.880828   158A      1.891592   159A      1.894980
     160A      1.908521   161A      1.915462   162A      1.920622
     163A      1.940727   164A      1.945151   165A      1.949285
     166A      1.952689   167A      1.961658   168A      1.969382
     169A      1.974831   170A      1.980083   171A      1.988408
     172A      1.992084   173A      2.011162   174A      2.028434
     175A      2.047867   176A      2.062648   177A      2.074052
     178A      2.082756   179A      2.087197   180A      2.105370
     181A      2.110293   182A      2.138519   183A      2.147146
     184A      2.153870   185A      2.174119   186A      2.203820
     187A      2.248704   188A      2.261563   189A      2.271670
     190A      2.289693   191A      2.308278   192A      2.328683
     193A      2.345869   194A      2.360977   195A      2.366404
     196A      2.439603   197A      2.448966   198A      2.459534
     199A      2.464278   200A      2.476319   201A      2.483494
     202A      2.494747   203A      2.517694   204A      2.542910
     205A      2.568193   206A      2.588456   207A      2.596521
     208A      2.640888   209A      2.645353   210A      2.758074
     211A      2.772732   212A      2.775613   213A      2.792428
     214A      2.802118   215A      2.813675   216A      2.848514
     217A      2.855717   218A      2.860646   219A      2.872802
     220A      2.908303   221A      2.953108   222A      2.957366
     223A      2.970977   224A      2.987503   225A      3.016366
     226A      3.086411   227A      3.150433   228A      3.247810
     229A      3.283010   230A      3.346425   231A      3.569537
     232A      3.670964   233A      3.963015   234A      4.191263

    Final Occupation by Irrep:
              A
    DOCC [    42 ]

  @RHF Final Energy:  -462.88849357928700

   => Energetics <=

    Nuclear Repulsion Energy =            577.0941936113021029
    One-Electron Energy =               -1771.7130209706504047
    Two-Electron Energy =                 731.7303337800614145
    Total Energy =                       -462.8884935792870010

Computation Completed

Properties will be evaluated at   0.000000,   0.000000,   0.000000 [a0]

Properties computed using the SCF density matrix

  Nuclear Dipole Moment: [e a0]
     X:     7.6151      Y:    10.5335      Z:    15.1051

  Electronic Dipole Moment: [e a0]
     X:    -7.3194      Y:   -10.2050      Z:   -15.4446

  Dipole Moment: [e a0]
     X:     0.2957      Y:     0.3285      Z:    -0.3394     Total:     0.5573

  Dipole Moment: [D]
     X:     0.7517      Y:     0.8350      Z:    -0.8627     Total:     1.4165

*** tstop() called on ds3 at Tue Apr 28 20:19:47 2020
Module time:
	user time   =     137.01 seconds =       2.28 minutes
	system time =      55.20 seconds =       0.92 minutes
	total time  =        185 seconds =       3.08 minutes
Total time:
	user time   =     137.01 seconds =       2.28 minutes
	system time =      55.20 seconds =       0.92 minutes
	total time  =        185 seconds =       3.08 minutes
                                     G D M A

                                 by Anthony Stone

                           version 2.2.06, 22 June 2011

               Distributed Multipoles from Gaussian wavefunctions

Starting at 20:19:47 on 28 Apr 2020

Using SCF density matrix from file ./SSI/SSI-011ILE-038TYR-1-dimer.test.16469.fchk

                         Distributed Multipole Analysis

Standard DMA

Positions and radii in angstrom
Multipole moments in atomic units, ea_0^k for rank k

C          x =  1.829033  y =  0.512226  z =  3.025831 angstrom
           Maximum rank =  0   Radius =  0.650 angstrom
                   Q00  =  -0.237971

C          x =  2.938033  y =  0.175226  z =  4.010831 angstrom
           Maximum rank =  0   Radius =  0.650 angstrom
                   Q00  =  -0.229608

H          x =  1.595033  y =  1.574226  z =  3.069831 angstrom
           Maximum rank =  0   Radius =  0.325 angstrom
                   Q00  =   0.071318

H          x =  2.167033  y =  0.281226  z =  2.014831 angstrom
           Maximum rank =  0   Radius =  0.325 angstrom
                   Q00  =   0.085254

H          x =  0.938033  y = -0.078774  z =  3.243831 angstrom
           Maximum rank =  0   Radius =  0.325 angstrom
                   Q00  =   0.077221

H          x =  3.763033  y =  0.855226  z =  3.832831 angstrom
           Maximum rank =  0   Radius =  0.325 angstrom
                   Q00  =   0.077445

H          x =  3.301033  y = -0.813774  z =  3.760831 angstrom
           Maximum rank =  0   Radius =  0.325 angstrom
                   Q00  =   0.078854

H          x =  2.626943  y =  0.213216  z =  5.065241 angstrom
           Maximum rank =  0   Radius =  0.325 angstrom
                   Q00  =   0.080933

C          x = -0.113967  y =  2.019226  z =  0.467831 angstrom
           Maximum rank =  0   Radius =  0.650 angstrom
                   Q00  =  -0.043464

C          x = -1.245967  y =  3.022226  z =  0.241831 angstrom
           Maximum rank =  0   Radius =  0.650 angstrom
                   Q00  =  -0.232343

C          x = -0.294967  y =  0.725226  z = -0.287169 angstrom
           Maximum rank =  0   Radius =  0.650 angstrom
                   Q00  =  -0.141410

C          x =  0.224033  y =  0.565226  z = -1.573169 angstrom
           Maximum rank =  0   Radius =  0.650 angstrom
                   Q00  =  -0.023690

C          x = -1.009967  y = -0.332774  z =  0.286831 angstrom
           Maximum rank =  0   Radius =  0.650 angstrom
                   Q00  =   0.024417

C          x =  0.033033  y = -0.628774  z = -2.279169 angstrom
           Maximum rank =  0   Radius =  0.650 angstrom
                   Q00  =  -0.200127

C          x = -1.203967  y = -1.529774  z = -0.408169 angstrom
           Maximum rank =  0   Radius =  0.650 angstrom
                   Q00  =  -0.112716

C          x = -0.680967  y = -1.675774  z = -1.691169 angstrom
           Maximum rank =  0   Radius =  0.650 angstrom
                   Q00  =   0.326360

O          x = -0.867967  y = -2.848774  z = -2.362169 angstrom
           Maximum rank =  0   Radius =  0.650 angstrom
                   Q00  =  -0.674703

H          x =  0.850033  y =  2.468226  z =  0.220831 angstrom
           Maximum rank =  0   Radius =  0.325 angstrom
                   Q00  =   0.064043

H          x = -0.092967  y =  1.769226  z =  1.526831 angstrom
           Maximum rank =  0   Radius =  0.325 angstrom
                   Q00  =   0.067668

H          x = -2.166967  y =  2.466226  z =  0.050831 angstrom
           Maximum rank =  0   Radius =  0.325 angstrom
                   Q00  =   0.085899

H          x =  0.774033  y =  1.369226  z = -2.025169 angstrom
           Maximum rank =  0   Radius =  0.325 angstrom
                   Q00  =   0.067510

H          x = -1.417967  y = -0.225774  z =  1.283831 angstrom
           Maximum rank =  0   Radius =  0.325 angstrom
                   Q00  =   0.064716

H          x =  0.445033  y = -0.751774  z = -3.267169 angstrom
           Maximum rank =  0   Radius =  0.325 angstrom
                   Q00  =   0.072080

H          x = -1.751967  y = -2.344774  z =  0.041831 angstrom
           Maximum rank =  0   Radius =  0.325 angstrom
                   Q00  =   0.081355

H          x = -0.475967  y = -2.829774  z = -3.242169 angstrom
           Maximum rank =  0   Radius =  0.325 angstrom
                   Q00  =   0.406226

H          x = -1.025177  y =  3.684596  z = -0.608177 angstrom
           Maximum rank =  0   Radius =  0.325 angstrom
                   Q00  =   0.080527

H          x = -1.401697  y =  3.613996  z =  1.155920 angstrom
           Maximum rank =  0   Radius =  0.325 angstrom
                   Q00  =   0.084207

Total multipoles referred to origin at
           x =   0.000000,  y =    0.000000,  z =    0.000000 angstrom
                   Q00  =  -0.000000

Finished at 20:19:47 on 28 Apr 2020

  DMA results are available in the Python driver through the
	  variable('DMA DISTRIBUTED MULTIPOLES')
  and
	  variable('DMA TOTAL MULTIPOLES')
  commands.

    Psi4 stopped on: Tuesday, 28 April 2020 08:19PM
    Psi4 wall time for execution: 0:03:05.37

*** Psi4 exiting successfully. Buy a developer a beer!
