                               Psi4 1.3.2 release

  ==> Input File <==

--------------------------------------------------------------------------
import numpy as np
set {scf_type pk
basis cc-pvdz
d_convergence 10
gdma_switch   0
gdma_limit    0
gdma_origin   [ 0.0,  0.0,  0.0 ]
}
molecule test {
    units Angstrom
    0 1
    --
    0 1
    C               -1.332432282699781    -1.777131949607468    -0.300047964594969
    C               -0.741432282699781    -2.064131949607468     1.070952035405030
    H               -1.359432282699781    -0.714131949607468    -0.524047964594969
    H               -0.727432282699781    -2.274131949607468    -1.059047964594969
    H               -2.346432282699781    -2.174131949607468    -0.350047964594969
    H                0.283567717300219    -1.689131949607468     1.086952035405031
    H               -0.682432282699781    -3.138131949607468     1.191952035405030
    H               -1.298672282699781    -1.608731949607468     1.902871035405031
    C                0.714567717300219     1.390868050392531    -0.822047964594969
    C                1.352567717300219     2.456868050392531     0.050952035405031
    H                1.435567717300219     0.998868050392532    -1.538047964594969
    H                0.404567717300219     0.572868050392532    -0.178047964594969
    H               -0.154432282699781     1.787868050392531    -1.340047964594969
    H                2.064567717300219     1.992868050392532     0.721952035405031
    H                1.870847717300219     3.202298050392532    -0.570117964594969
    H                0.589837717300219     2.966558050392532     0.657963035405031

}
e, wfn = energy('scf', return_wfn=True)
gdma(wfn)
dmavals = variable('DMA DISTRIBUTED MULTIPOLES')
charges = np.array(dmavals)
print(charges)
np.save('SSI-007ILE-030LEU-2-dimer.npy', np.array(charges))--------------------------------------------------------------------------

*** tstart() called on ds3
*** at Tue Apr 28 09:38:19 2020

   => Loading Basis Set <=

    Name: CC-PVDZ
    Role: ORBITAL
    Keyword: BASIS
    atoms 1-2, 9-10  entry C          line   138 file /theoryfs2/ds/metcalf/miniconda2/envs/tf2gpu/share/psi4/basis/cc-pvdz.gbs
    atoms 3-8, 11-16 entry H          line    22 file /theoryfs2/ds/metcalf/miniconda2/envs/tf2gpu/share/psi4/basis/cc-pvdz.gbs

         ---------------------------------------------------------
                                   SCF
               by Justin Turney, Rob Parrish, Andy Simmonett
                          and Daniel G. A. Smith
                              RHF Reference
                        1 Threads,    500 MiB Core
         ---------------------------------------------------------

  ==> Geometry <==

    Molecular point group: c1
    Full point group: C1

    Geometry (in Angstrom), charge = 0, multiplicity = 1:

       Center              X                  Y                   Z               Mass
    ------------   -----------------  -----------------  -----------------  -----------------
         C           -1.332432282700    -1.777131949607    -0.300047964595    12.000000000000
         C           -0.741432282700    -2.064131949607     1.070952035405    12.000000000000
         H           -1.359432282700    -0.714131949607    -0.524047964595     1.007825032230
         H           -0.727432282700    -2.274131949607    -1.059047964595     1.007825032230
         H           -2.346432282700    -2.174131949607    -0.350047964595     1.007825032230
         H            0.283567717300    -1.689131949607     1.086952035405     1.007825032230
         H           -0.682432282700    -3.138131949607     1.191952035405     1.007825032230
         H           -1.298672282700    -1.608731949607     1.902871035405     1.007825032230
         C            0.714567717300     1.390868050393    -0.822047964595    12.000000000000
         C            1.352567717300     2.456868050393     0.050952035405    12.000000000000
         H            1.435567717300     0.998868050393    -1.538047964595     1.007825032230
         H            0.404567717300     0.572868050393    -0.178047964595     1.007825032230
         H           -0.154432282700     1.787868050393    -1.340047964595     1.007825032230
         H            2.064567717300     1.992868050393     0.721952035405     1.007825032230
         H            1.870847717300     3.202298050393    -0.570117964595     1.007825032230
         H            0.589837717300     2.966558050393     0.657963035405     1.007825032230

  Running in c1 symmetry.

  Rotational constants: A =      0.42190  B =      0.05291  C =      0.04902 [cm^-1]
  Rotational constants: A =  12648.32225  B =   1586.06391  C =   1469.47547 [MHz]
  Nuclear repulsion =  123.312946000489973

  Charge       = 0
  Multiplicity = 1
  Electrons    = 36
  Nalpha       = 18
  Nbeta        = 18

  ==> Algorithm <==

  SCF Algorithm Type is PK.
  DIIS enabled.
  MOM disabled.
  Fractional occupation disabled.
  Guess Type is SAD.
  Energy threshold   = 1.00e-06
  Density threshold  = 1.00e-10
  Integral threshold = 0.00e+00

  ==> Primary Basis <==

  Basis Set: CC-PVDZ
    Blend: CC-PVDZ
    Number of shells: 60
    Number of basis function: 116
    Number of Cartesian functions: 120
    Spherical Harmonics?: true
    Max angular momentum: 2

  ==> Pre-Iterations <==

   -------------------------------------------------------
    Irrep   Nso     Nmo     Nalpha   Nbeta   Ndocc  Nsocc
   -------------------------------------------------------
     A        116     116       0       0       0       0
   -------------------------------------------------------
    Total     116     116      18      18      18       0
   -------------------------------------------------------

  ==> Integral Setup <==

  Using integral reordering PK algorithm.
  Sizing the integral batches needed.
  Building batch lookup table.
   Calculation information:
      Number of atoms:                  16
      Number of AO shells:              60
      Number of primitives:            148
      Number of atomic orbitals:       120
      Number of basis functions:       116

      Integral cutoff                 1.00e-12
      Number of threads:                 1

	Batch   1 pq = [       0,    6786] index = [             0,23028291] size =     23028291
  Task number: 3
  Buffer size: 11059200
  Buffer per thread: 2
  We computed 1466306 shell quartets total.
  Whereas there are 1675365 unique shell quartets.

  ==> DiskJK: Disk-Based J/K Matrices <==

    J tasked:                  Yes
    K tasked:                  Yes
    wK tasked:                  No
    Memory [MiB]:              375
    Schwarz Cutoff:          1E-12

    OpenMP threads:              1

  Minimum eigenvalue in the overlap matrix is 6.8741812269E-03.
  Using Symmetric Orthogonalization.

  SCF Guess: Superposition of Atomic Densities via on-the-fly atomic UHF.

  ==> Iterations <==

                        Total Energy        Delta E     RMS |[F,P]|

   @RHF iter SAD:  -157.40532284365457   -1.57405e+02   0.00000e+00
   @RHF iter   1:  -158.30471255574082   -8.99390e-01   4.24368e-03 DIIS
   @RHF iter   2:  -158.43950042909245   -1.34788e-01   1.80568e-03 DIIS
   @RHF iter   3:  -158.46311988990834   -2.36195e-02   3.51241e-04 DIIS
   @RHF iter   4:  -158.46496308160675   -1.84319e-03   3.90371e-05 DIIS
   @RHF iter   5:  -158.46498707591485   -2.39943e-05   6.67262e-06 DIIS
   @RHF iter   6:  -158.46498772466924   -6.48754e-07   1.18808e-06 DIIS
   @RHF iter   7:  -158.46498773813414   -1.34649e-08   3.15312e-07 DIIS
   @RHF iter   8:  -158.46498773902681   -8.92669e-10   3.70606e-08 DIIS
   @RHF iter   9:  -158.46498773904887   -2.20552e-11   6.31193e-09 DIIS
   @RHF iter  10:  -158.46498773904963   -7.67386e-13   1.64411e-09 DIIS
   @RHF iter  11:  -158.46498773904949    1.42109e-13   3.54351e-10 DIIS
   @RHF iter  12:  -158.46498773904929    1.98952e-13   9.32163e-11 DIIS
  Energy and wave function converged.

  ==> Post-Iterations <==

    Orbital Energies [Eh]
    ---------------------

    Doubly Occupied:

       1A    -11.217363     2A    -11.217306     3A    -11.214948
       4A    -11.214933     5A     -1.022805     6A     -1.019758
       7A     -0.839268     8A     -0.835645     9A     -0.607856
      10A     -0.601268    11A     -0.598403    12A     -0.591555
      13A     -0.505619    14A     -0.501885    15A     -0.490084
      16A     -0.487176    17A     -0.482720    18A     -0.478204

    Virtual:

      19A      0.172007    20A      0.201035    21A      0.220735
      22A      0.241476    23A      0.247377    24A      0.254528
      25A      0.263377    26A      0.277723    27A      0.285936
      28A      0.294645    29A      0.306197    30A      0.346199
      31A      0.392397    32A      0.403622    33A      0.574937
      34A      0.598899    35A      0.603505    36A      0.604855
      37A      0.609180    38A      0.637591    39A      0.675866
      40A      0.686692    41A      0.707188    42A      0.775776
      43A      0.849385    44A      0.865665    45A      0.876486
      46A      0.885670    47A      0.892277    48A      0.897383
      49A      0.901808    50A      0.905697    51A      0.913625
      52A      0.926232    53A      0.943579    54A      0.958855
      55A      0.981202    56A      1.047318    57A      1.122007
      58A      1.129076    59A      1.134704    60A      1.148255
      61A      1.244993    62A      1.271141    63A      1.456241
      64A      1.475776    65A      1.478091    66A      1.499047
      67A      1.568726    68A      1.586948    69A      1.683276
      70A      1.692804    71A      1.699238    72A      1.704451
      73A      1.850907    74A      1.856977    75A      1.868482
      76A      1.881285    77A      1.895587    78A      1.920769
      79A      1.935191    80A      1.939037    81A      1.945817
      82A      1.949345    83A      1.953851    84A      1.965908
      85A      1.971613    86A      1.974932    87A      1.998900
      88A      2.029521    89A      2.089560    90A      2.115577
      91A      2.131261    92A      2.134534    93A      2.301830
      94A      2.309189    95A      2.315689    96A      2.323110
      97A      2.446586    98A      2.459760    99A      2.463066
     100A      2.475831   101A      2.564175   102A      2.573974
     103A      2.583966   104A      2.589828   105A      2.765730
     106A      2.773709   107A      2.794013   108A      2.800550
     109A      2.848830   110A      2.857678   111A      2.864950
     112A      2.883997   113A      2.949684   114A      2.956005
     115A      2.969507   116A      3.003586

    Final Occupation by Irrep:
              A
    DOCC [    18 ]

  @RHF Final Energy:  -158.46498773904929

   => Energetics <=

    Nuclear Repulsion Energy =            123.3129460004899727
    One-Electron Energy =                -455.7022724306295913
    Two-Electron Energy =                 173.9243386910902984
    Total Energy =                       -158.4649877390492918

Computation Completed

Properties will be evaluated at   0.000000,   0.000000,   0.000000 [a0]

Properties computed using the SCF density matrix

  Nuclear Dipole Moment: [e a0]
     X:     0.0751      Y:    -0.0722      Z:     0.0021

  Electronic Dipole Moment: [e a0]
     X:    -0.0684      Y:     0.0538      Z:    -0.0070

  Dipole Moment: [e a0]
     X:     0.0067      Y:    -0.0184      Z:    -0.0049     Total:     0.0202

  Dipole Moment: [D]
     X:     0.0171      Y:    -0.0468      Z:    -0.0125     Total:     0.0514

*** tstop() called on ds3 at Tue Apr 28 09:38:31 2020
Module time:
	user time   =       8.24 seconds =       0.14 minutes
	system time =       2.85 seconds =       0.05 minutes
	total time  =         12 seconds =       0.20 minutes
Total time:
	user time   =       8.24 seconds =       0.14 minutes
	system time =       2.85 seconds =       0.05 minutes
	total time  =         12 seconds =       0.20 minutes
                                     G D M A

                                 by Anthony Stone

                           version 2.2.06, 22 June 2011

               Distributed Multipoles from Gaussian wavefunctions

Starting at 9:38:31 on 28 Apr 2020

Using SCF density matrix from file ./SSI/SSI-007ILE-030LEU-2-dimer.test.10967.fchk

                         Distributed Multipole Analysis

Standard DMA

Positions and radii in angstrom
Multipole moments in atomic units, ea_0^k for rank k

C          x = -1.332432  y = -1.777132  z = -0.300048 angstrom
           Maximum rank =  0   Radius =  0.650 angstrom
                   Q00  =  -0.231583

C          x = -0.741432  y = -2.064132  z =  1.070952 angstrom
           Maximum rank =  0   Radius =  0.650 angstrom
                   Q00  =  -0.239285

H          x = -1.359432  y = -0.714132  z = -0.524048 angstrom
           Maximum rank =  0   Radius =  0.325 angstrom
                   Q00  =   0.083113

H          x = -0.727432  y = -2.274132  z = -1.059048 angstrom
           Maximum rank =  0   Radius =  0.325 angstrom
                   Q00  =   0.077917

H          x = -2.346432  y = -2.174132  z = -0.350048 angstrom
           Maximum rank =  0   Radius =  0.325 angstrom
                   Q00  =   0.076475

H          x =  0.283568  y = -1.689132  z =  1.086952 angstrom
           Maximum rank =  0   Radius =  0.325 angstrom
                   Q00  =   0.073034

H          x = -0.682432  y = -3.138132  z =  1.191952 angstrom
           Maximum rank =  0   Radius =  0.325 angstrom
                   Q00  =   0.080333

H          x = -1.298672  y = -1.608732  z =  1.902871 angstrom
           Maximum rank =  0   Radius =  0.325 angstrom
                   Q00  =   0.081390

C          x =  0.714568  y =  1.390868  z = -0.822048 angstrom
           Maximum rank =  0   Radius =  0.650 angstrom
                   Q00  =  -0.240623

C          x =  1.352568  y =  2.456868  z =  0.050952 angstrom
           Maximum rank =  0   Radius =  0.650 angstrom
                   Q00  =  -0.229021

H          x =  1.435568  y =  0.998868  z = -1.538048 angstrom
           Maximum rank =  0   Radius =  0.325 angstrom
                   Q00  =   0.079939

H          x =  0.404568  y =  0.572868  z = -0.178048 angstrom
           Maximum rank =  0   Radius =  0.325 angstrom
                   Q00  =   0.077353

H          x = -0.154432  y =  1.787868  z = -1.340048 angstrom
           Maximum rank =  0   Radius =  0.325 angstrom
                   Q00  =   0.079084

H          x =  2.064568  y =  1.992868  z =  0.721952 angstrom
           Maximum rank =  0   Radius =  0.325 angstrom
                   Q00  =   0.078750

H          x =  1.870848  y =  3.202298  z = -0.570118 angstrom
           Maximum rank =  0   Radius =  0.325 angstrom
                   Q00  =   0.076358

H          x =  0.589838  y =  2.966558  z =  0.657963 angstrom
           Maximum rank =  0   Radius =  0.325 angstrom
                   Q00  =   0.076766

Total multipoles referred to origin at
           x =   0.000000,  y =    0.000000,  z =    0.000000 angstrom
                   Q00  =  -0.000000

Finished at 9:38:31 on 28 Apr 2020

  DMA results are available in the Python driver through the
	  variable('DMA DISTRIBUTED MULTIPOLES')
  and
	  variable('DMA TOTAL MULTIPOLES')
  commands.

    Psi4 stopped on: Tuesday, 28 April 2020 09:38AM
    Psi4 wall time for execution: 0:00:12.44

*** Psi4 exiting successfully. Buy a developer a beer!
