                               Psi4 1.3.2 release

  ==> Input File <==

--------------------------------------------------------------------------
import numpy as np
set {scf_type pk
basis cc-pvdz
d_convergence 10
gdma_switch   0
gdma_limit    0
gdma_origin   [ 0.0,  0.0,  0.0 ]
}
molecule test {
    units Angstrom
    0 1
    --
    0 1
    C               -0.433891888475274     1.307802551438773    -0.720917902410034
    C               -1.198891888475274     2.506802551438773    -1.273917902410034
    C               -0.009891888475274     0.376802551438773    -1.825917902410034
    H                0.435108111524726     1.638802551438773    -0.158917902410034
    H               -1.077891888475274     0.732802551438773    -0.053917902410034
    H               -1.732891888475274     2.180802551438773    -2.168917902410034
    H                0.744108111524726     0.858802551438773    -2.446917902410033
    H                0.380108111524726    -0.537197448561227    -1.385917902410034
    H               -0.864891888475274     0.107802551438773    -2.444917902410034
    H               -1.975267888475274     2.823952551438774    -0.562117902410034
    H               -0.541151888475274     3.334882551438773    -1.576664902410033
    C                0.558108111524726    -1.616197448561227     1.303082097589967
    C                1.061108111524726    -2.478197448561227     2.477082097589967
    H                0.359108111524726    -0.599197448561227     1.642082097589967
    H                1.325108111524726    -1.583197448561227     0.530082097589966
    H               -0.343891888475274    -2.038197448561227     0.860082097589966
    H                1.151108111524726    -3.501197448561227     2.126082097589966
    H                0.364578111524726    -2.440057448561227     3.327602097589967
    H                2.056088111524726    -2.133917448561227     2.795652097589967

}
e, wfn = energy('scf', return_wfn=True)
gdma(wfn)
dmavals = variable('DMA DISTRIBUTED MULTIPOLES')
charges = np.array(dmavals)
print(charges)
np.save('SSI-028ILE-151VAL-1-dimer.npy', np.array(charges))--------------------------------------------------------------------------

*** tstart() called on ds3
*** at Mon Apr 27 16:55:59 2020

   => Loading Basis Set <=

    Name: CC-PVDZ
    Role: ORBITAL
    Keyword: BASIS
    atoms 1-3, 12-13  entry C          line   138 file /theoryfs2/ds/metcalf/miniconda2/envs/tf2gpu/share/psi4/basis/cc-pvdz.gbs
    atoms 4-11, 14-19 entry H          line    22 file /theoryfs2/ds/metcalf/miniconda2/envs/tf2gpu/share/psi4/basis/cc-pvdz.gbs

         ---------------------------------------------------------
                                   SCF
               by Justin Turney, Rob Parrish, Andy Simmonett
                          and Daniel G. A. Smith
                              RHF Reference
                        1 Threads,    500 MiB Core
         ---------------------------------------------------------

  ==> Geometry <==

    Molecular point group: c1
    Full point group: C1

    Geometry (in Angstrom), charge = 0, multiplicity = 1:

       Center              X                  Y                   Z               Mass
    ------------   -----------------  -----------------  -----------------  -----------------
         C           -0.433891888475     1.307802551439    -0.720917902410    12.000000000000
         C           -1.198891888475     2.506802551439    -1.273917902410    12.000000000000
         C           -0.009891888475     0.376802551439    -1.825917902410    12.000000000000
         H            0.435108111525     1.638802551439    -0.158917902410     1.007825032230
         H           -1.077891888475     0.732802551439    -0.053917902410     1.007825032230
         H           -1.732891888475     2.180802551439    -2.168917902410     1.007825032230
         H            0.744108111525     0.858802551439    -2.446917902410     1.007825032230
         H            0.380108111525    -0.537197448561    -1.385917902410     1.007825032230
         H           -0.864891888475     0.107802551439    -2.444917902410     1.007825032230
         H           -1.975267888475     2.823952551439    -0.562117902410     1.007825032230
         H           -0.541151888475     3.334882551439    -1.576664902410     1.007825032230
         C            0.558108111525    -1.616197448561     1.303082097590    12.000000000000
         C            1.061108111525    -2.478197448561     2.477082097590    12.000000000000
         H            0.359108111525    -0.599197448561     1.642082097590     1.007825032230
         H            1.325108111525    -1.583197448561     0.530082097590     1.007825032230
         H           -0.343891888475    -2.038197448561     0.860082097590     1.007825032230
         H            1.151108111525    -3.501197448561     2.126082097590     1.007825032230
         H            0.364578111525    -2.440057448561     3.327602097590     1.007825032230
         H            2.056088111525    -2.133917448561     2.795652097590     1.007825032230

  Running in c1 symmetry.

  Rotational constants: A =      0.33657  B =      0.03492  C =      0.03269 [cm^-1]
  Rotational constants: A =  10090.24689  B =   1046.92033  C =    979.96902 [MHz]
  Nuclear repulsion =  177.483273815584738

  Charge       = 0
  Multiplicity = 1
  Electrons    = 44
  Nalpha       = 22
  Nbeta        = 22

  ==> Algorithm <==

  SCF Algorithm Type is PK.
  DIIS enabled.
  MOM disabled.
  Fractional occupation disabled.
  Guess Type is SAD.
  Energy threshold   = 1.00e-06
  Density threshold  = 1.00e-10
  Integral threshold = 0.00e+00

  ==> Primary Basis <==

  Basis Set: CC-PVDZ
    Blend: CC-PVDZ
    Number of shells: 72
    Number of basis function: 140
    Number of Cartesian functions: 145
    Spherical Harmonics?: true
    Max angular momentum: 2

  ==> Pre-Iterations <==

   -------------------------------------------------------
    Irrep   Nso     Nmo     Nalpha   Nbeta   Ndocc  Nsocc
   -------------------------------------------------------
     A        140     140       0       0       0       0
   -------------------------------------------------------
    Total     140     140      22      22      22       0
   -------------------------------------------------------

  ==> Integral Setup <==

  Using integral reordering PK algorithm.
  Sizing the integral batches needed.
  Building batch lookup table.
   Calculation information:
      Number of atoms:                  19
      Number of AO shells:              72
      Number of primitives:            180
      Number of atomic orbitals:       145
      Number of basis functions:       140

      Integral cutoff                 1.00e-12
      Number of threads:                 1

	Batch   1 pq = [       0,    9405] index = [             0,44231715] size =     44231715
	Batch   2 pq = [    9405,    9870] index = [      44231715,48713385] size =      4481670
  Task number: 5
  Buffer size: 11059200
  Buffer per thread: 2
  We computed 2734914 shell quartets total.
  Whereas there are 3454506 unique shell quartets.

  ==> DiskJK: Disk-Based J/K Matrices <==

    J tasked:                  Yes
    K tasked:                  Yes
    wK tasked:                  No
    Memory [MiB]:              375
    Schwarz Cutoff:          1E-12

    OpenMP threads:              1

  Minimum eigenvalue in the overlap matrix is 4.8863600933E-03.
  Using Symmetric Orthogonalization.

  SCF Guess: Superposition of Atomic Densities via on-the-fly atomic UHF.

  ==> Iterations <==

                        Total Energy        Delta E     RMS |[F,P]|

   @RHF iter SAD:  -196.41637468585486   -1.96416e+02   0.00000e+00
   @RHF iter   1:  -197.30598705343382   -8.89612e-01   3.82779e-03 DIIS
   @RHF iter   2:  -197.46727217817909   -1.61285e-01   1.65574e-03 DIIS
   @RHF iter   3:  -197.49617766632753   -2.89055e-02   3.28484e-04 DIIS
   @RHF iter   4:  -197.49842611318911   -2.24845e-03   5.05809e-05 DIIS
   @RHF iter   5:  -197.49846792044434   -4.18073e-05   1.51925e-05 DIIS
   @RHF iter   6:  -197.49847149571656   -3.57527e-06   2.52153e-06 DIIS
   @RHF iter   7:  -197.49847160869433   -1.12978e-07   4.62282e-07 DIIS
   @RHF iter   8:  -197.49847161299607   -4.30174e-09   1.12990e-07 DIIS
   @RHF iter   9:  -197.49847161323797   -2.41897e-10   3.51614e-08 DIIS
   @RHF iter  10:  -197.49847161326619   -2.82228e-11   7.40129e-09 DIIS
   @RHF iter  11:  -197.49847161326713   -9.37916e-13   1.43404e-09 DIIS
   @RHF iter  12:  -197.49847161326699    1.42109e-13   2.87106e-10 DIIS
   @RHF iter  13:  -197.49847161326716   -1.70530e-13   7.72434e-11 DIIS
  Energy and wave function converged.

  ==> Post-Iterations <==

    Orbital Energies [Eh]
    ---------------------

    Doubly Occupied:

       1A    -11.220205     2A    -11.218115     3A    -11.215331
       4A    -11.214644     5A    -11.210017     6A     -1.058148
       7A     -1.015995     8A     -0.922361     9A     -0.839194
      10A     -0.796066    11A     -0.628276    12A     -0.599015
      13A     -0.598077    14A     -0.594452    15A     -0.548812
      16A     -0.530218    17A     -0.498323    18A     -0.490474
      19A     -0.486874    20A     -0.472177    21A     -0.466618
      22A     -0.461174

    Virtual:

      23A      0.175755    24A      0.193015    25A      0.220825
      26A      0.228059    27A      0.229085    28A      0.249734
      29A      0.254074    30A      0.268800    31A      0.278022
      32A      0.283469    33A      0.296959    34A      0.308638
      35A      0.318596    36A      0.337795    37A      0.369583
      38A      0.411100    39A      0.436289    40A      0.581431
      41A      0.585825    42A      0.596409    43A      0.597818
      44A      0.606130    45A      0.634562    46A      0.637007
      47A      0.698507    48A      0.715447    49A      0.735102
      50A      0.771511    51A      0.816948    52A      0.839773
      53A      0.872511    54A      0.885069    55A      0.891105
      56A      0.892611    57A      0.895782    58A      0.898823
      59A      0.908298    60A      0.911252    61A      0.916341
      62A      0.926382    63A      0.932660    64A      0.943932
      65A      0.954771    66A      0.968526    67A      0.990070
      68A      1.027219    69A      1.115193    70A      1.118497
      71A      1.128984    72A      1.146333    73A      1.204120
      74A      1.249707    75A      1.410217    76A      1.453679
      77A      1.468697    78A      1.476956    79A      1.489183
      80A      1.551804    81A      1.591874    82A      1.650462
      83A      1.676764    84A      1.681435    85A      1.693926
      86A      1.697070    87A      1.709762    88A      1.852691
      89A      1.854892    90A      1.871690    91A      1.875403
      92A      1.885395    93A      1.913048    94A      1.917704
      95A      1.929530    96A      1.936314    97A      1.941551
      98A      1.945356    99A      1.953384   100A      1.955338
     101A      1.970591   102A      1.990656   103A      2.000753
     104A      2.004647   105A      2.038822   106A      2.085076
     107A      2.091533   108A      2.116390   109A      2.122132
     110A      2.142921   111A      2.185605   112A      2.268985
     113A      2.303258   114A      2.312252   115A      2.324409
     116A      2.360382   117A      2.394165   118A      2.447948
     119A      2.453460   120A      2.462548   121A      2.545397
     122A      2.556611   123A      2.572942   124A      2.576253
     125A      2.621245   126A      2.677669   127A      2.759077
     128A      2.764390   129A      2.781832   130A      2.787494
     131A      2.796643   132A      2.843730   133A      2.847437
     134A      2.854447   135A      2.900335   136A      2.943747
     137A      2.950889   138A      2.962497   139A      2.966613
     140A      3.072831

    Final Occupation by Irrep:
              A
    DOCC [    22 ]

  @RHF Final Energy:  -197.49847161326716

   => Energetics <=

    Nuclear Repulsion Energy =            177.4832738155847380
    One-Electron Energy =                -615.7943644573784923
    Two-Electron Energy =                 240.8126190285265693
    Total Energy =                       -197.4984716132671565

Computation Completed

Properties will be evaluated at   0.000000,   0.000000,   0.000000 [a0]

Properties computed using the SCF density matrix

  Nuclear Dipole Moment: [e a0]
     X:     0.2619      Y:    -1.0829      Z:     0.4531

  Electronic Dipole Moment: [e a0]
     X:    -0.2546      Y:     1.0475      Z:    -0.4240

  Dipole Moment: [e a0]
     X:     0.0073      Y:    -0.0354      Z:     0.0291     Total:     0.0464

  Dipole Moment: [D]
     X:     0.0185      Y:    -0.0901      Z:     0.0738     Total:     0.1179

*** tstop() called on ds3 at Mon Apr 27 16:56:22 2020
Module time:
	user time   =      14.41 seconds =       0.24 minutes
	system time =       5.79 seconds =       0.10 minutes
	total time  =         23 seconds =       0.38 minutes
Total time:
	user time   =      14.41 seconds =       0.24 minutes
	system time =       5.79 seconds =       0.10 minutes
	total time  =         23 seconds =       0.38 minutes
                                     G D M A

                                 by Anthony Stone

                           version 2.2.06, 22 June 2011

               Distributed Multipoles from Gaussian wavefunctions

Starting at 16:56:22 on 27 Apr 2020

Using SCF density matrix from file ./SSI/SSI-028ILE-151VAL-1-dimer.test.28555.fchk

                         Distributed Multipole Analysis

Standard DMA

Positions and radii in angstrom
Multipole moments in atomic units, ea_0^k for rank k

C          x = -0.433892  y =  1.307803  z = -0.720918 angstrom
           Maximum rank =  0   Radius =  0.650 angstrom
                   Q00  =  -0.085362

C          x = -1.198892  y =  2.506803  z = -1.273918 angstrom
           Maximum rank =  0   Radius =  0.650 angstrom
                   Q00  =  -0.232814

C          x = -0.009892  y =  0.376803  z = -1.825918 angstrom
           Maximum rank =  0   Radius =  0.650 angstrom
                   Q00  =  -0.246201

H          x =  0.435108  y =  1.638803  z = -0.158918 angstrom
           Maximum rank =  0   Radius =  0.325 angstrom
                   Q00  =   0.049412

H          x = -1.077892  y =  0.732803  z = -0.053918 angstrom
           Maximum rank =  0   Radius =  0.325 angstrom
                   Q00  =   0.047674

H          x = -1.732892  y =  2.180803  z = -2.168918 angstrom
           Maximum rank =  0   Radius =  0.325 angstrom
                   Q00  =   0.068416

H          x =  0.744108  y =  0.858803  z = -2.446918 angstrom
           Maximum rank =  0   Radius =  0.325 angstrom
                   Q00  =   0.072044

H          x =  0.380108  y = -0.537197  z = -1.385918 angstrom
           Maximum rank =  0   Radius =  0.325 angstrom
                   Q00  =   0.084339

H          x = -0.864892  y =  0.107803  z = -2.444918 angstrom
           Maximum rank =  0   Radius =  0.325 angstrom
                   Q00  =   0.073017

H          x = -1.975268  y =  2.823953  z = -0.562118 angstrom
           Maximum rank =  0   Radius =  0.325 angstrom
                   Q00  =   0.086320

H          x = -0.541152  y =  3.334883  z = -1.576665 angstrom
           Maximum rank =  0   Radius =  0.325 angstrom
                   Q00  =   0.081948

C          x =  0.558108  y = -1.616197  z =  1.303082 angstrom
           Maximum rank =  0   Radius =  0.650 angstrom
                   Q00  =  -0.255918

C          x =  1.061108  y = -2.478197  z =  2.477082 angstrom
           Maximum rank =  0   Radius =  0.650 angstrom
                   Q00  =  -0.227956

H          x =  0.359108  y = -0.599197  z =  1.642082 angstrom
           Maximum rank =  0   Radius =  0.325 angstrom
                   Q00  =   0.083169

H          x =  1.325108  y = -1.583197  z =  0.530082 angstrom
           Maximum rank =  0   Radius =  0.325 angstrom
                   Q00  =   0.078729

H          x = -0.343892  y = -2.038197  z =  0.860082 angstrom
           Maximum rank =  0   Radius =  0.325 angstrom
                   Q00  =   0.079975

H          x =  1.151108  y = -3.501197  z =  2.126082 angstrom
           Maximum rank =  0   Radius =  0.325 angstrom
                   Q00  =   0.080701

H          x =  0.364578  y = -2.440057  z =  3.327602 angstrom
           Maximum rank =  0   Radius =  0.325 angstrom
                   Q00  =   0.081778

H          x =  2.056088  y = -2.133917  z =  2.795652 angstrom
           Maximum rank =  0   Radius =  0.325 angstrom
                   Q00  =   0.080728

Total multipoles referred to origin at
           x =   0.000000,  y =    0.000000,  z =    0.000000 angstrom
                   Q00  =  -0.000000

Finished at 16:56:22 on 27 Apr 2020

  DMA results are available in the Python driver through the
	  variable('DMA DISTRIBUTED MULTIPOLES')
  and
	  variable('DMA TOTAL MULTIPOLES')
  commands.

    Psi4 stopped on: Monday, 27 April 2020 04:56PM
    Psi4 wall time for execution: 0:00:23.51

*** Psi4 exiting successfully. Buy a developer a beer!
