                               Psi4 1.3.2 release

  ==> Input File <==

--------------------------------------------------------------------------
import numpy as np
set {scf_type pk
basis cc-pvdz
d_convergence 10
gdma_switch   0
gdma_limit    0
gdma_origin   [ 0.0,  0.0,  0.0 ]
}
molecule test {
    units Angstrom
    0 1
    --
    0 1
    C               -0.761945556115494    -0.567204888852479     0.993736010248457
    C               -1.674945556115494    -0.991204888852479     2.138736010248457
    H                0.052054443884506     0.049795111147521     1.373736010248457
    H               -0.345945556115494    -1.452204888852479     0.510736010248457
    H               -1.331945556115495    -0.012204888852479     0.249736010248457
    H               -2.544945556115494    -1.502204888852479     1.726736010248457
    H               -2.003625556115495    -0.119977888852479     2.724338010248458
    H               -1.127995556115495    -1.683187888852479     2.796005010248457
    C                0.559054443884506     1.015795111147521    -1.870263989751543
    C                1.880054443884505     0.547795111147521    -1.263263989751543
    H                0.677054443884506     1.178795111147521    -2.941263989751543
    H               -0.208945556115494     0.259795111147521    -1.724263989751543
    H                0.228054443884506     1.939795111147521    -1.404263989751543
    H                1.780054443884506     0.536795111147521    -0.179263989751543
    H                2.701254443884505     1.225677111147521    -1.539143989751543
    H                2.098524443884505    -0.482554888852479    -1.580513989751543

}
e, wfn = energy('scf', return_wfn=True)
gdma(wfn)
dmavals = variable('DMA DISTRIBUTED MULTIPOLES')
charges = np.array(dmavals)
print(charges)
np.save('SSI-004THR-078LEU-1-dimer.npy', np.array(charges))--------------------------------------------------------------------------

*** tstart() called on ds3
*** at Sun Apr 26 20:02:19 2020

   => Loading Basis Set <=

    Name: CC-PVDZ
    Role: ORBITAL
    Keyword: BASIS
    atoms 1-2, 9-10  entry C          line   138 file /theoryfs2/ds/metcalf/miniconda2/envs/tf2gpu/share/psi4/basis/cc-pvdz.gbs
    atoms 3-8, 11-16 entry H          line    22 file /theoryfs2/ds/metcalf/miniconda2/envs/tf2gpu/share/psi4/basis/cc-pvdz.gbs

         ---------------------------------------------------------
                                   SCF
               by Justin Turney, Rob Parrish, Andy Simmonett
                          and Daniel G. A. Smith
                              RHF Reference
                        1 Threads,    500 MiB Core
         ---------------------------------------------------------

  ==> Geometry <==

    Molecular point group: c1
    Full point group: C1

    Geometry (in Angstrom), charge = 0, multiplicity = 1:

       Center              X                  Y                   Z               Mass
    ------------   -----------------  -----------------  -----------------  -----------------
         C           -0.761945556115    -0.567204888852     0.993736010248    12.000000000000
         C           -1.674945556115    -0.991204888852     2.138736010248    12.000000000000
         H            0.052054443885     0.049795111148     1.373736010248     1.007825032230
         H           -0.345945556115    -1.452204888852     0.510736010248     1.007825032230
         H           -1.331945556115    -0.012204888852     0.249736010248     1.007825032230
         H           -2.544945556115    -1.502204888852     1.726736010248     1.007825032230
         H           -2.003625556115    -0.119977888852     2.724338010248     1.007825032230
         H           -1.127995556115    -1.683187888852     2.796005010248     1.007825032230
         C            0.559054443885     1.015795111148    -1.870263989752    12.000000000000
         C            1.880054443885     0.547795111148    -1.263263989752    12.000000000000
         H            0.677054443885     1.178795111148    -2.941263989752     1.007825032230
         H           -0.208945556115     0.259795111148    -1.724263989752     1.007825032230
         H            0.228054443885     1.939795111148    -1.404263989752     1.007825032230
         H            1.780054443885     0.536795111148    -0.179263989752     1.007825032230
         H            2.701254443885     1.225677111148    -1.539143989752     1.007825032230
         H            2.098524443885    -0.482554888852    -1.580513989752     1.007825032230

  Running in c1 symmetry.

  Rotational constants: A =      0.53656  B =      0.05536  C =      0.05221 [cm^-1]
  Rotational constants: A =  16085.63147  B =   1659.65847  C =   1565.14633 [MHz]
  Nuclear repulsion =  125.329052592045727

  Charge       = 0
  Multiplicity = 1
  Electrons    = 36
  Nalpha       = 18
  Nbeta        = 18

  ==> Algorithm <==

  SCF Algorithm Type is PK.
  DIIS enabled.
  MOM disabled.
  Fractional occupation disabled.
  Guess Type is SAD.
  Energy threshold   = 1.00e-06
  Density threshold  = 1.00e-10
  Integral threshold = 0.00e+00

  ==> Primary Basis <==

  Basis Set: CC-PVDZ
    Blend: CC-PVDZ
    Number of shells: 60
    Number of basis function: 116
    Number of Cartesian functions: 120
    Spherical Harmonics?: true
    Max angular momentum: 2

  ==> Pre-Iterations <==

   -------------------------------------------------------
    Irrep   Nso     Nmo     Nalpha   Nbeta   Ndocc  Nsocc
   -------------------------------------------------------
     A        116     116       0       0       0       0
   -------------------------------------------------------
    Total     116     116      18      18      18       0
   -------------------------------------------------------

  ==> Integral Setup <==

  Using integral reordering PK algorithm.
  Sizing the integral batches needed.
  Building batch lookup table.
   Calculation information:
      Number of atoms:                  16
      Number of AO shells:              60
      Number of primitives:            148
      Number of atomic orbitals:       120
      Number of basis functions:       116

      Integral cutoff                 1.00e-12
      Number of threads:                 1

	Batch   1 pq = [       0,    6786] index = [             0,23028291] size =     23028291
  Task number: 3
  Buffer size: 11059200
  Buffer per thread: 2
  We computed 1504572 shell quartets total.
  Whereas there are 1675365 unique shell quartets.

  ==> DiskJK: Disk-Based J/K Matrices <==

    J tasked:                  Yes
    K tasked:                  Yes
    wK tasked:                  No
    Memory [MiB]:              375
    Schwarz Cutoff:          1E-12

    OpenMP threads:              1

  Minimum eigenvalue in the overlap matrix is 6.1263749098E-03.
  Using Symmetric Orthogonalization.

  SCF Guess: Superposition of Atomic Densities via on-the-fly atomic UHF.

  ==> Iterations <==

                        Total Energy        Delta E     RMS |[F,P]|

   @RHF iter SAD:  -157.38570736549909   -1.57386e+02   0.00000e+00
   @RHF iter   1:  -158.30516839700857   -9.19461e-01   4.22269e-03 DIIS
   @RHF iter   2:  -158.43960359370840   -1.34435e-01   1.79287e-03 DIIS
   @RHF iter   3:  -158.46297375234479   -2.33702e-02   3.50827e-04 DIIS
   @RHF iter   4:  -158.46481283418305   -1.83908e-03   3.84190e-05 DIIS
   @RHF iter   5:  -158.46483596405088   -2.31299e-05   6.35209e-06 DIIS
   @RHF iter   6:  -158.46483655838671   -5.94336e-07   1.07629e-06 DIIS
   @RHF iter   7:  -158.46483656982184   -1.14351e-08   3.02041e-07 DIIS
   @RHF iter   8:  -158.46483657062635   -8.04505e-10   4.18618e-08 DIIS
   @RHF iter   9:  -158.46483657065059   -2.42437e-11   9.14184e-09 DIIS
   @RHF iter  10:  -158.46483657065215   -1.56319e-12   2.16307e-09 DIIS
   @RHF iter  11:  -158.46483657065241   -2.55795e-13   6.99142e-10 DIIS
   @RHF iter  12:  -158.46483657065238    2.84217e-14   1.97623e-10 DIIS
   @RHF iter  13:  -158.46483657065232    5.68434e-14   2.79261e-11 DIIS
  Energy and wave function converged.

  ==> Post-Iterations <==

    Orbital Energies [Eh]
    ---------------------

    Doubly Occupied:

       1A    -11.219037     2A    -11.217215     3A    -11.216685
       4A    -11.213993     5A     -1.021406     6A     -1.015713
       7A     -0.837360     8A     -0.835511     9A     -0.602978
      10A     -0.599770    11A     -0.596444    12A     -0.593892
      13A     -0.502927    14A     -0.497775    15A     -0.494135
      16A     -0.486110    17A     -0.482365    18A     -0.475774

    Virtual:

      19A      0.176131    20A      0.196406    21A      0.229320
      22A      0.232162    23A      0.241769    24A      0.263824
      25A      0.268562    26A      0.278412    27A      0.283340
      28A      0.294170    29A      0.317051    30A      0.348698
      31A      0.395225    32A      0.400517    33A      0.560289
      34A      0.588722    35A      0.599718    36A      0.605427
      37A      0.610324    38A      0.647956    39A      0.667394
      40A      0.702569    41A      0.741818    42A      0.770876
      43A      0.846945    44A      0.852495    45A      0.887625
      46A      0.891860    47A      0.894265    48A      0.900311
      49A      0.911749    50A      0.914339    51A      0.916567
      52A      0.927492    53A      0.952868    54A      0.966725
      55A      0.973640    56A      1.033276    57A      1.122693
      58A      1.126961    59A      1.130846    60A      1.153775
      61A      1.208199    62A      1.287570    63A      1.469356
      64A      1.474952    65A      1.480922    66A      1.498214
      67A      1.566802    68A      1.588985    69A      1.679212
      70A      1.688994    71A      1.692009    72A      1.702656
      73A      1.844829    74A      1.873782    75A      1.879853
      76A      1.888940    77A      1.892493    78A      1.922827
      79A      1.936829    80A      1.940978    81A      1.945398
      82A      1.949934    83A      1.953902    84A      1.962631
      85A      1.966163    86A      1.975307    87A      1.999893
      88A      2.067841    89A      2.103833    90A      2.118211
      91A      2.122285    92A      2.136030    93A      2.296221
      94A      2.309840    95A      2.321905    96A      2.340171
      97A      2.442950    98A      2.457465    99A      2.465560
     100A      2.468270   101A      2.563983   102A      2.571008
     103A      2.581846   104A      2.592713   105A      2.762498
     106A      2.769310   107A      2.789940   108A      2.797015
     109A      2.844148   110A      2.852047   111A      2.858493
     112A      2.868729   113A      2.948940   114A      2.952347
     115A      2.961492   116A      2.984023

    Final Occupation by Irrep:
              A
    DOCC [    18 ]

  @RHF Final Energy:  -158.46483657065232

   => Energetics <=

    Nuclear Repulsion Energy =            125.3290525920457270
    One-Electron Energy =                -459.7696012720599583
    Two-Electron Energy =                 175.9757121093618935
    Total Energy =                       -158.4648365706523236

Computation Completed

Properties will be evaluated at   0.000000,   0.000000,   0.000000 [a0]

Properties computed using the SCF density matrix

  Nuclear Dipole Moment: [e a0]
     X:    -0.0248      Y:    -0.0578      Z:     0.0118

  Electronic Dipole Moment: [e a0]
     X:     0.0033      Y:     0.0486      Z:    -0.0013

  Dipole Moment: [e a0]
     X:    -0.0215      Y:    -0.0092      Z:     0.0105     Total:     0.0256

  Dipole Moment: [D]
     X:    -0.0546      Y:    -0.0235      Z:     0.0266     Total:     0.0652

*** tstop() called on ds3 at Sun Apr 26 20:02:29 2020
Module time:
	user time   =       7.88 seconds =       0.13 minutes
	system time =       2.87 seconds =       0.05 minutes
	total time  =         10 seconds =       0.17 minutes
Total time:
	user time   =       7.88 seconds =       0.13 minutes
	system time =       2.87 seconds =       0.05 minutes
	total time  =         10 seconds =       0.17 minutes
                                     G D M A

                                 by Anthony Stone

                           version 2.2.06, 22 June 2011

               Distributed Multipoles from Gaussian wavefunctions

Starting at 20:2:29 on 26 Apr 2020

Using SCF density matrix from file ./SSI/SSI-004THR-078LEU-1-dimer.test.10588.fchk

                         Distributed Multipole Analysis

Standard DMA

Positions and radii in angstrom
Multipole moments in atomic units, ea_0^k for rank k

C          x = -0.761946  y = -0.567205  z =  0.993736 angstrom
           Maximum rank =  0   Radius =  0.650 angstrom
                   Q00  =  -0.240270

C          x = -1.674946  y = -0.991205  z =  2.138736 angstrom
           Maximum rank =  0   Radius =  0.650 angstrom
                   Q00  =  -0.230806

H          x =  0.052054  y =  0.049795  z =  1.373736 angstrom
           Maximum rank =  0   Radius =  0.325 angstrom
                   Q00  =   0.079323

H          x = -0.345946  y = -1.452205  z =  0.510736 angstrom
           Maximum rank =  0   Radius =  0.325 angstrom
                   Q00  =   0.077588

H          x = -1.331946  y = -0.012205  z =  0.249736 angstrom
           Maximum rank =  0   Radius =  0.325 angstrom
                   Q00  =   0.079014

H          x = -2.544946  y = -1.502205  z =  1.726736 angstrom
           Maximum rank =  0   Radius =  0.325 angstrom
                   Q00  =   0.079485

H          x = -2.003626  y = -0.119978  z =  2.724338 angstrom
           Maximum rank =  0   Radius =  0.325 angstrom
                   Q00  =   0.079965

H          x = -1.127996  y = -1.683188  z =  2.796005 angstrom
           Maximum rank =  0   Radius =  0.325 angstrom
                   Q00  =   0.077113

C          x =  0.559054  y =  1.015795  z = -1.870264 angstrom
           Maximum rank =  0   Radius =  0.650 angstrom
                   Q00  =  -0.248663

C          x =  1.880054  y =  0.547795  z = -1.263264 angstrom
           Maximum rank =  0   Radius =  0.650 angstrom
                   Q00  =  -0.225272

H          x =  0.677054  y =  1.178795  z = -2.941264 angstrom
           Maximum rank =  0   Radius =  0.325 angstrom
                   Q00  =   0.076952

H          x = -0.208946  y =  0.259795  z = -1.724264 angstrom
           Maximum rank =  0   Radius =  0.325 angstrom
                   Q00  =   0.081402

H          x =  0.228054  y =  1.939795  z = -1.404264 angstrom
           Maximum rank =  0   Radius =  0.325 angstrom
                   Q00  =   0.078552

H          x =  1.780054  y =  0.536795  z = -0.179264 angstrom
           Maximum rank =  0   Radius =  0.325 angstrom
                   Q00  =   0.078864

H          x =  2.701254  y =  1.225677  z = -1.539144 angstrom
           Maximum rank =  0   Radius =  0.325 angstrom
                   Q00  =   0.079002

H          x =  2.098524  y = -0.482555  z = -1.580514 angstrom
           Maximum rank =  0   Radius =  0.325 angstrom
                   Q00  =   0.077752

Total multipoles referred to origin at
           x =   0.000000,  y =    0.000000,  z =    0.000000 angstrom
                   Q00  =  -0.000000

Finished at 20:2:29 on 26 Apr 2020

  DMA results are available in the Python driver through the
	  variable('DMA DISTRIBUTED MULTIPOLES')
  and
	  variable('DMA TOTAL MULTIPOLES')
  commands.

    Psi4 stopped on: Sunday, 26 April 2020 08:02PM
    Psi4 wall time for execution: 0:00:10.63

*** Psi4 exiting successfully. Buy a developer a beer!
