                               Psi4 1.3.2 release

  ==> Input File <==

--------------------------------------------------------------------------
import numpy as np
set {scf_type pk
basis cc-pvdz
d_convergence 10
gdma_switch   0
gdma_limit    0
gdma_origin   [ 0.0,  0.0,  0.0 ]
}
molecule test {
    units Angstrom
    1 1
    --
    1 1
    C                2.220444411235212     1.271902878834146    -0.949204191401973
    C                0.857444411235212    -0.676097121165854    -0.299204191401973
    N                1.663444411235212     0.324902878834146     0.017795808598027
    N                0.612444411235212    -0.954097121165854    -1.569204191401973
    N                0.370444411235212    -1.451097121165854     0.650795808598027
    H                1.882444411235212     0.464902878834146     0.994795808598027
    H                1.153444411235212    -0.516097121165854    -2.314204191401973
    H                0.039444411235212    -1.746097121165854    -1.803204191401973
    H                0.616444411235212    -1.290097121165854     1.615795808598028
    H               -0.193555588764788    -2.253097121165854     0.416795808598027
    H                2.470444411235212     0.789902878834146    -1.893204191401973
    H                3.148444411235212     1.673902878834146    -0.534204191401973
    H                1.528006411235212     2.109522878834146    -1.119289191401973
    C               -2.125555588764788     0.926902878834146     0.801795808598027
    C               -3.514555588764788     0.588902878834146     1.342795808598027
    H               -1.915555588764788     1.989902878834146     0.933795808598027
    H               -1.379555588764788     0.360902878834146     1.354795808598027
    H               -2.058555588764788     0.670902878834146    -0.257204191401973
    H               -3.791555588764788    -0.415097121165854     1.018795808598028
    H               -4.261944588764788     1.313232878834146     0.986755808598027
    H               -3.499088588764788     0.609012878834146     2.442505808598027

}
e, wfn = energy('scf', return_wfn=True)
gdma(wfn)
dmavals = variable('DMA DISTRIBUTED MULTIPOLES')
charges = np.array(dmavals)
print(charges)
np.save('SSI-021ARG-033THR-1-dimer.npy', np.array(charges))--------------------------------------------------------------------------

*** tstart() called on ds3
*** at Tue Apr 28 10:50:48 2020

   => Loading Basis Set <=

    Name: CC-PVDZ
    Role: ORBITAL
    Keyword: BASIS
    atoms 1-2, 14-15  entry C          line   138 file /theoryfs2/ds/metcalf/miniconda2/envs/tf2gpu/share/psi4/basis/cc-pvdz.gbs
    atoms 3-5         entry N          line   168 file /theoryfs2/ds/metcalf/miniconda2/envs/tf2gpu/share/psi4/basis/cc-pvdz.gbs
    atoms 6-13, 16-21 entry H          line    22 file /theoryfs2/ds/metcalf/miniconda2/envs/tf2gpu/share/psi4/basis/cc-pvdz.gbs

         ---------------------------------------------------------
                                   SCF
               by Justin Turney, Rob Parrish, Andy Simmonett
                          and Daniel G. A. Smith
                              RHF Reference
                        1 Threads,    500 MiB Core
         ---------------------------------------------------------

  ==> Geometry <==

    Molecular point group: c1
    Full point group: C1

    Geometry (in Angstrom), charge = 1, multiplicity = 1:

       Center              X                  Y                   Z               Mass
    ------------   -----------------  -----------------  -----------------  -----------------
         C            2.220444411235     1.271902878834    -0.949204191402    12.000000000000
         C            0.857444411235    -0.676097121166    -0.299204191402    12.000000000000
         N            1.663444411235     0.324902878834     0.017795808598    14.003074004430
         N            0.612444411235    -0.954097121166    -1.569204191402    14.003074004430
         N            0.370444411235    -1.451097121166     0.650795808598    14.003074004430
         H            1.882444411235     0.464902878834     0.994795808598     1.007825032230
         H            1.153444411235    -0.516097121166    -2.314204191402     1.007825032230
         H            0.039444411235    -1.746097121166    -1.803204191402     1.007825032230
         H            0.616444411235    -1.290097121166     1.615795808598     1.007825032230
         H           -0.193555588765    -2.253097121166     0.416795808598     1.007825032230
         H            2.470444411235     0.789902878834    -1.893204191402     1.007825032230
         H            3.148444411235     1.673902878834    -0.534204191402     1.007825032230
         H            1.528006411235     2.109522878834    -1.119289191402     1.007825032230
         C           -2.125555588765     0.926902878834     0.801795808598    12.000000000000
         C           -3.514555588765     0.588902878834     1.342795808598    12.000000000000
         H           -1.915555588765     1.989902878834     0.933795808598     1.007825032230
         H           -1.379555588765     0.360902878834     1.354795808598     1.007825032230
         H           -2.058555588765     0.670902878834    -0.257204191402     1.007825032230
         H           -3.791555588765    -0.415097121166     1.018795808598     1.007825032230
         H           -4.261944588765     1.313232878834     0.986755808598     1.007825032230
         H           -3.499088588765     0.609012878834     2.442505808598     1.007825032230

  Running in c1 symmetry.

  Rotational constants: A =      0.10845  B =      0.03314  C =      0.02994 [cm^-1]
  Rotational constants: A =   3251.29389  B =    993.49064  C =    897.66529 [MHz]
  Nuclear repulsion =  323.320949992032922

  Charge       = 1
  Multiplicity = 1
  Electrons    = 58
  Nalpha       = 29
  Nbeta        = 29

  ==> Algorithm <==

  SCF Algorithm Type is PK.
  DIIS enabled.
  MOM disabled.
  Fractional occupation disabled.
  Guess Type is SAD.
  Energy threshold   = 1.00e-06
  Density threshold  = 1.00e-10
  Integral threshold = 0.00e+00

  ==> Primary Basis <==

  Basis Set: CC-PVDZ
    Blend: CC-PVDZ
    Number of shells: 84
    Number of basis function: 168
    Number of Cartesian functions: 175
    Spherical Harmonics?: true
    Max angular momentum: 2

  ==> Pre-Iterations <==

   -------------------------------------------------------
    Irrep   Nso     Nmo     Nalpha   Nbeta   Ndocc  Nsocc
   -------------------------------------------------------
     A        168     168       0       0       0       0
   -------------------------------------------------------
    Total     168     168      29      29      29       0
   -------------------------------------------------------

  ==> Integral Setup <==

  Using integral reordering PK algorithm.
  Sizing the integral batches needed.
  Building batch lookup table.
   Calculation information:
      Number of atoms:                  21
      Number of AO shells:              84
      Number of primitives:            224
      Number of atomic orbitals:       175
      Number of basis functions:       168

      Integral cutoff                 1.00e-12
      Number of threads:                 1

	Batch   1 pq = [       0,    9405] index = [             0,44231715] size =     44231715
	Batch   2 pq = [    9405,   13301] index = [      44231715,88464951] size =     44233236
	Batch   3 pq = [   13301,   14196] index = [      88464951,100770306] size =     12305355
  Task number: 10
  Buffer size: 11059200
  Buffer per thread: 2
  We computed 5746714 shell quartets total.
  Whereas there are 6374235 unique shell quartets.

  ==> DiskJK: Disk-Based J/K Matrices <==

    J tasked:                  Yes
    K tasked:                  Yes
    wK tasked:                  No
    Memory [MiB]:              375
    Schwarz Cutoff:          1E-12

    OpenMP threads:              1

  Minimum eigenvalue in the overlap matrix is 3.4374670798E-03.
  Using Symmetric Orthogonalization.

  SCF Guess: Superposition of Atomic Densities via on-the-fly atomic UHF.

  ==> Iterations <==

                        Total Energy        Delta E     RMS |[F,P]|

   @RHF iter SAD:  -322.12584825066887   -3.22126e+02   0.00000e+00
   @RHF iter   1:  -322.61339281005070   -4.87545e-01   3.42499e-03 DIIS
   @RHF iter   2:  -322.78587003042662   -1.72477e-01   1.34942e-03 DIIS
   @RHF iter   3:  -322.81135175408144   -2.54817e-02   3.20678e-04 DIIS
   @RHF iter   4:  -322.81376256033207   -2.41081e-03   5.15008e-05 DIIS
   @RHF iter   5:  -322.81382675871100   -6.41984e-05   2.09731e-05 DIIS
   @RHF iter   6:  -322.81383574696326   -8.98825e-06   4.22881e-06 DIIS
   @RHF iter   7:  -322.81383636909453   -6.22131e-07   1.41639e-06 DIIS
   @RHF iter   8:  -322.81383641562917   -4.65346e-08   4.20239e-07 DIIS
   @RHF iter   9:  -322.81383642007654   -4.44737e-09   9.92327e-08 DIIS
   @RHF iter  10:  -322.81383642034740   -2.70859e-10   2.84964e-08 DIIS
   @RHF iter  11:  -322.81383642037093   -2.35332e-11   8.16345e-09 DIIS
   @RHF iter  12:  -322.81383642037270   -1.76215e-12   2.50549e-09 DIIS
   @RHF iter  13:  -322.81383642037264    5.68434e-14   8.69508e-10 DIIS
   @RHF iter  14:  -322.81383642037292   -2.84217e-13   2.90519e-10 DIIS
   @RHF iter  15:  -322.81383642037304   -1.13687e-13   6.82166e-11 DIIS
  Energy and wave function converged.

  ==> Post-Iterations <==

    Orbital Energies [Eh]
    ---------------------

    Doubly Occupied:

       1A    -15.789385     2A    -15.787888     3A    -15.787603
       4A    -11.590889     5A    -11.442846     6A    -11.330395
       7A    -11.317978     8A     -1.546230     9A     -1.403460
      10A     -1.391754    11A     -1.143188    12A     -1.125157
      13A     -1.039327    14A     -0.979222    15A     -0.943677
      16A     -0.941643    17A     -0.860947    18A     -0.857863
      19A     -0.823473    20A     -0.795229    21A     -0.746319
      22A     -0.724261    23A     -0.705794    24A     -0.704588
      25A     -0.621364    26A     -0.605520    27A     -0.592155
      28A     -0.589417    29A     -0.583682

    Virtual:

      30A     -0.013240    31A      0.018699    32A      0.024080
      33A      0.030893    34A      0.056899    35A      0.076410
      36A      0.091370    37A      0.110886    38A      0.118428
      39A      0.140386    40A      0.152863    41A      0.160408
      42A      0.163881    43A      0.189531    44A      0.200265
      45A      0.202441    46A      0.266098    47A      0.298688
      48A      0.332515    49A      0.336890    50A      0.427074
      51A      0.445922    52A      0.481075    53A      0.489246
      54A      0.491550    55A      0.519309    56A      0.526038
      57A      0.540742    58A      0.557071    59A      0.559275
      60A      0.570169    61A      0.586795    62A      0.652105
      63A      0.687011    64A      0.691878    65A      0.699689
      66A      0.707649    67A      0.734749    68A      0.749706
      69A      0.757704    70A      0.773992    71A      0.787361
      72A      0.793916    73A      0.798947    74A      0.801386
      75A      0.816325    76A      0.844804    77A      0.849807
      78A      0.861705    79A      0.885281    80A      0.906396
      81A      0.928235    82A      0.962739    83A      1.001877
      84A      1.015941    85A      1.036022    86A      1.054128
      87A      1.104939    88A      1.108443    89A      1.136171
      90A      1.171806    91A      1.197862    92A      1.230041
      93A      1.235931    94A      1.286654    95A      1.363722
      96A      1.377174    97A      1.387525    98A      1.460398
      99A      1.468554   100A      1.500403   101A      1.526504
     102A      1.550119   103A      1.571155   104A      1.590603
     105A      1.604771   106A      1.608944   107A      1.661506
     108A      1.701117   109A      1.718399   110A      1.736481
     111A      1.742886   112A      1.748934   113A      1.761485
     114A      1.769094   115A      1.786272   116A      1.803384
     117A      1.821102   118A      1.821435   119A      1.836702
     120A      1.842067   121A      1.847980   122A      1.853713
     123A      1.873279   124A      1.883758   125A      1.898336
     126A      1.989992   127A      2.007972   128A      2.016919
     129A      2.024420   130A      2.050202   131A      2.122777
     132A      2.154914   133A      2.166350   134A      2.192053
     135A      2.214766   136A      2.237409   137A      2.256970
     138A      2.292595   139A      2.325198   140A      2.330748
     141A      2.341363   142A      2.358913   143A      2.372444
     144A      2.440645   145A      2.446314   146A      2.468578
     147A      2.474858   148A      2.516558   149A      2.587528
     150A      2.596165   151A      2.645541   152A      2.665245
     153A      2.674437   154A      2.720239   155A      2.738340
     156A      2.741776   157A      2.752893   158A      2.798573
     159A      2.814209   160A      2.836138   161A      2.856499
     162A      2.858720   163A      2.896875   164A      3.050942
     165A      3.092929   166A      3.104447   167A      3.576800
     168A      3.635146

    Final Occupation by Irrep:
              A
    DOCC [    29 ]

  @RHF Final Energy:  -322.81383642037304

   => Energetics <=

    Nuclear Repulsion Energy =            323.3209499920329222
    One-Electron Energy =               -1066.7270645651469749
    Two-Electron Energy =                 420.5922781527410734
    Total Energy =                       -322.8138364203730362

Computation Completed

Properties will be evaluated at   0.000000,   0.000000,   0.000000 [a0]

Properties computed using the SCF density matrix

  Nuclear Dipole Moment: [e a0]
     X:    -5.8773      Y:     3.5325      Z:     1.7301

  Electronic Dipole Moment: [e a0]
     X:     7.6906      Y:    -4.5842      Z:    -2.3243

  Dipole Moment: [e a0]
     X:     1.8133      Y:    -1.0517      Z:    -0.5942     Total:     2.1788

  Dipole Moment: [D]
     X:     4.6090      Y:    -2.6732      Z:    -1.5103     Total:     5.5380

*** tstop() called on ds3 at Tue Apr 28 10:51:51 2020
Module time:
	user time   =      34.66 seconds =       0.58 minutes
	system time =      12.91 seconds =       0.22 minutes
	total time  =         63 seconds =       1.05 minutes
Total time:
	user time   =      34.66 seconds =       0.58 minutes
	system time =      12.91 seconds =       0.22 minutes
	total time  =         63 seconds =       1.05 minutes
                                     G D M A

                                 by Anthony Stone

                           version 2.2.06, 22 June 2011

               Distributed Multipoles from Gaussian wavefunctions

Starting at 10:51:51 on 28 Apr 2020

Using SCF density matrix from file ./SSI/SSI-021ARG-033THR-1-dimer.test.18699.fchk

                         Distributed Multipole Analysis

Standard DMA

Positions and radii in angstrom
Multipole moments in atomic units, ea_0^k for rank k

C          x =  2.220444  y =  1.271903  z = -0.949204 angstrom
           Maximum rank =  0   Radius =  0.650 angstrom
                   Q00  =  -0.128286

C          x =  0.857444  y = -0.676097  z = -0.299204 angstrom
           Maximum rank =  0   Radius =  0.650 angstrom
                   Q00  =   1.076379

N          x =  1.663444  y =  0.324903  z =  0.017796 angstrom
           Maximum rank =  0   Radius =  0.650 angstrom
                   Q00  =  -0.488323

N          x =  0.612444  y = -0.954097  z = -1.569204 angstrom
           Maximum rank =  0   Radius =  0.650 angstrom
                   Q00  =  -0.585022

N          x =  0.370444  y = -1.451097  z =  0.650796 angstrom
           Maximum rank =  0   Radius =  0.650 angstrom
                   Q00  =  -0.581602

H          x =  1.882444  y =  0.464903  z =  0.994796 angstrom
           Maximum rank =  0   Radius =  0.325 angstrom
                   Q00  =   0.237487

H          x =  1.153444  y = -0.516097  z = -2.314204 angstrom
           Maximum rank =  0   Radius =  0.325 angstrom
                   Q00  =   0.275793

H          x =  0.039444  y = -1.746097  z = -1.803204 angstrom
           Maximum rank =  0   Radius =  0.325 angstrom
                   Q00  =   0.260889

H          x =  0.616444  y = -1.290097  z =  1.615796 angstrom
           Maximum rank =  0   Radius =  0.325 angstrom
                   Q00  =   0.268330

H          x = -0.193556  y = -2.253097  z =  0.416796 angstrom
           Maximum rank =  0   Radius =  0.325 angstrom
                   Q00  =   0.266464

H          x =  2.470444  y =  0.789903  z = -1.893204 angstrom
           Maximum rank =  0   Radius =  0.325 angstrom
                   Q00  =   0.109114

H          x =  3.148444  y =  1.673903  z = -0.534204 angstrom
           Maximum rank =  0   Radius =  0.325 angstrom
                   Q00  =   0.160815

H          x =  1.528006  y =  2.109523  z = -1.119289 angstrom
           Maximum rank =  0   Radius =  0.325 angstrom
                   Q00  =   0.132750

C          x = -2.125556  y =  0.926903  z =  0.801796 angstrom
           Maximum rank =  0   Radius =  0.650 angstrom
                   Q00  =  -0.267945

C          x = -3.514556  y =  0.588903  z =  1.342796 angstrom
           Maximum rank =  0   Radius =  0.650 angstrom
                   Q00  =  -0.208818

H          x = -1.915556  y =  1.989903  z =  0.933796 angstrom
           Maximum rank =  0   Radius =  0.325 angstrom
                   Q00  =   0.097502

H          x = -1.379556  y =  0.360903  z =  1.354796 angstrom
           Maximum rank =  0   Radius =  0.325 angstrom
                   Q00  =   0.043366

H          x = -2.058556  y =  0.670903  z = -0.257204 angstrom
           Maximum rank =  0   Radius =  0.325 angstrom
                   Q00  =   0.064668

H          x = -3.791556  y = -0.415097  z =  1.018796 angstrom
           Maximum rank =  0   Radius =  0.325 angstrom
                   Q00  =   0.076036

H          x = -4.261945  y =  1.313233  z =  0.986756 angstrom
           Maximum rank =  0   Radius =  0.325 angstrom
                   Q00  =   0.101779

H          x = -3.499089  y =  0.609013  z =  2.442506 angstrom
           Maximum rank =  0   Radius =  0.325 angstrom
                   Q00  =   0.088624

Total multipoles referred to origin at
           x =   0.000000,  y =    0.000000,  z =    0.000000 angstrom
                   Q00  =   1.000000

Finished at 10:51:51 on 28 Apr 2020

  DMA results are available in the Python driver through the
	  variable('DMA DISTRIBUTED MULTIPOLES')
  and
	  variable('DMA TOTAL MULTIPOLES')
  commands.

    Psi4 stopped on: Tuesday, 28 April 2020 10:51AM
    Psi4 wall time for execution: 0:01:03.62

*** Psi4 exiting successfully. Buy a developer a beer!
