                               Psi4 1.3.2 release

  ==> Input File <==

--------------------------------------------------------------------------
import numpy as np
set {scf_type pk
basis cc-pvdz
d_convergence 10
gdma_switch   0
gdma_limit    0
gdma_origin   [ 0.0,  0.0,  0.0 ]
}
molecule test {
    units Angstrom
    0 1
    --
    0 1
    C               -1.949431021288839     1.099287019438707     0.440405164028632
    O               -1.218431021288839    -0.056712980561293     0.850405164028632
    H               -0.466431021288839    -0.167712980561293     0.236405164028632
    H               -2.911431021288839     1.106287019438707     0.955405164028632
    H               -1.382077021288839     2.002347019438707     0.709827164028632
    H               -2.122623021288839     1.049697019438707    -0.644742835971368
    C                2.249568978711161    -0.351712980561293    -0.451594835971368
    O                0.881568978711161    -0.607712980561293    -0.775594835971368
    H                0.849568978711161    -1.477712980561293    -1.200594835971368
    H                2.885568978711161    -0.946712980561293    -1.107594835971368
    H                2.473278978711162     0.715747019438707    -0.594737835971368
    H                2.446698978711161    -0.638252980561293     0.591972164028632

}
e, wfn = energy('scf', return_wfn=True)
gdma(wfn)
dmavals = variable('DMA DISTRIBUTED MULTIPOLES')
charges = np.array(dmavals)
print(charges)
np.save('SSI-039THR-046THR-1-dimer.npy', np.array(charges))--------------------------------------------------------------------------

*** tstart() called on ds3
*** at Tue Apr 28 20:59:34 2020

   => Loading Basis Set <=

    Name: CC-PVDZ
    Role: ORBITAL
    Keyword: BASIS
    atoms 1, 7      entry C          line   138 file /theoryfs2/ds/metcalf/miniconda2/envs/tf2gpu/share/psi4/basis/cc-pvdz.gbs
    atoms 2, 8      entry O          line   198 file /theoryfs2/ds/metcalf/miniconda2/envs/tf2gpu/share/psi4/basis/cc-pvdz.gbs
    atoms 3-6, 9-12 entry H          line    22 file /theoryfs2/ds/metcalf/miniconda2/envs/tf2gpu/share/psi4/basis/cc-pvdz.gbs

         ---------------------------------------------------------
                                   SCF
               by Justin Turney, Rob Parrish, Andy Simmonett
                          and Daniel G. A. Smith
                              RHF Reference
                        1 Threads,    500 MiB Core
         ---------------------------------------------------------

  ==> Geometry <==

    Molecular point group: c1
    Full point group: C1

    Geometry (in Angstrom), charge = 0, multiplicity = 1:

       Center              X                  Y                   Z               Mass
    ------------   -----------------  -----------------  -----------------  -----------------
         C           -1.949431021289     1.099287019439     0.440405164029    12.000000000000
         O           -1.218431021289    -0.056712980561     0.850405164029    15.994914619570
         H           -0.466431021289    -0.167712980561     0.236405164029     1.007825032230
         H           -2.911431021289     1.106287019439     0.955405164029     1.007825032230
         H           -1.382077021289     2.002347019439     0.709827164029     1.007825032230
         H           -2.122623021289     1.049697019439    -0.644742835971     1.007825032230
         C            2.249568978711    -0.351712980561    -0.451594835971    12.000000000000
         O            0.881568978711    -0.607712980561    -0.775594835971    15.994914619570
         H            0.849568978711    -1.477712980561    -1.200594835971     1.007825032230
         H            2.885568978711    -0.946712980561    -1.107594835971     1.007825032230
         H            2.473278978711     0.715747019439    -0.594737835971     1.007825032230
         H            2.446698978711    -0.638252980561     0.591972164029     1.007825032230

  Running in c1 symmetry.

  Rotational constants: A =      0.64147  B =      0.07382  C =      0.07305 [cm^-1]
  Rotational constants: A =  19230.65438  B =   2213.13727  C =   2189.90809 [MHz]
  Nuclear repulsion =  128.903411742520888

  Charge       = 0
  Multiplicity = 1
  Electrons    = 36
  Nalpha       = 18
  Nbeta        = 18

  ==> Algorithm <==

  SCF Algorithm Type is PK.
  DIIS enabled.
  MOM disabled.
  Fractional occupation disabled.
  Guess Type is SAD.
  Energy threshold   = 1.00e-06
  Density threshold  = 1.00e-10
  Integral threshold = 0.00e+00

  ==> Primary Basis <==

  Basis Set: CC-PVDZ
    Blend: CC-PVDZ
    Number of shells: 48
    Number of basis function: 96
    Number of Cartesian functions: 100
    Spherical Harmonics?: true
    Max angular momentum: 2

  ==> Pre-Iterations <==

   -------------------------------------------------------
    Irrep   Nso     Nmo     Nalpha   Nbeta   Ndocc  Nsocc
   -------------------------------------------------------
     A         96      96       0       0       0       0
   -------------------------------------------------------
    Total      96      96      18      18      18       0
   -------------------------------------------------------

  ==> Integral Setup <==

  Using in-core PK algorithm.
   Calculation information:
      Number of atoms:                  12
      Number of AO shells:              48
      Number of primitives:            128
      Number of atomic orbitals:       100
      Number of basis functions:        96

      Integral cutoff                 1.00e-12
      Number of threads:                 1

  Performing in-core PK
  Using 21682992 doubles for integral storage.
  We computed 601470 shell quartets total.
  Whereas there are 692076 unique shell quartets.

  ==> DiskJK: Disk-Based J/K Matrices <==

    J tasked:                  Yes
    K tasked:                  Yes
    wK tasked:                  No
    Memory [MiB]:              375
    Schwarz Cutoff:          1E-12

    OpenMP threads:              1

  Minimum eigenvalue in the overlap matrix is 1.5603666323E-02.
  Using Symmetric Orthogonalization.

  SCF Guess: Superposition of Atomic Densities via on-the-fly atomic UHF.

  ==> Iterations <==

                        Total Energy        Delta E     RMS |[F,P]|

   @RHF iter SAD:  -228.84707527298050   -2.28847e+02   0.00000e+00
   @RHF iter   1:  -229.98122192985269   -1.13415e+00   5.03111e-03 DIIS
   @RHF iter   2:  -230.07838066327940   -9.71587e-02   2.52390e-03 DIIS
   @RHF iter   3:  -230.09989978477137   -2.15191e-02   4.63196e-04 DIIS
   @RHF iter   4:  -230.10132363201495   -1.42385e-03   1.10505e-04 DIIS
   @RHF iter   5:  -230.10140271102020   -7.90790e-05   2.87312e-05 DIIS
   @RHF iter   6:  -230.10140857272046   -5.86170e-06   6.60346e-06 DIIS
   @RHF iter   7:  -230.10140907825593   -5.05535e-07   1.38801e-06 DIIS
   @RHF iter   8:  -230.10140910394986   -2.56939e-08   2.34089e-07 DIIS
   @RHF iter   9:  -230.10140910464207   -6.92211e-10   5.46969e-08 DIIS
   @RHF iter  10:  -230.10140910467203   -2.99565e-11   1.83490e-08 DIIS
   @RHF iter  11:  -230.10140910467507   -3.04112e-12   5.50723e-09 DIIS
   @RHF iter  12:  -230.10140910467553   -4.54747e-13   1.88892e-09 DIIS
   @RHF iter  13:  -230.10140910467553    0.00000e+00   4.74548e-10 DIIS
   @RHF iter  14:  -230.10140910467538    1.42109e-13   1.25012e-10 DIIS
   @RHF iter  15:  -230.10140910467564   -2.55795e-13   4.79766e-11 DIIS
  Energy and wave function converged.

  ==> Post-Iterations <==

    Orbital Energies [Eh]
    ---------------------

    Doubly Occupied:

       1A    -20.581676     2A    -20.502920     3A    -11.296000
       4A    -11.251833     5A     -1.379145     6A     -1.303379
       7A     -0.940056     8A     -0.890640     9A     -0.713130
      10A     -0.657018    11A     -0.631977    12A     -0.604398
      13A     -0.586823    14A     -0.555002    15A     -0.522542
      16A     -0.472649    17A     -0.452339    18A     -0.406169

    Virtual:

      19A      0.162970    20A      0.205946    21A      0.214436
      22A      0.252277    23A      0.258766    24A      0.283781
      25A      0.284167    26A      0.323791    27A      0.353287
      28A      0.453979    29A      0.619904    30A      0.621434
      31A      0.658508    32A      0.664843    33A      0.701959
      34A      0.752633    35A      0.796687    36A      0.837772
      37A      0.843887    38A      0.870364    39A      0.878854
      40A      0.886233    41A      0.914943    42A      0.924708
      43A      1.107419    44A      1.119218    45A      1.145121
      46A      1.166136    47A      1.174235    48A      1.204587
      49A      1.250555    50A      1.334716    51A      1.385585
      52A      1.430592    53A      1.472212    54A      1.587355
      55A      1.614857    56A      1.651663    57A      1.681769
      58A      1.684387    59A      1.721596    60A      1.738592
      61A      1.846129    62A      1.868087    63A      1.887176
      64A      1.896744    65A      1.921111    66A      1.926033
      67A      1.959211    68A      1.980881    69A      2.033223
      70A      2.082703    71A      2.102535    72A      2.178684
      73A      2.275669    74A      2.314520    75A      2.355056
      76A      2.379794    77A      2.407776    78A      2.440464
      79A      2.463050    80A      2.711622    81A      2.721807
      82A      2.739418    83A      2.764459    84A      2.779203
      85A      2.780537    86A      2.857448    87A      3.322281
      88A      3.327418    89A      3.356678    90A      3.421194
      91A      3.426404    92A      3.479477    93A      3.551475
      94A      3.626727    95A      4.065824    96A      4.173020

    Final Occupation by Irrep:
              A
    DOCC [    18 ]

  @RHF Final Energy:  -230.10140910467564

   => Energetics <=

    Nuclear Repulsion Energy =            128.9034117425208876
    One-Electron Energy =                -570.5142522767716855
    Two-Electron Energy =                 211.5094314295751303
    Total Energy =                       -230.1014091046756391

Computation Completed

Properties will be evaluated at   0.000000,   0.000000,   0.000000 [a0]

Properties computed using the SCF density matrix

  Nuclear Dipole Moment: [e a0]
     X:     1.6601      Y:     1.5377      Z:    -0.9878

  Electronic Dipole Moment: [e a0]
     X:    -0.5698      Y:    -1.7071      Z:     0.1370

  Dipole Moment: [e a0]
     X:     1.0903      Y:    -0.1693      Z:    -0.8508     Total:     1.3933

  Dipole Moment: [D]
     X:     2.7713      Y:    -0.4304      Z:    -2.1625     Total:     3.5415

*** tstop() called on ds3 at Tue Apr 28 20:59:39 2020
Module time:
	user time   =       4.47 seconds =       0.07 minutes
	system time =       0.08 seconds =       0.00 minutes
	total time  =          5 seconds =       0.08 minutes
Total time:
	user time   =       4.47 seconds =       0.07 minutes
	system time =       0.08 seconds =       0.00 minutes
	total time  =          5 seconds =       0.08 minutes
                                     G D M A

                                 by Anthony Stone

                           version 2.2.06, 22 June 2011

               Distributed Multipoles from Gaussian wavefunctions

Starting at 20:59:39 on 28 Apr 2020

Using SCF density matrix from file ./SSI/SSI-039THR-046THR-1-dimer.test.7154.fchk

                         Distributed Multipole Analysis

Standard DMA

Positions and radii in angstrom
Multipole moments in atomic units, ea_0^k for rank k

C          x = -1.949431  y =  1.099287  z =  0.440405 angstrom
           Maximum rank =  0   Radius =  0.650 angstrom
                   Q00  =  -0.037033

O          x = -1.218431  y = -0.056713  z =  0.850405 angstrom
           Maximum rank =  0   Radius =  0.650 angstrom
                   Q00  =  -0.673968

H          x = -0.466431  y = -0.167713  z =  0.236405 angstrom
           Maximum rank =  0   Radius =  0.325 angstrom
                   Q00  =   0.481985

H          x = -2.911431  y =  1.106287  z =  0.955405 angstrom
           Maximum rank =  0   Radius =  0.325 angstrom
                   Q00  =   0.100413

H          x = -1.382077  y =  2.002347  z =  0.709827 angstrom
           Maximum rank =  0   Radius =  0.325 angstrom
                   Q00  =   0.058435

H          x = -2.122623  y =  1.049697  z = -0.644743 angstrom
           Maximum rank =  0   Radius =  0.325 angstrom
                   Q00  =   0.058940

C          x =  2.249569  y = -0.351713  z = -0.451595 angstrom
           Maximum rank =  0   Radius =  0.650 angstrom
                   Q00  =  -0.061411

O          x =  0.881569  y = -0.607713  z = -0.775595 angstrom
           Maximum rank =  0   Radius =  0.650 angstrom
                   Q00  =  -0.635774

H          x =  0.849569  y = -1.477713  z = -1.200595 angstrom
           Maximum rank =  0   Radius =  0.325 angstrom
                   Q00  =   0.412653

H          x =  2.885569  y = -0.946713  z = -1.107595 angstrom
           Maximum rank =  0   Radius =  0.325 angstrom
                   Q00  =   0.087421

H          x =  2.473279  y =  0.715747  z = -0.594738 angstrom
           Maximum rank =  0   Radius =  0.325 angstrom
                   Q00  =   0.115180

H          x =  2.446699  y = -0.638253  z =  0.591972 angstrom
           Maximum rank =  0   Radius =  0.325 angstrom
                   Q00  =   0.093159

Total multipoles referred to origin at
           x =   0.000000,  y =    0.000000,  z =    0.000000 angstrom
                   Q00  =  -0.000000

Finished at 20:59:39 on 28 Apr 2020

  DMA results are available in the Python driver through the
	  variable('DMA DISTRIBUTED MULTIPOLES')
  and
	  variable('DMA TOTAL MULTIPOLES')
  commands.

    Psi4 stopped on: Tuesday, 28 April 2020 08:59PM
    Psi4 wall time for execution: 0:00:04.80

*** Psi4 exiting successfully. Buy a developer a beer!
