                               Psi4 1.3.2 release

  ==> Input File <==

--------------------------------------------------------------------------
import numpy as np
set {scf_type pk
basis cc-pvdz
d_convergence 10
gdma_switch   0
gdma_limit    0
gdma_origin   [ 0.0,  0.0,  0.0 ]
}
molecule test {
    units Angstrom
    0 1
    --
    0 1
    C               -0.719310743716833    -1.456582564637235    -1.609917664953857
    C               -1.516310743716833    -2.628582564637234    -2.152917664953857
    S                0.849689256283166    -1.078582564637235    -2.397917664953857
    H               -1.344310743716834    -0.566582564637235    -1.625917664953857
    H               -0.508310743716833    -1.679582564637235    -0.561917664953857
    H               -2.323310743716833    -2.827582564637235    -1.446917664953857
    H                1.426689256283166    -0.530582564637235    -1.313917664953857
    H               -0.875970743716833    -3.519916564637235    -2.227007664953857
    H               -2.009600743716834    -2.377623564637235    -3.103537664953857
    C                1.435689256283166     2.586417435362765     0.670082335046143
    C               -0.481310743716834    -0.244582564637235     1.794082335046143
    C                0.469689256283166     1.651417435362765     1.307082335046143
    C               -0.471310743716834     1.901417435362765     2.250082335046143
    N                0.475689256283166     0.297417435362765     1.037082335046143
    N               -1.050310743716834     0.681417435362765     2.560082335046143
    H               -0.694310743716833    -1.293582564637234     1.850082335046143
    H               -1.758310743716833     0.512417435362765     3.278082335046143
    H               -0.695310743716834     2.863417435362765     2.695082335046143
    H                2.423689256283166     2.313417435362765     1.042082335046143
    H                1.216689256283167     3.581417435362766     1.043082335046143
    H                1.445809256283167     2.595818435362765    -0.429827664953857

}
e, wfn = energy('scf', return_wfn=True)
gdma(wfn)
dmavals = variable('DMA DISTRIBUTED MULTIPOLES')
charges = np.array(dmavals)
print(charges)
np.save('SSI-119CYS-168HIE-1-dimer.npy', np.array(charges))--------------------------------------------------------------------------

*** tstart() called on ds3
*** at Sun Apr 26 21:36:39 2020

   => Loading Basis Set <=

    Name: CC-PVDZ
    Role: ORBITAL
    Keyword: BASIS
    atoms 1-2, 10-13 entry C          line   138 file /theoryfs2/ds/metcalf/miniconda2/envs/tf2gpu/share/psi4/basis/cc-pvdz.gbs
    atoms 3          entry S          line   598 file /theoryfs2/ds/metcalf/miniconda2/envs/tf2gpu/share/psi4/basis/cc-pvdz.gbs
    atoms 4-9, 16-21 entry H          line    22 file /theoryfs2/ds/metcalf/miniconda2/envs/tf2gpu/share/psi4/basis/cc-pvdz.gbs
    atoms 14-15      entry N          line   168 file /theoryfs2/ds/metcalf/miniconda2/envs/tf2gpu/share/psi4/basis/cc-pvdz.gbs

         ---------------------------------------------------------
                                   SCF
               by Justin Turney, Rob Parrish, Andy Simmonett
                          and Daniel G. A. Smith
                              RHF Reference
                        1 Threads,    500 MiB Core
         ---------------------------------------------------------

  ==> Geometry <==

    Molecular point group: c1
    Full point group: C1

    Geometry (in Angstrom), charge = 0, multiplicity = 1:

       Center              X                  Y                   Z               Mass
    ------------   -----------------  -----------------  -----------------  -----------------
         C           -0.719310743717    -1.456582564637    -1.609917664954    12.000000000000
         C           -1.516310743717    -2.628582564637    -2.152917664954    12.000000000000
         S            0.849689256283    -1.078582564637    -2.397917664954    31.972071174400
         H           -1.344310743717    -0.566582564637    -1.625917664954     1.007825032230
         H           -0.508310743717    -1.679582564637    -0.561917664954     1.007825032230
         H           -2.323310743717    -2.827582564637    -1.446917664954     1.007825032230
         H            1.426689256283    -0.530582564637    -1.313917664954     1.007825032230
         H           -0.875970743717    -3.519916564637    -2.227007664954     1.007825032230
         H           -2.009600743717    -2.377623564637    -3.103537664954     1.007825032230
         C            1.435689256283     2.586417435363     0.670082335046    12.000000000000
         C           -0.481310743717    -0.244582564637     1.794082335046    12.000000000000
         C            0.469689256283     1.651417435363     1.307082335046    12.000000000000
         C           -0.471310743717     1.901417435363     2.250082335046    12.000000000000
         N            0.475689256283     0.297417435363     1.037082335046    14.003074004430
         N           -1.050310743717     0.681417435363     2.560082335046    14.003074004430
         H           -0.694310743717    -1.293582564637     1.850082335046     1.007825032230
         H           -1.758310743717     0.512417435363     3.278082335046     1.007825032230
         H           -0.695310743717     2.863417435363     2.695082335046     1.007825032230
         H            2.423689256283     2.313417435363     1.042082335046     1.007825032230
         H            1.216689256283     3.581417435363     1.043082335046     1.007825032230
         H            1.445809256283     2.595818435363    -0.429827664954     1.007825032230

  Running in c1 symmetry.

  Rotational constants: A =      0.06697  B =      0.02021  C =      0.01630 [cm^-1]
  Rotational constants: A =   2007.69658  B =    606.01019  C =    488.63782 [MHz]
  Nuclear repulsion =  496.540408328519618

  Charge       = 0
  Multiplicity = 1
  Electrons    = 78
  Nalpha       = 39
  Nbeta        = 39

  ==> Algorithm <==

  SCF Algorithm Type is PK.
  DIIS enabled.
  MOM disabled.
  Fractional occupation disabled.
  Guess Type is SAD.
  Energy threshold   = 1.00e-06
  Density threshold  = 1.00e-10
  Integral threshold = 0.00e+00

  ==> Primary Basis <==

  Basis Set: CC-PVDZ
    Blend: CC-PVDZ
    Number of shells: 92
    Number of basis function: 190
    Number of Cartesian functions: 199
    Spherical Harmonics?: true
    Max angular momentum: 2

  ==> Pre-Iterations <==

   -------------------------------------------------------
    Irrep   Nso     Nmo     Nalpha   Nbeta   Ndocc  Nsocc
   -------------------------------------------------------
     A        190     190       0       0       0       0
   -------------------------------------------------------
    Total     190     190      39      39      39       0
   -------------------------------------------------------

  ==> Integral Setup <==

  Using integral reordering PK algorithm.
  Sizing the integral batches needed.
  Building batch lookup table.
   Calculation information:
      Number of atoms:                  21
      Number of AO shells:              92
      Number of primitives:            286
      Number of atomic orbitals:       199
      Number of basis functions:       190

      Integral cutoff                 1.00e-12
      Number of threads:                 1

	Batch   1 pq = [       0,    9405] index = [             0,44231715] size =     44231715
	Batch   2 pq = [    9405,   13301] index = [      44231715,88464951] size =     44233236
	Batch   3 pq = [   13301,   16290] index = [      88464951,132690195] size =     44225244
	Batch   4 pq = [   16290,   18145] index = [     132690195,164629585] size =     31939390
  Task number: 15
  Buffer size: 11059200
  Buffer per thread: 2
  We computed 7515485 shell quartets total.
  Whereas there are 9152781 unique shell quartets.

  ==> DiskJK: Disk-Based J/K Matrices <==

    J tasked:                  Yes
    K tasked:                  Yes
    wK tasked:                  No
    Memory [MiB]:              375
    Schwarz Cutoff:          1E-12

    OpenMP threads:              1

  Minimum eigenvalue in the overlap matrix is 1.2219331085E-03.
  Using Symmetric Orthogonalization.

  SCF Guess: Superposition of Atomic Densities via on-the-fly atomic UHF.

  ==> Iterations <==

                        Total Energy        Delta E     RMS |[F,P]|

   @RHF iter SAD:  -739.88440840087287   -7.39884e+02   0.00000e+00
   @RHF iter   1:  -740.42164107663950   -5.37233e-01   2.94168e-03 DIIS
   @RHF iter   2:  -740.59215571104232   -1.70515e-01   1.45807e-03 DIIS
   @RHF iter   3:  -740.62886788280048   -3.67122e-02   4.14142e-04 DIIS
   @RHF iter   4:  -740.63273780559064   -3.86992e-03   1.58843e-04 DIIS
   @RHF iter   5:  -740.63327455439696   -5.36749e-04   2.76642e-05 DIIS
   @RHF iter   6:  -740.63330011603034   -2.55616e-05   1.11744e-05 DIIS
   @RHF iter   7:  -740.63330407058288   -3.95455e-06   3.48049e-06 DIIS
   @RHF iter   8:  -740.63330476197314   -6.91390e-07   1.47711e-06 DIIS
   @RHF iter   9:  -740.63330489914915   -1.37176e-07   5.51117e-07 DIIS
   @RHF iter  10:  -740.63330491684940   -1.77002e-08   1.77136e-07 DIIS
   @RHF iter  11:  -740.63330491916179   -2.31239e-09   6.52783e-08 DIIS
   @RHF iter  12:  -740.63330491942327   -2.61480e-10   2.73501e-08 DIIS
   @RHF iter  13:  -740.63330491945942   -3.61524e-11   8.53059e-09 DIIS
   @RHF iter  14:  -740.63330491946374   -4.32010e-12   3.70402e-09 DIIS
   @RHF iter  15:  -740.63330491946613   -2.38742e-12   1.27555e-09 DIIS
   @RHF iter  16:  -740.63330491946499    1.13687e-12   4.56971e-10 DIIS
   @RHF iter  17:  -740.63330491946783   -2.84217e-12   1.73984e-10 DIIS
   @RHF iter  18:  -740.63330491946408    3.75167e-12   5.50218e-11 DIIS
  Energy and wave function converged.

  ==> Post-Iterations <==

    Orbital Energies [Eh]
    ---------------------

    Doubly Occupied:

       1A    -91.918588     2A    -15.631839     3A    -15.542536
       4A    -11.304426     5A    -11.258325     6A    -11.249701
       7A    -11.240183     8A    -11.227118     9A    -11.222149
      10A     -8.922361    11A     -6.604516    12A     -6.603176
      13A     -6.600871    14A     -1.348063    15A     -1.164745
      16A     -1.054515    17A     -1.040751    18A     -0.947535
      19A     -0.929917    20A     -0.830003    21A     -0.791212
      22A     -0.770393    23A     -0.747470    24A     -0.620242
      25A     -0.614942    26A     -0.612181    27A     -0.604660
      28A     -0.593262    29A     -0.560387    30A     -0.546928
      31A     -0.525594    32A     -0.518446    33A     -0.502240
      34A     -0.485113    35A     -0.430450    36A     -0.416261
      37A     -0.388328    38A     -0.327859    39A     -0.318127

    Virtual:

      40A      0.160778    41A      0.174789    42A      0.180715
      43A      0.193491    44A      0.217203    45A      0.220521
      46A      0.227532    47A      0.238738    48A      0.243882
      49A      0.256649    50A      0.274067    51A      0.277463
      52A      0.286883    53A      0.300774    54A      0.320283
      55A      0.374932    56A      0.385607    57A      0.406359
      58A      0.425836    59A      0.463084    60A      0.492394
      61A      0.545020    62A      0.580824    63A      0.598385
      64A      0.609620    65A      0.619941    66A      0.628989
      67A      0.640297    68A      0.643346    69A      0.665505
      70A      0.677000    71A      0.701383    72A      0.713225
      73A      0.732909    74A      0.740971    75A      0.746622
      76A      0.782311    77A      0.794395    78A      0.798372
      79A      0.815529    80A      0.829851    81A      0.837776
      82A      0.848467    83A      0.873902    84A      0.878162
      85A      0.883294    86A      0.887878    87A      0.890870
      88A      0.909925    89A      0.929102    90A      0.930334
      91A      0.940371    92A      0.946097    93A      0.949590
      94A      0.962444    95A      0.983529    96A      0.991835
      97A      1.004430    98A      1.028030    99A      1.059835
     100A      1.094925   101A      1.116397   102A      1.136037
     103A      1.164669   104A      1.208853   105A      1.237037
     106A      1.243909   107A      1.251451   108A      1.259746
     109A      1.297015   110A      1.308334   111A      1.318951
     112A      1.333186   113A      1.357971   114A      1.411394
     115A      1.422075   116A      1.445612   117A      1.477955
     118A      1.506191   119A      1.512973   120A      1.564288
     121A      1.572204   122A      1.632051   123A      1.641654
     124A      1.655589   125A      1.681394   126A      1.685942
     127A      1.693763   128A      1.750714   129A      1.764574
     130A      1.789529   131A      1.804944   132A      1.824409
     133A      1.850522   134A      1.868260   135A      1.879607
     136A      1.891283   137A      1.911854   138A      1.926394
     139A      1.931973   140A      1.943625   141A      1.955059
     142A      1.973969   143A      1.977902   144A      1.999994
     145A      2.002460   146A      2.015990   147A      2.042725
     148A      2.068804   149A      2.089951   150A      2.118558
     151A      2.126608   152A      2.141765   153A      2.168399
     154A      2.187094   155A      2.224629   156A      2.241343
     157A      2.297588   158A      2.322236   159A      2.334930
     160A      2.343301   161A      2.399726   162A      2.420706
     163A      2.432185   164A      2.437521   165A      2.460210
     166A      2.490944   167A      2.540890   168A      2.554217
     169A      2.575268   170A      2.602870   171A      2.672241
     172A      2.736779   173A      2.763534   174A      2.768096
     175A      2.773776   176A      2.794987   177A      2.815487
     178A      2.824845   179A      2.834145   180A      2.849738
     181A      2.879758   182A      2.903392   183A      2.919029
     184A      2.947359   185A      2.970076   186A      3.064206
     187A      3.151215   188A      3.242934   189A      3.452174
     190A      3.770763

    Final Occupation by Irrep:
              A
    DOCC [    39 ]

  @RHF Final Energy:  -740.63330491946408

   => Energetics <=

    Nuclear Repulsion Energy =            496.5404083285196180
    One-Electron Energy =               -2000.3166021114377600
    Two-Electron Energy =                 763.1428888634541181
    Total Energy =                       -740.6333049194640807

Computation Completed

Properties will be evaluated at   0.000000,   0.000000,   0.000000 [a0]

Properties computed using the SCF density matrix

  Nuclear Dipole Moment: [e a0]
     X:    -3.4413      Y:    -0.9022      Z:    -0.8243

  Electronic Dipole Moment: [e a0]
     X:     2.1747      Y:     1.2782      Z:     2.6598

  Dipole Moment: [e a0]
     X:    -1.2666      Y:     0.3760      Z:     1.8355     Total:     2.2616

  Dipole Moment: [D]
     X:    -3.2195      Y:     0.9558      Z:     4.6653     Total:     5.7484

*** tstop() called on ds3 at Sun Apr 26 21:38:34 2020
Module time:
	user time   =      68.86 seconds =       1.15 minutes
	system time =      25.14 seconds =       0.42 minutes
	total time  =        115 seconds =       1.92 minutes
Total time:
	user time   =      68.86 seconds =       1.15 minutes
	system time =      25.14 seconds =       0.42 minutes
	total time  =        115 seconds =       1.92 minutes
                                     G D M A

                                 by Anthony Stone

                           version 2.2.06, 22 June 2011

               Distributed Multipoles from Gaussian wavefunctions

Starting at 21:38:34 on 26 Apr 2020

Using SCF density matrix from file ./SSI/SSI-119CYS-168HIE-1-dimer.test.1827.fchk

                         Distributed Multipole Analysis

Standard DMA

Positions and radii in angstrom
Multipole moments in atomic units, ea_0^k for rank k

C          x = -0.719311  y = -1.456583  z = -1.609918 angstrom
           Maximum rank =  0   Radius =  0.650 angstrom
                   Q00  =  -0.168429

C          x = -1.516311  y = -2.628583  z = -2.152918 angstrom
           Maximum rank =  0   Radius =  0.650 angstrom
                   Q00  =  -0.224230

S          x =  0.849689  y = -1.078583  z = -2.397918 angstrom
           Maximum rank =  0   Radius =  0.650 angstrom
                   Q00  =  -0.130485

H          x = -1.344311  y = -0.566583  z = -1.625918 angstrom
           Maximum rank =  0   Radius =  0.325 angstrom
                   Q00  =   0.057103

H          x = -0.508311  y = -1.679583  z = -0.561918 angstrom
           Maximum rank =  0   Radius =  0.325 angstrom
                   Q00  =   0.062237

H          x = -2.323311  y = -2.827583  z = -1.446918 angstrom
           Maximum rank =  0   Radius =  0.325 angstrom
                   Q00  =   0.079790

H          x =  1.426689  y = -0.530583  z = -1.313918 angstrom
           Maximum rank =  0   Radius =  0.325 angstrom
                   Q00  =   0.140202

H          x = -0.875971  y = -3.519917  z = -2.227008 angstrom
           Maximum rank =  0   Radius =  0.325 angstrom
                   Q00  =   0.088671

H          x = -2.009601  y = -2.377624  z = -3.103538 angstrom
           Maximum rank =  0   Radius =  0.325 angstrom
                   Q00  =   0.083145

C          x =  1.435689  y =  2.586417  z =  0.670082 angstrom
           Maximum rank =  0   Radius =  0.650 angstrom
                   Q00  =  -0.195363

C          x = -0.481311  y = -0.244583  z =  1.794082 angstrom
           Maximum rank =  0   Radius =  0.650 angstrom
                   Q00  =   0.466101

C          x =  0.469689  y =  1.651417  z =  1.307082 angstrom
           Maximum rank =  0   Radius =  0.650 angstrom
                   Q00  =   0.226979

C          x = -0.471311  y =  1.901417  z =  2.250082 angstrom
           Maximum rank =  0   Radius =  0.650 angstrom
                   Q00  =  -0.006225

N          x =  0.475689  y =  0.297417  z =  1.037082 angstrom
           Maximum rank =  0   Radius =  0.650 angstrom
                   Q00  =  -0.773181

N          x = -1.050311  y =  0.681417  z =  2.560082 angstrom
           Maximum rank =  0   Radius =  0.650 angstrom
                   Q00  =  -0.478850

H          x = -0.694311  y = -1.293583  z =  1.850082 angstrom
           Maximum rank =  0   Radius =  0.325 angstrom
                   Q00  =   0.120099

H          x = -1.758311  y =  0.512417  z =  3.278082 angstrom
           Maximum rank =  0   Radius =  0.325 angstrom
                   Q00  =   0.230214

H          x = -0.695311  y =  2.863417  z =  2.695082 angstrom
           Maximum rank =  0   Radius =  0.325 angstrom
                   Q00  =   0.106380

H          x =  2.423689  y =  2.313417  z =  1.042082 angstrom
           Maximum rank =  0   Radius =  0.325 angstrom
                   Q00  =   0.107540

H          x =  1.216689  y =  3.581417  z =  1.043082 angstrom
           Maximum rank =  0   Radius =  0.325 angstrom
                   Q00  =   0.091953

H          x =  1.445809  y =  2.595818  z = -0.429828 angstrom
           Maximum rank =  0   Radius =  0.325 angstrom
                   Q00  =   0.116351

Total multipoles referred to origin at
           x =   0.000000,  y =    0.000000,  z =    0.000000 angstrom
                   Q00  =   0.000000

Finished at 21:38:34 on 26 Apr 2020

  DMA results are available in the Python driver through the
	  variable('DMA DISTRIBUTED MULTIPOLES')
  and
	  variable('DMA TOTAL MULTIPOLES')
  commands.

    Psi4 stopped on: Sunday, 26 April 2020 09:38PM
    Psi4 wall time for execution: 0:01:55.56

*** Psi4 exiting successfully. Buy a developer a beer!
