                               Psi4 1.3.2 release

  ==> Input File <==

--------------------------------------------------------------------------
import numpy as np
set {scf_type pk
basis cc-pvdz
d_convergence 10
gdma_switch   0
gdma_limit    0
gdma_origin   [ 0.0,  0.0,  0.0 ]
}
molecule test {
    units Angstrom
    0 1
    --
    0 1
    C               -2.065035742880294    -1.381317857903677    -2.515730327152910
    C               -3.019035742880293    -0.195317857903677    -2.456730327152910
    H               -2.397035742880294    -2.101317857903677    -3.263730327152910
    H               -1.053035742880294    -1.068317857903677    -2.762730327152910
    H               -2.013035742880294    -1.878317857903677    -1.547730327152910
    H               -2.733035742880294     0.447682142096323    -1.622730327152910
    H               -4.050145742880294    -0.538307857903678    -2.285940327152909
    H               -2.939185742880293     0.400622142096323    -3.377860327152910
    C                2.304964257119706     1.069682142096323    -0.947730327152910
    C               -0.748035742880294    -0.248317857903677     0.835269672847091
    C                0.094964257119706     0.224682142096323    -0.161730327152910
    C               -0.288035742880294    -0.381317857903677     2.129269672847090
    C                1.400964257119706     0.582682142096323     0.143269672847090
    C                1.014964257119706    -0.030317857903677     2.441269672847090
    C                1.842964257119706     0.472682142096323     1.457269672847090
    H               -1.771035742880294    -0.513317857903677     0.603269672847091
    H               -0.270035742880294     0.336682142096323    -1.170730327152909
    H               -0.949035742880294    -0.756317857903677     2.896269672847090
    H                1.370964257119706    -0.116317857903678     3.458269672847090
    H                3.048964257119706     1.750682142096323    -0.529730327152909
    H                1.695964257119706     1.646682142096322    -1.646730327152910
    H                2.833964257119706     0.792682142096322     1.721269672847090
    H                2.811774257119706     0.250052142096322    -1.478160327152910

}
e, wfn = energy('scf', return_wfn=True)
gdma(wfn)
dmavals = variable('DMA DISTRIBUTED MULTIPOLES')
charges = np.array(dmavals)
print(charges)
np.save('SSI-176ILE-198PHE-1-dimer.npy', np.array(charges))--------------------------------------------------------------------------

*** tstart() called on ds3
*** at Mon Apr 27 17:06:43 2020

   => Loading Basis Set <=

    Name: CC-PVDZ
    Role: ORBITAL
    Keyword: BASIS
    atoms 1-2, 9-15  entry C          line   138 file /theoryfs2/ds/metcalf/miniconda2/envs/tf2gpu/share/psi4/basis/cc-pvdz.gbs
    atoms 3-8, 16-23 entry H          line    22 file /theoryfs2/ds/metcalf/miniconda2/envs/tf2gpu/share/psi4/basis/cc-pvdz.gbs

         ---------------------------------------------------------
                                   SCF
               by Justin Turney, Rob Parrish, Andy Simmonett
                          and Daniel G. A. Smith
                              RHF Reference
                        1 Threads,    500 MiB Core
         ---------------------------------------------------------

  ==> Geometry <==

    Molecular point group: c1
    Full point group: C1

    Geometry (in Angstrom), charge = 0, multiplicity = 1:

       Center              X                  Y                   Z               Mass
    ------------   -----------------  -----------------  -----------------  -----------------
         C           -2.065035742880    -1.381317857904    -2.515730327153    12.000000000000
         C           -3.019035742880    -0.195317857904    -2.456730327153    12.000000000000
         H           -2.397035742880    -2.101317857904    -3.263730327153     1.007825032230
         H           -1.053035742880    -1.068317857904    -2.762730327153     1.007825032230
         H           -2.013035742880    -1.878317857904    -1.547730327153     1.007825032230
         H           -2.733035742880     0.447682142096    -1.622730327153     1.007825032230
         H           -4.050145742880    -0.538307857904    -2.285940327153     1.007825032230
         H           -2.939185742880     0.400622142096    -3.377860327153     1.007825032230
         C            2.304964257120     1.069682142096    -0.947730327153    12.000000000000
         C           -0.748035742880    -0.248317857904     0.835269672847    12.000000000000
         C            0.094964257120     0.224682142096    -0.161730327153    12.000000000000
         C           -0.288035742880    -0.381317857904     2.129269672847    12.000000000000
         C            1.400964257120     0.582682142096     0.143269672847    12.000000000000
         C            1.014964257120    -0.030317857904     2.441269672847    12.000000000000
         C            1.842964257120     0.472682142096     1.457269672847    12.000000000000
         H           -1.771035742880    -0.513317857904     0.603269672847     1.007825032230
         H           -0.270035742880     0.336682142096    -1.170730327153     1.007825032230
         H           -0.949035742880    -0.756317857904     2.896269672847     1.007825032230
         H            1.370964257120    -0.116317857904     3.458269672847     1.007825032230
         H            3.048964257120     1.750682142096    -0.529730327153     1.007825032230
         H            1.695964257120     1.646682142096    -1.646730327153     1.007825032230
         H            2.833964257120     0.792682142096     1.721269672847     1.007825032230
         H            2.811774257120     0.250052142096    -1.478160327153     1.007825032230

  Running in c1 symmetry.

  Rotational constants: A =      0.07610  B =      0.02623  C =      0.02060 [cm^-1]
  Rotational constants: A =   2281.33352  B =    786.25168  C =    617.48880 [MHz]
  Nuclear repulsion =  410.470155106334460

  Charge       = 0
  Multiplicity = 1
  Electrons    = 68
  Nalpha       = 34
  Nbeta        = 34

  ==> Algorithm <==

  SCF Algorithm Type is PK.
  DIIS enabled.
  MOM disabled.
  Fractional occupation disabled.
  Guess Type is SAD.
  Energy threshold   = 1.00e-06
  Density threshold  = 1.00e-10
  Integral threshold = 0.00e+00

  ==> Primary Basis <==

  Basis Set: CC-PVDZ
    Blend: CC-PVDZ
    Number of shells: 96
    Number of basis function: 196
    Number of Cartesian functions: 205
    Spherical Harmonics?: true
    Max angular momentum: 2

  ==> Pre-Iterations <==

   -------------------------------------------------------
    Irrep   Nso     Nmo     Nalpha   Nbeta   Ndocc  Nsocc
   -------------------------------------------------------
     A        196     196       0       0       0       0
   -------------------------------------------------------
    Total     196     196      34      34      34       0
   -------------------------------------------------------

  ==> Integral Setup <==

  Using integral reordering PK algorithm.
  Sizing the integral batches needed.
  Building batch lookup table.
   Calculation information:
      Number of atoms:                  23
      Number of AO shells:              96
      Number of primitives:            268
      Number of atomic orbitals:       205
      Number of basis functions:       196

      Integral cutoff                 1.00e-12
      Number of threads:                 1

	Batch   1 pq = [       0,    9405] index = [             0,44231715] size =     44231715
	Batch   2 pq = [    9405,   13301] index = [      44231715,88464951] size =     44233236
	Batch   3 pq = [   13301,   16290] index = [      88464951,132690195] size =     44225244
	Batch   4 pq = [   16290,   18810] index = [     132690195,176917455] size =     44227260
	Batch   5 pq = [   18810,   19306] index = [     176917455,186370471] size =      9453016
  Task number: 17
  Buffer size: 11059200
  Buffer per thread: 2
  We computed 9520311 shell quartets total.
  Whereas there are 10841496 unique shell quartets.

  ==> DiskJK: Disk-Based J/K Matrices <==

    J tasked:                  Yes
    K tasked:                  Yes
    wK tasked:                  No
    Memory [MiB]:              375
    Schwarz Cutoff:          1E-12

    OpenMP threads:              1

  Minimum eigenvalue in the overlap matrix is 2.8893893723E-04.
  Using Symmetric Orthogonalization.

  SCF Guess: Superposition of Atomic Densities via on-the-fly atomic UHF.

  ==> Iterations <==

                        Total Energy        Delta E     RMS |[F,P]|

   @RHF iter SAD:  -348.00339556592121   -3.48003e+02   0.00000e+00
   @RHF iter   1:  -348.76296033460403   -7.59565e-01   2.91497e-03 DIIS
   @RHF iter   2:  -348.95837766947039   -1.95417e-01   1.20632e-03 DIIS
   @RHF iter   3:  -348.98882268622077   -3.04450e-02   2.59536e-04 DIIS
   @RHF iter   4:  -348.99131387960790   -2.49119e-03   5.22375e-05 DIIS
   @RHF iter   5:  -348.99138568825555   -7.18086e-05   1.76104e-05 DIIS
   @RHF iter   6:  -348.99139321625415   -7.52800e-06   4.72670e-06 DIIS
   @RHF iter   7:  -348.99139384491957   -6.28665e-07   1.23970e-06 DIIS
   @RHF iter   8:  -348.99139389292156   -4.80020e-08   2.92626e-07 DIIS
   @RHF iter   9:  -348.99139389798108   -5.05952e-09   1.27980e-07 DIIS
   @RHF iter  10:  -348.99139389903979   -1.05871e-09   5.80359e-08 DIIS
   @RHF iter  11:  -348.99139389942343   -3.83636e-10   2.19167e-08 DIIS
   @RHF iter  12:  -348.99139389948027   -5.68434e-11   8.83274e-09 DIIS
   @RHF iter  13:  -348.99139389948863   -8.35598e-12   3.29306e-09 DIIS
   @RHF iter  14:  -348.99139389948891   -2.84217e-13   6.31597e-10 DIIS
   @RHF iter  15:  -348.99139389948692    1.98952e-12   1.84156e-10 DIIS
   @RHF iter  16:  -348.99139389948562    1.30740e-12   8.82049e-11 DIIS
  Energy and wave function converged.

  ==> Post-Iterations <==

    Orbital Energies [Eh]
    ---------------------

    Doubly Occupied:

       1A    -11.237519     2A    -11.232496     3A    -11.232346
       4A    -11.228592     5A    -11.227722     6A    -11.227227
       7A    -11.227131     8A    -11.221743     9A    -11.217276
      10A     -1.156503    11A     -1.046682    12A     -1.022480
      13A     -1.013115    14A     -0.931458    15A     -0.839743
      16A     -0.825966    17A     -0.795652    18A     -0.693185
      19A     -0.633578    20A     -0.629884    21A     -0.604331
      22A     -0.599710    23A     -0.579149    24A     -0.577950
      25A     -0.561795    26A     -0.534070    27A     -0.505784
      28A     -0.491484    29A     -0.490561    30A     -0.484522
      31A     -0.481374    32A     -0.480274    33A     -0.332976
      34A     -0.322246

    Virtual:

      35A      0.137412    36A      0.141087    37A      0.173499
      38A      0.195444    39A      0.202747    40A      0.231093
      41A      0.238775    42A      0.242343    43A      0.253595
      44A      0.258347    45A      0.261852    46A      0.277529
      47A      0.282248    48A      0.290192    49A      0.327835
      50A      0.349473    51A      0.377906    52A      0.388991
      53A      0.395440    54A      0.456916    55A      0.465938
      56A      0.484651    57A      0.501882    58A      0.559694
      59A      0.596892    60A      0.599737    61A      0.608832
      62A      0.628954    63A      0.649514    64A      0.655813
      65A      0.677929    66A      0.693759    67A      0.712468
      68A      0.719075    69A      0.734093    70A      0.743624
      71A      0.746168    72A      0.756943    73A      0.771229
      74A      0.775229    75A      0.785838    76A      0.823685
      77A      0.840197    78A      0.851422    79A      0.858718
      80A      0.864716    81A      0.865587    82A      0.874978
      83A      0.887467    84A      0.891094    85A      0.904152
      86A      0.913279    87A      0.920700    88A      0.935462
      89A      0.937255    90A      0.950485    91A      0.959739
      92A      0.978659    93A      1.004896    94A      1.019109
      95A      1.034125    96A      1.057180    97A      1.117611
      98A      1.127736    99A      1.134177   100A      1.146439
     101A      1.160812   102A      1.167445   103A      1.206380
     104A      1.236013   105A      1.248063   106A      1.252494
     107A      1.257576   108A      1.284562   109A      1.311256
     110A      1.318958   111A      1.330187   112A      1.340457
     113A      1.418384   114A      1.466968   115A      1.481594
     116A      1.510303   117A      1.524227   118A      1.559471
     119A      1.597663   120A      1.626785   121A      1.673088
     122A      1.687926   123A      1.704504   124A      1.712454
     125A      1.742966   126A      1.754437   127A      1.765161
     128A      1.790400   129A      1.813504   130A      1.861937
     131A      1.869883   132A      1.881550   133A      1.890298
     134A      1.900993   135A      1.908635   136A      1.916036
     137A      1.918897   138A      1.926309   139A      1.937058
     140A      1.946813   141A      1.952232   142A      1.959857
     143A      1.961694   144A      1.976402   145A      1.987855
     146A      1.988844   147A      1.999190   148A      2.019420
     149A      2.046165   150A      2.068768   151A      2.076352
     152A      2.105501   153A      2.120563   154A      2.131031
     155A      2.155340   156A      2.171562   157A      2.179751
     158A      2.198118   159A      2.216341   160A      2.264324
     161A      2.287607   162A      2.298536   163A      2.304557
     164A      2.310816   165A      2.324410   166A      2.330473
     167A      2.364995   168A      2.445193   169A      2.457539
     170A      2.479576   171A      2.494969   172A      2.517064
     173A      2.544084   174A      2.577261   175A      2.579976
     176A      2.636100   177A      2.749089   178A      2.761719
     179A      2.764318   180A      2.771447   181A      2.792927
     182A      2.810614   183A      2.831116   184A      2.845385
     185A      2.863507   186A      2.875050   187A      2.888961
     188A      2.955199   189A      2.971465   190A      3.001237
     191A      3.026799   192A      3.033757   193A      3.167494
     194A      3.223657   195A      3.321047   196A      3.997962

    Final Occupation by Irrep:
              A
    DOCC [    34 ]

  @RHF Final Energy:  -348.99139389948562

   => Energetics <=

    Nuclear Repulsion Energy =            410.4701551063344596
    One-Electron Energy =               -1283.5500493809711315
    Two-Electron Energy =                 524.0885003751510567
    Total Energy =                       -348.9913938994856153

Computation Completed

Properties will be evaluated at   0.000000,   0.000000,   0.000000 [a0]

Properties computed using the SCF density matrix

  Nuclear Dipole Moment: [e a0]
     X:    -6.0129      Y:    -1.2629      Z:   -10.3187

  Electronic Dipole Moment: [e a0]
     X:     6.0941      Y:     1.3013      Z:    10.2422

  Dipole Moment: [e a0]
     X:     0.0812      Y:     0.0384      Z:    -0.0765     Total:     0.1180

  Dipole Moment: [D]
     X:     0.2065      Y:     0.0977      Z:    -0.1945     Total:     0.3000

*** tstop() called on ds3 at Mon Apr 27 17:08:22 2020
Module time:
	user time   =      64.64 seconds =       1.08 minutes
	system time =      25.08 seconds =       0.42 minutes
	total time  =         99 seconds =       1.65 minutes
Total time:
	user time   =      64.64 seconds =       1.08 minutes
	system time =      25.08 seconds =       0.42 minutes
	total time  =         99 seconds =       1.65 minutes
                                     G D M A

                                 by Anthony Stone

                           version 2.2.06, 22 June 2011

               Distributed Multipoles from Gaussian wavefunctions

Starting at 17:8:22 on 27 Apr 2020

Using SCF density matrix from file ./SSI/SSI-176ILE-198PHE-1-dimer.test.11449.fchk

                         Distributed Multipole Analysis

Standard DMA

Positions and radii in angstrom
Multipole moments in atomic units, ea_0^k for rank k

C          x = -2.065036  y = -1.381318  z = -2.515730 angstrom
           Maximum rank =  0   Radius =  0.650 angstrom
                   Q00  =  -0.244761

C          x = -3.019036  y = -0.195318  z = -2.456730 angstrom
           Maximum rank =  0   Radius =  0.650 angstrom
                   Q00  =  -0.229339

H          x = -2.397036  y = -2.101318  z = -3.263730 angstrom
           Maximum rank =  0   Radius =  0.325 angstrom
                   Q00  =   0.081397

H          x = -1.053036  y = -1.068318  z = -2.762730 angstrom
           Maximum rank =  0   Radius =  0.325 angstrom
                   Q00  =   0.076628

H          x = -2.013036  y = -1.878318  z = -1.547730 angstrom
           Maximum rank =  0   Radius =  0.325 angstrom
                   Q00  =   0.079665

H          x = -2.733036  y =  0.447682  z = -1.622730 angstrom
           Maximum rank =  0   Radius =  0.325 angstrom
                   Q00  =   0.075280

H          x = -4.050146  y = -0.538308  z = -2.285940 angstrom
           Maximum rank =  0   Radius =  0.325 angstrom
                   Q00  =   0.082700

H          x = -2.939186  y =  0.400622  z = -3.377860 angstrom
           Maximum rank =  0   Radius =  0.325 angstrom
                   Q00  =   0.080295

C          x =  2.304964  y =  1.069682  z = -0.947730 angstrom
           Maximum rank =  0   Radius =  0.650 angstrom
                   Q00  =  -0.200145

C          x = -0.748036  y = -0.248318  z =  0.835270 angstrom
           Maximum rank =  0   Radius =  0.650 angstrom
                   Q00  =  -0.063174

C          x =  0.094964  y =  0.224682  z = -0.161730 angstrom
           Maximum rank =  0   Radius =  0.650 angstrom
                   Q00  =  -0.092837

C          x = -0.288036  y = -0.381318  z =  2.129270 angstrom
           Maximum rank =  0   Radius =  0.650 angstrom
                   Q00  =  -0.074984

C          x =  1.400964  y =  0.582682  z =  0.143270 angstrom
           Maximum rank =  0   Radius =  0.650 angstrom
                   Q00  =  -0.098370

C          x =  1.014964  y = -0.030318  z =  2.441270 angstrom
           Maximum rank =  0   Radius =  0.650 angstrom
                   Q00  =  -0.076193

C          x =  1.842964  y =  0.472682  z =  1.457270 angstrom
           Maximum rank =  0   Radius =  0.650 angstrom
                   Q00  =   0.012374

H          x = -1.771036  y = -0.513318  z =  0.603270 angstrom
           Maximum rank =  0   Radius =  0.325 angstrom
                   Q00  =   0.061089

H          x = -0.270036  y =  0.336682  z = -1.170730 angstrom
           Maximum rank =  0   Radius =  0.325 angstrom
                   Q00  =   0.055326

H          x = -0.949036  y = -0.756318  z =  2.896270 angstrom
           Maximum rank =  0   Radius =  0.325 angstrom
                   Q00  =   0.058467

H          x =  1.370964  y = -0.116318  z =  3.458270 angstrom
           Maximum rank =  0   Radius =  0.325 angstrom
                   Q00  =   0.063386

H          x =  3.048964  y =  1.750682  z = -0.529730 angstrom
           Maximum rank =  0   Radius =  0.325 angstrom
                   Q00  =   0.097581

H          x =  1.695964  y =  1.646682  z = -1.646730 angstrom
           Maximum rank =  0   Radius =  0.325 angstrom
                   Q00  =   0.094945

H          x =  2.833964  y =  0.792682  z =  1.721270 angstrom
           Maximum rank =  0   Radius =  0.325 angstrom
                   Q00  =   0.054286

H          x =  2.811774  y =  0.250052  z = -1.478160 angstrom
           Maximum rank =  0   Radius =  0.325 angstrom
                   Q00  =   0.106382

Total multipoles referred to origin at
           x =   0.000000,  y =    0.000000,  z =    0.000000 angstrom
                   Q00  =  -0.000000

Finished at 17:8:22 on 27 Apr 2020

  DMA results are available in the Python driver through the
	  variable('DMA DISTRIBUTED MULTIPOLES')
  and
	  variable('DMA TOTAL MULTIPOLES')
  commands.

    Psi4 stopped on: Monday, 27 April 2020 05:08PM
    Psi4 wall time for execution: 0:01:39.41

*** Psi4 exiting successfully. Buy a developer a beer!
