                               Psi4 1.3.2 release

  ==> Input File <==

--------------------------------------------------------------------------
import numpy as np
set {scf_type pk
basis cc-pvdz
d_convergence 10
gdma_switch   0
gdma_limit    0
gdma_origin   [ 0.0,  0.0,  0.0 ]
}
molecule test {
    units Angstrom
    0 1
    --
    0 1
    C                1.097266861133514     2.359232021651577    -2.072081154031562
    C                0.834266861133514     1.990232021651577    -0.619081154031562
    O                1.585266861133514     1.236232021651577     0.008918845968438
    N               -0.235733138866486     2.536232021651576    -0.064081154031562
    H                1.708266861133514     3.263232021651576    -2.065081154031562
    H                0.156266861133514     2.598232021651576    -2.571081154031563
    H               -0.408733138866486     2.382232021651576     0.917918845968438
    H               -0.817733138866486     3.171232021651576    -0.592081154031562
    H                1.624476861133514     1.566972021651577    -2.623781154031562
    C                0.363266861133514    -2.835767978348424     0.323918845968438
    C               -0.882733138866486    -2.050767978348424     0.695918845968438
    O               -1.963733138866486    -2.618767978348424     0.883918845968438
    N               -0.748733138866486    -0.741767978348424     0.801918845968438
    H               -1.558733138866486    -0.195767978348424     1.051918845968438
    H                0.150266861133514    -0.306767978348424     0.630918845968438
    H                0.747266861133514    -3.326767978348424     1.218918845968438
    H                1.133266861133514    -2.158767978348424    -0.045081154031562
    H                0.137196861133514    -3.590067978348424    -0.444151154031562

}
e, wfn = energy('scf', return_wfn=True)
gdma(wfn)
dmavals = variable('DMA DISTRIBUTED MULTIPOLES')
charges = np.array(dmavals)
print(charges)
np.save('SSI-010ASN-014GLN-2-dimer.npy', np.array(charges))--------------------------------------------------------------------------

*** tstart() called on ds3
*** at Mon Apr 27 21:26:27 2020

   => Loading Basis Set <=

    Name: CC-PVDZ
    Role: ORBITAL
    Keyword: BASIS
    atoms 1-2, 10-11 entry C          line   138 file /theoryfs2/ds/metcalf/miniconda2/envs/tf2gpu/share/psi4/basis/cc-pvdz.gbs
    atoms 3, 12      entry O          line   198 file /theoryfs2/ds/metcalf/miniconda2/envs/tf2gpu/share/psi4/basis/cc-pvdz.gbs
    atoms 4, 13      entry N          line   168 file /theoryfs2/ds/metcalf/miniconda2/envs/tf2gpu/share/psi4/basis/cc-pvdz.gbs
    atoms 5-9, 14-18 entry H          line    22 file /theoryfs2/ds/metcalf/miniconda2/envs/tf2gpu/share/psi4/basis/cc-pvdz.gbs

         ---------------------------------------------------------
                                   SCF
               by Justin Turney, Rob Parrish, Andy Simmonett
                          and Daniel G. A. Smith
                              RHF Reference
                        1 Threads,    500 MiB Core
         ---------------------------------------------------------

  ==> Geometry <==

    Molecular point group: c1
    Full point group: C1

    Geometry (in Angstrom), charge = 0, multiplicity = 1:

       Center              X                  Y                   Z               Mass
    ------------   -----------------  -----------------  -----------------  -----------------
         C            1.097266861134     2.359232021652    -2.072081154032    12.000000000000
         C            0.834266861134     1.990232021652    -0.619081154032    12.000000000000
         O            1.585266861134     1.236232021652     0.008918845968    15.994914619570
         N           -0.235733138866     2.536232021652    -0.064081154032    14.003074004430
         H            1.708266861134     3.263232021652    -2.065081154032     1.007825032230
         H            0.156266861134     2.598232021652    -2.571081154032     1.007825032230
         H           -0.408733138866     2.382232021652     0.917918845968     1.007825032230
         H           -0.817733138866     3.171232021652    -0.592081154032     1.007825032230
         H            1.624476861134     1.566972021652    -2.623781154032     1.007825032230
         C            0.363266861134    -2.835767978348     0.323918845968    12.000000000000
         C           -0.882733138866    -2.050767978348     0.695918845968    12.000000000000
         O           -1.963733138866    -2.618767978348     0.883918845968    15.994914619570
         N           -0.748733138866    -0.741767978348     0.801918845968    14.003074004430
         H           -1.558733138866    -0.195767978348     1.051918845968     1.007825032230
         H            0.150266861134    -0.306767978348     0.630918845968     1.007825032230
         H            0.747266861134    -3.326767978348     1.218918845968     1.007825032230
         H            1.133266861134    -2.158767978348    -0.045081154032     1.007825032230
         H            0.137196861134    -3.590067978348    -0.444151154032     1.007825032230

  Running in c1 symmetry.

  Rotational constants: A =      0.12336  B =      0.02334  C =      0.02158 [cm^-1]
  Rotational constants: A =   3698.30226  B =    699.61023  C =    646.83405 [MHz]
  Nuclear repulsion =  361.579625281589983

  Charge       = 0
  Multiplicity = 1
  Electrons    = 64
  Nalpha       = 32
  Nbeta        = 32

  ==> Algorithm <==

  SCF Algorithm Type is PK.
  DIIS enabled.
  MOM disabled.
  Fractional occupation disabled.
  Guess Type is SAD.
  Energy threshold   = 1.00e-06
  Density threshold  = 1.00e-10
  Integral threshold = 0.00e+00

  ==> Primary Basis <==

  Basis Set: CC-PVDZ
    Blend: CC-PVDZ
    Number of shells: 78
    Number of basis function: 162
    Number of Cartesian functions: 170
    Spherical Harmonics?: true
    Max angular momentum: 2

  ==> Pre-Iterations <==

   -------------------------------------------------------
    Irrep   Nso     Nmo     Nalpha   Nbeta   Ndocc  Nsocc
   -------------------------------------------------------
     A        162     162       0       0       0       0
   -------------------------------------------------------
    Total     162     162      32      32      32       0
   -------------------------------------------------------

  ==> Integral Setup <==

  Using integral reordering PK algorithm.
  Sizing the integral batches needed.
  Building batch lookup table.
   Calculation information:
      Number of atoms:                  18
      Number of AO shells:              78
      Number of primitives:            226
      Number of atomic orbitals:       170
      Number of basis functions:       162

      Integral cutoff                 1.00e-12
      Number of threads:                 1

	Batch   1 pq = [       0,    9405] index = [             0,44231715] size =     44231715
	Batch   2 pq = [    9405,   13203] index = [      44231715,87166206] size =     42934491
  Task number: 8
  Buffer size: 11059200
  Buffer per thread: 2
  We computed 3688468 shell quartets total.
  Whereas there are 4747821 unique shell quartets.

  ==> DiskJK: Disk-Based J/K Matrices <==

    J tasked:                  Yes
    K tasked:                  Yes
    wK tasked:                  No
    Memory [MiB]:              375
    Schwarz Cutoff:          1E-12

    OpenMP threads:              1

  Minimum eigenvalue in the overlap matrix is 4.5461308137E-03.
  Using Symmetric Orthogonalization.

  SCF Guess: Superposition of Atomic Densities via on-the-fly atomic UHF.

  ==> Iterations <==

                        Total Energy        Delta E     RMS |[F,P]|

   @RHF iter SAD:  -414.52172839328796   -4.14522e+02   0.00000e+00
   @RHF iter   1:  -415.70414677037041   -1.18242e+00   4.67818e-03 DIIS
   @RHF iter   2:  -415.91635729290311   -2.12211e-01   2.77110e-03 DIIS
   @RHF iter   3:  -415.98813925475139   -7.17820e-02   5.18897e-04 DIIS
   @RHF iter   4:  -415.99237468077757   -4.23543e-03   1.95593e-04 DIIS
   @RHF iter   5:  -415.99309135021718   -7.16669e-04   3.61747e-05 DIIS
   @RHF iter   6:  -415.99313926631777   -4.79161e-05   1.79720e-05 DIIS
   @RHF iter   7:  -415.99314789925256   -8.63293e-06   6.69619e-06 DIIS
   @RHF iter   8:  -415.99314965859867   -1.75935e-06   2.06199e-06 DIIS
   @RHF iter   9:  -415.99314983485533   -1.76257e-07   4.72040e-07 DIIS
   @RHF iter  10:  -415.99314984226442   -7.40908e-09   2.25665e-07 DIIS
   @RHF iter  11:  -415.99314984300565   -7.41238e-10   4.67573e-08 DIIS
   @RHF iter  12:  -415.99314984306818   -6.25278e-11   1.09289e-08 DIIS
   @RHF iter  13:  -415.99314984307432   -6.13909e-12   2.78322e-09 DIIS
   @RHF iter  14:  -415.99314984307182    2.50111e-12   1.23205e-09 DIIS
   @RHF iter  15:  -415.99314984307404   -2.21689e-12   4.45992e-10 DIIS
   @RHF iter  16:  -415.99314984307375    2.84217e-13   1.78749e-10 DIIS
   @RHF iter  17:  -415.99314984307330    4.54747e-13   7.53306e-11 DIIS
  Energy and wave function converged.

  ==> Post-Iterations <==

    Orbital Energies [Eh]
    ---------------------

    Doubly Occupied:

       1A    -20.529825     2A    -20.484074     3A    -15.613591
       4A    -15.568874     5A    -11.374040     6A    -11.330608
       7A    -11.261310     8A    -11.226681     9A     -1.391009
      10A     -1.346535    11A     -1.241892    12A     -1.199176
      13A     -1.018173    14A     -0.982773    15A     -0.823525
      16A     -0.782663    17A     -0.750582    18A     -0.712493
      19A     -0.675346    20A     -0.636969    21A     -0.630970
      22A     -0.594956    23A     -0.591498    24A     -0.577541
      25A     -0.551604    26A     -0.542777    27A     -0.539589
      28A     -0.505665    29A     -0.435669    30A     -0.429764
      31A     -0.391986    32A     -0.384670

    Virtual:

      33A      0.144519    34A      0.174050    35A      0.187339
      36A      0.201816    37A      0.215639    38A      0.216441
      39A      0.242985    40A      0.260485    41A      0.264573
      42A      0.267201    43A      0.295830    44A      0.332511
      45A      0.360959    46A      0.401377    47A      0.472859
      48A      0.477817    49A      0.533900    50A      0.588379
      51A      0.615800    52A      0.639657    53A      0.643875
      54A      0.661751    55A      0.684204    56A      0.713031
      57A      0.714599    58A      0.717357    59A      0.732423
      60A      0.752212    61A      0.762334    62A      0.794763
      63A      0.821671    64A      0.846039    65A      0.858429
      66A      0.870879    67A      0.878801    68A      0.889559
      69A      0.899539    70A      0.917572    71A      0.936050
      72A      0.956471    73A      0.977211    74A      0.995217
      75A      1.018251    76A      1.029633    77A      1.073664
      78A      1.083822    79A      1.105165    80A      1.138405
      81A      1.161618    82A      1.189396    83A      1.302100
      84A      1.329102    85A      1.341970    86A      1.367448
      87A      1.375719    88A      1.376753    89A      1.395105
      90A      1.401102    91A      1.425961    92A      1.437063
      93A      1.457411    94A      1.480207    95A      1.485463
      96A      1.560104    97A      1.627172    98A      1.638536
      99A      1.656811   100A      1.673995   101A      1.711221
     102A      1.740304   103A      1.792353   104A      1.825700
     105A      1.847243   106A      1.866845   107A      1.873703
     108A      1.883520   109A      1.891234   110A      1.895854
     111A      1.921130   112A      1.931034   113A      1.936064
     114A      1.958329   115A      1.967091   116A      2.001601
     117A      2.016288   118A      2.046765   119A      2.075771
     120A      2.124053   121A      2.162812   122A      2.186920
     123A      2.202315   124A      2.241691   125A      2.256091
     126A      2.312528   127A      2.408310   128A      2.425462
     129A      2.428060   130A      2.457979   131A      2.469525
     132A      2.479114   133A      2.497713   134A      2.563470
     135A      2.575140   136A      2.588286   137A      2.606013
     138A      2.665552   139A      2.698204   140A      2.729112
     141A      2.754468   142A      2.779210   143A      2.783128
     144A      2.819632   145A      2.846827   146A      2.855836
     147A      2.964896   148A      2.994651   149A      3.067380
     150A      3.106365   151A      3.113481   152A      3.147317
     153A      3.254680   154A      3.326058   155A      3.483594
     156A      3.500310   157A      3.522066   158A      3.542520
     159A      3.835292   160A      3.876078   161A      3.894685
     162A      3.916387

    Final Occupation by Irrep:
              A
    DOCC [    32 ]

  @RHF Final Energy:  -415.99314984307330

   => Energetics <=

    Nuclear Repulsion Energy =            361.5796252815899834
    One-Electron Energy =               -1284.8918888509567751
    Two-Electron Energy =                 507.3191137262934944
    Total Energy =                       -415.9931498430732972

Computation Completed

Properties will be evaluated at   0.000000,   0.000000,   0.000000 [a0]

Properties computed using the SCF density matrix

  Nuclear Dipole Moment: [e a0]
     X:     2.6933      Y:     3.1791      Z:    -4.2367

  Electronic Dipole Moment: [e a0]
     X:    -2.3766      Y:    -0.7005      Z:     3.3390

  Dipole Moment: [e a0]
     X:     0.3166      Y:     2.4786      Z:    -0.8977     Total:     2.6551

  Dipole Moment: [D]
     X:     0.8048      Y:     6.2999      Z:    -2.2817     Total:     6.7485

*** tstop() called on ds3 at Mon Apr 27 21:27:36 2020
Module time:
	user time   =      27.81 seconds =       0.46 minutes
	system time =      12.52 seconds =       0.21 minutes
	total time  =         69 seconds =       1.15 minutes
Total time:
	user time   =      27.81 seconds =       0.46 minutes
	system time =      12.52 seconds =       0.21 minutes
	total time  =         69 seconds =       1.15 minutes
                                     G D M A

                                 by Anthony Stone

                           version 2.2.06, 22 June 2011

               Distributed Multipoles from Gaussian wavefunctions

Starting at 21:27:36 on 27 Apr 2020

Using SCF density matrix from file ./SSI/SSI-010ASN-014GLN-2-dimer.test.7568.fchk

                         Distributed Multipole Analysis

Standard DMA

Positions and radii in angstrom
Multipole moments in atomic units, ea_0^k for rank k

C          x =  1.097267  y =  2.359232  z = -2.072081 angstrom
           Maximum rank =  0   Radius =  0.650 angstrom
                   Q00  =  -0.255907

C          x =  0.834267  y =  1.990232  z = -0.619081 angstrom
           Maximum rank =  0   Radius =  0.650 angstrom
                   Q00  =   0.798368

O          x =  1.585267  y =  1.236232  z =  0.008919 angstrom
           Maximum rank =  0   Radius =  0.650 angstrom
                   Q00  =  -0.801146

N          x = -0.235733  y =  2.536232  z = -0.064081 angstrom
           Maximum rank =  0   Radius =  0.650 angstrom
                   Q00  =  -0.522363

H          x =  1.708267  y =  3.263232  z = -2.065081 angstrom
           Maximum rank =  0   Radius =  0.325 angstrom
                   Q00  =   0.134751

H          x =  0.156267  y =  2.598232  z = -2.571081 angstrom
           Maximum rank =  0   Radius =  0.325 angstrom
                   Q00  =   0.084672

H          x = -0.408733  y =  2.382232  z =  0.917919 angstrom
           Maximum rank =  0   Radius =  0.325 angstrom
                   Q00  =   0.224112

H          x = -0.817733  y =  3.171232  z = -0.592081 angstrom
           Maximum rank =  0   Radius =  0.325 angstrom
                   Q00  =   0.214920

H          x =  1.624477  y =  1.566972  z = -2.623781 angstrom
           Maximum rank =  0   Radius =  0.325 angstrom
                   Q00  =   0.136201

C          x =  0.363267  y = -2.835768  z =  0.323919 angstrom
           Maximum rank =  0   Radius =  0.650 angstrom
                   Q00  =  -0.265503

C          x = -0.882733  y = -2.050768  z =  0.695919 angstrom
           Maximum rank =  0   Radius =  0.650 angstrom
                   Q00  =   0.816611

O          x = -1.963733  y = -2.618768  z =  0.883919 angstrom
           Maximum rank =  0   Radius =  0.650 angstrom
                   Q00  =  -0.819115

N          x = -0.748733  y = -0.741768  z =  0.801919 angstrom
           Maximum rank =  0   Radius =  0.650 angstrom
                   Q00  =  -0.528888

H          x = -1.558733  y = -0.195768  z =  1.051919 angstrom
           Maximum rank =  0   Radius =  0.325 angstrom
                   Q00  =   0.203977

H          x =  0.150267  y = -0.306768  z =  0.630919 angstrom
           Maximum rank =  0   Radius =  0.325 angstrom
                   Q00  =   0.237448

H          x =  0.747267  y = -3.326768  z =  1.218919 angstrom
           Maximum rank =  0   Radius =  0.325 angstrom
                   Q00  =   0.129917

H          x =  1.133267  y = -2.158768  z = -0.045081 angstrom
           Maximum rank =  0   Radius =  0.325 angstrom
                   Q00  =   0.086884

H          x =  0.137197  y = -3.590068  z = -0.444151 angstrom
           Maximum rank =  0   Radius =  0.325 angstrom
                   Q00  =   0.125060

Total multipoles referred to origin at
           x =   0.000000,  y =    0.000000,  z =    0.000000 angstrom
                   Q00  =  -0.000000

Finished at 21:27:36 on 27 Apr 2020

  DMA results are available in the Python driver through the
	  variable('DMA DISTRIBUTED MULTIPOLES')
  and
	  variable('DMA TOTAL MULTIPOLES')
  commands.

    Psi4 stopped on: Monday, 27 April 2020 09:27PM
    Psi4 wall time for execution: 0:01:08.53

*** Psi4 exiting successfully. Buy a developer a beer!
