                               Psi4 1.3.2 release

  ==> Input File <==

--------------------------------------------------------------------------
import numpy as np
set {scf_type pk
basis cc-pvdz
d_convergence 10
gdma_switch   0
gdma_limit    0
gdma_origin   [ 0.0,  0.0,  0.0 ]
}
molecule test {
    units Angstrom
    0 1
    --
    0 1
    C               -2.229137087619811     1.657163916331089     2.298933903167968
    O               -2.224137087619810     0.708163916331089     1.234933903167968
    H               -1.311137087619811     0.633163916331089     0.897933903167968
    H               -1.243137087619811     1.673163916331089     2.767933903167968
    H               -2.459727087619811     2.662803916331089     1.917460903167968
    H               -2.965877087619810     1.353803916331089     3.057342903167968
    C               -0.803137087619811    -0.255836083668911    -2.127066096832032
    C                0.359862912380189    -0.387836083668911    -1.190066096832032
    C                1.468862912380189    -0.240836083668911     0.704933903167968
    C                1.560862912380189    -0.999836083668911    -1.361066096832032
    N                0.324862912380189     0.081163916331089     0.107933903167968
    N                2.234862912380189    -0.894836083668911    -0.163066096832032
    H                1.729862912380189    -0.012836083668911     1.731933903167968
    H               -1.686137087619811     0.011163916331089    -1.552066096832032
    H               -0.975137087619811    -1.246836083668911    -2.551066096832033
    H                3.155862912380189    -1.270836083668911     0.037933903167968
    H                1.902862912380189    -1.498836083668911    -2.259066096832032
    H               -0.668977087619811     0.466613916331089    -2.945646096832032

}
e, wfn = energy('scf', return_wfn=True)
gdma(wfn)
dmavals = variable('DMA DISTRIBUTED MULTIPOLES')
charges = np.array(dmavals)
print(charges)
np.save('SSI-015THR-060HIE-1-dimer.npy', np.array(charges))--------------------------------------------------------------------------

*** tstart() called on ds3
*** at Tue Apr 28 12:11:07 2020

   => Loading Basis Set <=

    Name: CC-PVDZ
    Role: ORBITAL
    Keyword: BASIS
    atoms 1, 7-10    entry C          line   138 file /theoryfs2/ds/metcalf/miniconda2/envs/tf2gpu/share/psi4/basis/cc-pvdz.gbs
    atoms 2          entry O          line   198 file /theoryfs2/ds/metcalf/miniconda2/envs/tf2gpu/share/psi4/basis/cc-pvdz.gbs
    atoms 3-6, 13-18 entry H          line    22 file /theoryfs2/ds/metcalf/miniconda2/envs/tf2gpu/share/psi4/basis/cc-pvdz.gbs
    atoms 11-12      entry N          line   168 file /theoryfs2/ds/metcalf/miniconda2/envs/tf2gpu/share/psi4/basis/cc-pvdz.gbs

         ---------------------------------------------------------
                                   SCF
               by Justin Turney, Rob Parrish, Andy Simmonett
                          and Daniel G. A. Smith
                              RHF Reference
                        1 Threads,    500 MiB Core
         ---------------------------------------------------------

  ==> Geometry <==

    Molecular point group: c1
    Full point group: C1

    Geometry (in Angstrom), charge = 0, multiplicity = 1:

       Center              X                  Y                   Z               Mass
    ------------   -----------------  -----------------  -----------------  -----------------
         C           -2.229137087620     1.657163916331     2.298933903168    12.000000000000
         O           -2.224137087620     0.708163916331     1.234933903168    15.994914619570
         H           -1.311137087620     0.633163916331     0.897933903168     1.007825032230
         H           -1.243137087620     1.673163916331     2.767933903168     1.007825032230
         H           -2.459727087620     2.662803916331     1.917460903168     1.007825032230
         H           -2.965877087620     1.353803916331     3.057342903168     1.007825032230
         C           -0.803137087620    -0.255836083669    -2.127066096832    12.000000000000
         C            0.359862912380    -0.387836083669    -1.190066096832    12.000000000000
         C            1.468862912380    -0.240836083669     0.704933903168    12.000000000000
         C            1.560862912380    -0.999836083669    -1.361066096832    12.000000000000
         N            0.324862912380     0.081163916331     0.107933903168    14.003074004430
         N            2.234862912380    -0.894836083669    -0.163066096832    14.003074004430
         H            1.729862912380    -0.012836083669     1.731933903168     1.007825032230
         H           -1.686137087620     0.011163916331    -1.552066096832     1.007825032230
         H           -0.975137087620    -1.246836083669    -2.551066096832     1.007825032230
         H            3.155862912380    -1.270836083669     0.037933903168     1.007825032230
         H            1.902862912380    -1.498836083669    -2.259066096832     1.007825032230
         H           -0.668977087620     0.466613916331    -2.945646096832     1.007825032230

  Running in c1 symmetry.

  Rotational constants: A =      0.10876  B =      0.03465  C =      0.02685 [cm^-1]
  Rotational constants: A =   3260.40742  B =   1038.86557  C =    804.91772 [MHz]
  Nuclear repulsion =  362.129416395046974

  Charge       = 0
  Multiplicity = 1
  Electrons    = 62
  Nalpha       = 31
  Nbeta        = 31

  ==> Algorithm <==

  SCF Algorithm Type is PK.
  DIIS enabled.
  MOM disabled.
  Fractional occupation disabled.
  Guess Type is SAD.
  Energy threshold   = 1.00e-06
  Density threshold  = 1.00e-10
  Integral threshold = 0.00e+00

  ==> Primary Basis <==

  Basis Set: CC-PVDZ
    Blend: CC-PVDZ
    Number of shells: 78
    Number of basis function: 162
    Number of Cartesian functions: 170
    Spherical Harmonics?: true
    Max angular momentum: 2

  ==> Pre-Iterations <==

   -------------------------------------------------------
    Irrep   Nso     Nmo     Nalpha   Nbeta   Ndocc  Nsocc
   -------------------------------------------------------
     A        162     162       0       0       0       0
   -------------------------------------------------------
    Total     162     162      31      31      31       0
   -------------------------------------------------------

  ==> Integral Setup <==

  Using integral reordering PK algorithm.
  Sizing the integral batches needed.
  Building batch lookup table.
   Calculation information:
      Number of atoms:                  18
      Number of AO shells:              78
      Number of primitives:            226
      Number of atomic orbitals:       170
      Number of basis functions:       162

      Integral cutoff                 1.00e-12
      Number of threads:                 1

	Batch   1 pq = [       0,    9405] index = [             0,44231715] size =     44231715
	Batch   2 pq = [    9405,   13203] index = [      44231715,87166206] size =     42934491
  Task number: 8
  Buffer size: 11059200
  Buffer per thread: 2
  We computed 4041328 shell quartets total.
  Whereas there are 4747821 unique shell quartets.

  ==> DiskJK: Disk-Based J/K Matrices <==

    J tasked:                  Yes
    K tasked:                  Yes
    wK tasked:                  No
    Memory [MiB]:              375
    Schwarz Cutoff:          1E-12

    OpenMP threads:              1

  Minimum eigenvalue in the overlap matrix is 1.1684388295E-03.
  Using Symmetric Orthogonalization.

  SCF Guess: Superposition of Atomic Densities via on-the-fly atomic UHF.

  ==> Iterations <==

                        Total Energy        Delta E     RMS |[F,P]|

   @RHF iter SAD:  -377.97044981734018   -3.77970e+02   0.00000e+00
   @RHF iter   1:  -378.73909401096984   -7.68644e-01   3.49512e-03 DIIS
   @RHF iter   2:  -378.88920993053330   -1.50116e-01   1.80561e-03 DIIS
   @RHF iter   3:  -378.92537010638512   -3.61602e-02   4.21309e-04 DIIS
   @RHF iter   4:  -378.92828124683820   -2.91114e-03   1.62961e-04 DIIS
   @RHF iter   5:  -378.92866878271627   -3.87536e-04   3.56417e-05 DIIS
   @RHF iter   6:  -378.92869418114373   -2.53984e-05   1.40214e-05 DIIS
   @RHF iter   7:  -378.92869860923133   -4.42809e-06   4.32179e-06 DIIS
   @RHF iter   8:  -378.92869942535486   -8.16124e-07   1.74111e-06 DIIS
   @RHF iter   9:  -378.92869957435903   -1.49004e-07   7.23868e-07 DIIS
   @RHF iter  10:  -378.92869959503190   -2.06729e-08   2.28798e-07 DIIS
   @RHF iter  11:  -378.92869959795303   -2.92113e-09   7.11685e-08 DIIS
   @RHF iter  12:  -378.92869959817244   -2.19416e-10   3.04572e-08 DIIS
   @RHF iter  13:  -378.92869959820928   -3.68345e-11   1.02242e-08 DIIS
   @RHF iter  14:  -378.92869959821383   -4.54747e-12   3.34877e-09 DIIS
   @RHF iter  15:  -378.92869959821275    1.08002e-12   1.52564e-09 DIIS
   @RHF iter  16:  -378.92869959821451   -1.76215e-12   4.30810e-10 DIIS
   @RHF iter  17:  -378.92869959821365    8.52651e-13   2.03006e-10 DIIS
   @RHF iter  18:  -378.92869959821383   -1.70530e-13   5.89937e-11 DIIS
  Energy and wave function converged.

  ==> Post-Iterations <==

    Orbital Energies [Eh]
    ---------------------

    Doubly Occupied:

       1A    -20.495928     2A    -15.635749     3A    -15.549776
       4A    -11.310021     5A    -11.261155     6A    -11.254788
       7A    -11.247181     8A    -11.225784     9A     -1.355604
      10A     -1.297351    11A     -1.170039    12A     -1.042125
      13A     -0.948437    14A     -0.885849    15A     -0.833459
      16A     -0.776505    17A     -0.752095    18A     -0.644779
      19A     -0.620985    20A     -0.615307    21A     -0.608747
      22A     -0.579648    23A     -0.559697    24A     -0.549007
      25A     -0.546217    26A     -0.525489    27A     -0.464534
      28A     -0.423606    29A     -0.401512    30A     -0.394567
      31A     -0.320558

    Virtual:

      32A      0.164060    33A      0.171516    34A      0.195775
      35A      0.199403    36A      0.218218    37A      0.232514
      38A      0.237207    39A      0.276870    40A      0.287387
      41A      0.291887    42A      0.297373    43A      0.340018
      44A      0.366539    45A      0.387881    46A      0.415644
      47A      0.455833    48A      0.476188    49A      0.493821
      50A      0.594561    51A      0.617100    52A      0.647535
      53A      0.651204    54A      0.661517    55A      0.670529
      56A      0.683770    57A      0.704396    58A      0.723345
      59A      0.744389    60A      0.759477    61A      0.774521
      62A      0.802936    63A      0.827378    64A      0.843352
      65A      0.874503    66A      0.875848    67A      0.893997
      68A      0.894973    69A      0.905349    70A      0.909615
      71A      0.933505    72A      0.941780    73A      0.965986
      74A      0.980559    75A      1.017683    76A      1.035818
      77A      1.084832    78A      1.107140    79A      1.119559
      80A      1.124152    81A      1.162395    82A      1.185703
      83A      1.214988    84A      1.257615    85A      1.264712
      86A      1.280401    87A      1.309038    88A      1.314591
      89A      1.355603    90A      1.383214    91A      1.411691
      92A      1.433833    93A      1.458450    94A      1.510332
      95A      1.523238    96A      1.539216    97A      1.575758
      98A      1.602994    99A      1.650473   100A      1.684635
     101A      1.693362   102A      1.695229   103A      1.724922
     104A      1.759817   105A      1.774263   106A      1.797757
     107A      1.834125   108A      1.853375   109A      1.884435
     110A      1.897931   111A      1.900112   112A      1.923426
     113A      1.928444   114A      1.935325   115A      1.946748
     116A      1.960210   117A      1.967462   118A      1.975987
     119A      2.004350   120A      2.051952   121A      2.073823
     122A      2.114612   123A      2.142434   124A      2.152196
     125A      2.196858   126A      2.215052   127A      2.255095
     128A      2.286207   129A      2.327260   130A      2.345900
     131A      2.377910   132A      2.397104   133A      2.431497
     134A      2.434660   135A      2.442374   136A      2.470247
     137A      2.577241   138A      2.596768   139A      2.650876
     140A      2.717257   141A      2.734133   142A      2.760541
     143A      2.780502   144A      2.785355   145A      2.792422
     146A      2.804189   147A      2.821467   148A      2.845065
     149A      2.864249   150A      2.884317   151A      2.911928
     152A      2.952544   153A      3.076044   154A      3.130344
     155A      3.209549   156A      3.358614   157A      3.434771
     158A      3.449364   159A      3.485290   160A      3.645383
     161A      3.776752   162A      4.173902

    Final Occupation by Irrep:
              A
    DOCC [    31 ]

  @RHF Final Energy:  -378.92869959821383

   => Energetics <=

    Nuclear Repulsion Energy =            362.1294163950469738
    One-Electron Energy =               -1233.5232370121793792
    Two-Electron Energy =                 492.4651210189185804
    Total Energy =                       -378.9286995982138251

Computation Completed

Properties will be evaluated at   0.000000,   0.000000,   0.000000 [a0]

Properties computed using the SCF density matrix

  Nuclear Dipole Moment: [e a0]
     X:    -4.2569      Y:     2.6038      Z:     1.0398

  Electronic Dipole Moment: [e a0]
     X:     6.3773      Y:    -3.1134      Z:    -1.1884

  Dipole Moment: [e a0]
     X:     2.1204      Y:    -0.5095      Z:    -0.1485     Total:     2.1858

  Dipole Moment: [D]
     X:     5.3894      Y:    -1.2951      Z:    -0.3776     Total:     5.5557

*** tstop() called on ds3 at Tue Apr 28 12:11:53 2020
Module time:
	user time   =      32.19 seconds =       0.54 minutes
	system time =      15.09 seconds =       0.25 minutes
	total time  =         46 seconds =       0.77 minutes
Total time:
	user time   =      32.19 seconds =       0.54 minutes
	system time =      15.09 seconds =       0.25 minutes
	total time  =         46 seconds =       0.77 minutes
                                     G D M A

                                 by Anthony Stone

                           version 2.2.06, 22 June 2011

               Distributed Multipoles from Gaussian wavefunctions

Starting at 12:11:53 on 28 Apr 2020

Using SCF density matrix from file ./SSI/SSI-015THR-060HIE-1-dimer.test.9624.fchk

                         Distributed Multipole Analysis

Standard DMA

Positions and radii in angstrom
Multipole moments in atomic units, ea_0^k for rank k

C          x = -2.229137  y =  1.657164  z =  2.298934 angstrom
           Maximum rank =  0   Radius =  0.650 angstrom
                   Q00  =  -0.024348

O          x = -2.224137  y =  0.708164  z =  1.234934 angstrom
           Maximum rank =  0   Radius =  0.650 angstrom
                   Q00  =  -0.688156

H          x = -1.311137  y =  0.633164  z =  0.897934 angstrom
           Maximum rank =  0   Radius =  0.325 angstrom
                   Q00  =   0.503451

H          x = -1.243137  y =  1.673164  z =  2.767934 angstrom
           Maximum rank =  0   Radius =  0.325 angstrom
                   Q00  =   0.049650

H          x = -2.459727  y =  2.662804  z =  1.917461 angstrom
           Maximum rank =  0   Radius =  0.325 angstrom
                   Q00  =   0.062552

H          x = -2.965877  y =  1.353804  z =  3.057343 angstrom
           Maximum rank =  0   Radius =  0.325 angstrom
                   Q00  =   0.088381

C          x = -0.803137  y = -0.255836  z = -2.127066 angstrom
           Maximum rank =  0   Radius =  0.650 angstrom
                   Q00  =  -0.207491

C          x =  0.359863  y = -0.387836  z = -1.190066 angstrom
           Maximum rank =  0   Radius =  0.650 angstrom
                   Q00  =   0.211611

C          x =  1.468863  y = -0.240836  z =  0.704934 angstrom
           Maximum rank =  0   Radius =  0.650 angstrom
                   Q00  =   0.469352

C          x =  1.560863  y = -0.999836  z = -1.361066 angstrom
           Maximum rank =  0   Radius =  0.650 angstrom
                   Q00  =   0.003246

N          x =  0.324863  y =  0.081164  z =  0.107934 angstrom
           Maximum rank =  0   Radius =  0.650 angstrom
                   Q00  =  -0.802925

N          x =  2.234863  y = -0.894836  z = -0.163066 angstrom
           Maximum rank =  0   Radius =  0.650 angstrom
                   Q00  =  -0.464859

H          x =  1.729863  y = -0.012836  z =  1.731934 angstrom
           Maximum rank =  0   Radius =  0.325 angstrom
                   Q00  =   0.128181

H          x = -1.686137  y =  0.011164  z = -1.552066 angstrom
           Maximum rank =  0   Radius =  0.325 angstrom
                   Q00  =   0.140060

H          x = -0.975137  y = -1.246836  z = -2.551066 angstrom
           Maximum rank =  0   Radius =  0.325 angstrom
                   Q00  =   0.097496

H          x =  3.155863  y = -1.270836  z =  0.037934 angstrom
           Maximum rank =  0   Radius =  0.325 angstrom
                   Q00  =   0.225765

H          x =  1.902863  y = -1.498836  z = -2.259066 angstrom
           Maximum rank =  0   Radius =  0.325 angstrom
                   Q00  =   0.105474

H          x = -0.668977  y =  0.466614  z = -2.945646 angstrom
           Maximum rank =  0   Radius =  0.325 angstrom
                   Q00  =   0.102561

Total multipoles referred to origin at
           x =   0.000000,  y =    0.000000,  z =    0.000000 angstrom
                   Q00  =  -0.000000

Finished at 12:11:53 on 28 Apr 2020

  DMA results are available in the Python driver through the
	  variable('DMA DISTRIBUTED MULTIPOLES')
  and
	  variable('DMA TOTAL MULTIPOLES')
  commands.

    Psi4 stopped on: Tuesday, 28 April 2020 12:11PM
    Psi4 wall time for execution: 0:00:45.82

*** Psi4 exiting successfully. Buy a developer a beer!
