                               Psi4 1.3.2 release

  ==> Input File <==

--------------------------------------------------------------------------
import numpy as np
set {scf_type pk
basis cc-pvdz
d_convergence 10
gdma_switch   0
gdma_limit    0
gdma_origin   [ 0.0,  0.0,  0.0 ]
}
molecule test {
    units Angstrom
    0 1
    --
    0 1
    C                2.080500064226289     3.657309123471523    -0.309928554721538
    C               -0.814499935773711     1.653309123471524     1.158071445278462
    C               -0.144499935773711     0.541309123471523     1.669071445278462
    C               -0.084499935773711     2.660309123471523     0.517071445278462
    C                1.301500064226289     2.568309123471523     0.382071445278462
    C                1.242500064226289     0.434309123471524     1.538071445278462
    C                1.957500064226289     1.451309123471523     0.895071445278462
    O               -0.848499935773711    -0.443690876528476     2.300071445278462
    H               -1.883499935773711     1.736309123471524     1.265071445278462
    H               -0.607499935773711     3.521309123471524     0.122071445278462
    H                1.763500064226289    -0.420690876528477     1.935071445278462
    H               -0.268499935773711    -1.221690876528476     2.376071445278462
    H                2.720500064226289     4.145309123471524     0.427071445278462
    H                1.389500064226289     4.402309123471523    -0.702928554721538
    H                3.028500064226289     1.378309123471523     0.807071445278462
    H                2.704900064226289     3.281369123471523    -1.133819554721538
    C               -1.765499935773711    -3.987690876528477    -1.185928554721538
    C               -0.755499935773711    -0.484690876528476    -1.278928554721538
    C               -1.019499935773711    -2.674690876528476    -1.270928554721538
    C                0.240500064226289    -2.400690876528476    -1.702928554721537
    N               -1.623499935773711    -1.458690876528477    -1.011928554721538
    N                0.380500064226289    -1.027690876528476    -1.696928554721538
    H               -0.950499935773711     0.579309123471524    -1.208928554721537
    H                1.193500064226289    -0.485690876528477    -1.987928554721538
    H                0.953500064226289    -3.113690876528477    -2.081928554721538
    H               -2.223499935773711    -4.147690876528476    -2.163928554721538
    H               -2.577499935773711    -3.894690876528477    -0.462928554721538
    H               -1.159359935773711    -4.874030876528477    -0.947188554721538

}
e, wfn = energy('scf', return_wfn=True)
gdma(wfn)
dmavals = variable('DMA DISTRIBUTED MULTIPOLES')
charges = np.array(dmavals)
print(charges)
np.save('SSI-031TYR-048HIE-1-dimer.npy', np.array(charges))--------------------------------------------------------------------------

*** tstart() called on ds3
*** at Mon Apr 27 19:30:22 2020

   => Loading Basis Set <=

    Name: CC-PVDZ
    Role: ORBITAL
    Keyword: BASIS
    atoms 1-7, 17-20  entry C          line   138 file /theoryfs2/ds/metcalf/miniconda2/envs/tf2gpu/share/psi4/basis/cc-pvdz.gbs
    atoms 8           entry O          line   198 file /theoryfs2/ds/metcalf/miniconda2/envs/tf2gpu/share/psi4/basis/cc-pvdz.gbs
    atoms 9-16, 23-28 entry H          line    22 file /theoryfs2/ds/metcalf/miniconda2/envs/tf2gpu/share/psi4/basis/cc-pvdz.gbs
    atoms 21-22       entry N          line   168 file /theoryfs2/ds/metcalf/miniconda2/envs/tf2gpu/share/psi4/basis/cc-pvdz.gbs

         ---------------------------------------------------------
                                   SCF
               by Justin Turney, Rob Parrish, Andy Simmonett
                          and Daniel G. A. Smith
                              RHF Reference
                        1 Threads,    500 MiB Core
         ---------------------------------------------------------

  ==> Geometry <==

    Molecular point group: c1
    Full point group: C1

    Geometry (in Angstrom), charge = 0, multiplicity = 1:

       Center              X                  Y                   Z               Mass
    ------------   -----------------  -----------------  -----------------  -----------------
         C            2.080500064226     3.657309123472    -0.309928554722    12.000000000000
         C           -0.814499935774     1.653309123472     1.158071445278    12.000000000000
         C           -0.144499935774     0.541309123472     1.669071445278    12.000000000000
         C           -0.084499935774     2.660309123472     0.517071445278    12.000000000000
         C            1.301500064226     2.568309123472     0.382071445278    12.000000000000
         C            1.242500064226     0.434309123472     1.538071445278    12.000000000000
         C            1.957500064226     1.451309123472     0.895071445278    12.000000000000
         O           -0.848499935774    -0.443690876528     2.300071445278    15.994914619570
         H           -1.883499935774     1.736309123472     1.265071445278     1.007825032230
         H           -0.607499935774     3.521309123472     0.122071445278     1.007825032230
         H            1.763500064226    -0.420690876528     1.935071445278     1.007825032230
         H           -0.268499935774    -1.221690876528     2.376071445278     1.007825032230
         H            2.720500064226     4.145309123472     0.427071445278     1.007825032230
         H            1.389500064226     4.402309123472    -0.702928554722     1.007825032230
         H            3.028500064226     1.378309123472     0.807071445278     1.007825032230
         H            2.704900064226     3.281369123472    -1.133819554722     1.007825032230
         C           -1.765499935774    -3.987690876528    -1.185928554722    12.000000000000
         C           -0.755499935774    -0.484690876528    -1.278928554722    12.000000000000
         C           -1.019499935774    -2.674690876528    -1.270928554722    12.000000000000
         C            0.240500064226    -2.400690876528    -1.702928554722    12.000000000000
         N           -1.623499935774    -1.458690876528    -1.011928554722    14.003074004430
         N            0.380500064226    -1.027690876528    -1.696928554722    14.003074004430
         H           -0.950499935774     0.579309123472    -1.208928554722     1.007825032230
         H            1.193500064226    -0.485690876528    -1.987928554722     1.007825032230
         H            0.953500064226    -3.113690876528    -2.081928554722     1.007825032230
         H           -2.223499935774    -4.147690876528    -2.163928554722     1.007825032230
         H           -2.577499935774    -3.894690876528    -0.462928554722     1.007825032230
         H           -1.159359935774    -4.874030876528    -0.947188554722     1.007825032230

  Running in c1 symmetry.

  Rotational constants: A =      0.04135  B =      0.01304  C =      0.01164 [cm^-1]
  Rotational constants: A =   1239.64496  B =    391.02209  C =    349.05746 [MHz]
  Nuclear repulsion =  849.188796659654713

  Charge       = 0
  Multiplicity = 1
  Electrons    = 102
  Nalpha       = 51
  Nbeta        = 51

  ==> Algorithm <==

  SCF Algorithm Type is PK.
  DIIS enabled.
  MOM disabled.
  Fractional occupation disabled.
  Guess Type is SAD.
  Energy threshold   = 1.00e-06
  Density threshold  = 1.00e-10
  Integral threshold = 0.00e+00

  ==> Primary Basis <==

  Basis Set: CC-PVDZ
    Blend: CC-PVDZ
    Number of shells: 126
    Number of basis function: 266
    Number of Cartesian functions: 280
    Spherical Harmonics?: true
    Max angular momentum: 2

  ==> Pre-Iterations <==

   -------------------------------------------------------
    Irrep   Nso     Nmo     Nalpha   Nbeta   Ndocc  Nsocc
   -------------------------------------------------------
     A        266     266       0       0       0       0
   -------------------------------------------------------
    Total     266     266      51      51      51       0
   -------------------------------------------------------

  ==> Integral Setup <==

  Using integral reordering PK algorithm.
  Sizing the integral batches needed.
  Building batch lookup table.
   Calculation information:
      Number of atoms:                  28
      Number of AO shells:             126
      Number of primitives:            378
      Number of atomic orbitals:       280
      Number of basis functions:       266

      Integral cutoff                 1.00e-12
      Number of threads:                 1

	Batch   1 pq = [       0,    9405] index = [             0,44231715] size =     44231715
	Batch   2 pq = [    9405,   13301] index = [      44231715,88464951] size =     44233236
	Batch   3 pq = [   13301,   16290] index = [      88464951,132690195] size =     44225244
	Batch   4 pq = [   16290,   18810] index = [     132690195,176917455] size =     44227260
	Batch   5 pq = [   18810,   21030] index = [     176917455,221140965] size =     44223510
	Batch   6 pq = [   21030,   23037] index = [     221140965,265363203] size =     44222238
	Batch   7 pq = [   23037,   24883] index = [     265363203,309594286] size =     44231083
	Batch   8 pq = [   24883,   26601] index = [     309594286,353819901] size =     44225615
	Batch   9 pq = [   26601,   28214] index = [     353819901,398029005] size =     44209104
	Batch  10 pq = [   28214,   29740] index = [     398029005,442248670] size =     44219665
	Batch  11 pq = [   29740,   31191] index = [     442248670,486454836] size =     44206166
	Batch  12 pq = [   31191,   32578] index = [     486454836,530679331] size =     44224495
	Batch  13 pq = [   32578,   33908] index = [     530679331,574893186] size =     44213855
	Batch  14 pq = [   33908,   35188] index = [     574893186,619115266] size =     44222080
	Batch  15 pq = [   35188,   35511] index = [     619115266,630533316] size =     11418050
  Task number: 58
  Buffer size: 11059200
  Buffer per thread: 2
  We computed 33364844 shell quartets total.
  Whereas there are 32012001 unique shell quartets.
     4.23 percent of shell quartets recomputed by reordering.

  ==> DiskJK: Disk-Based J/K Matrices <==

    J tasked:                  Yes
    K tasked:                  Yes
    wK tasked:                  No
    Memory [MiB]:              375
    Schwarz Cutoff:          1E-12

    OpenMP threads:              1

  Minimum eigenvalue in the overlap matrix is 3.2685897967E-04.
  Using Symmetric Orthogonalization.

  SCF Guess: Superposition of Atomic Densities via on-the-fly atomic UHF.

  ==> Iterations <==

                        Total Energy        Delta E     RMS |[F,P]|

   @RHF iter SAD:  -607.49159244452210   -6.07492e+02   0.00000e+00
   @RHF iter   1:  -608.18275784508751   -6.91165e-01   2.59442e-03 DIIS
   @RHF iter   2:  -608.43604995414148   -2.53292e-01   1.21731e-03 DIIS
   @RHF iter   3:  -608.48419813808493   -4.81482e-02   3.30725e-04 DIIS
   @RHF iter   4:  -608.48886174538370   -4.66361e-03   1.37716e-04 DIIS
   @RHF iter   5:  -608.48961754659990   -7.55801e-04   2.09013e-05 DIIS
   @RHF iter   6:  -608.48964717210038   -2.96255e-05   9.36222e-06 DIIS
   @RHF iter   7:  -608.48965233201068   -5.15991e-06   3.03621e-06 DIIS
   @RHF iter   8:  -608.48965323270772   -9.00697e-07   1.26606e-06 DIIS
   @RHF iter   9:  -608.48965339240601   -1.59698e-07   5.23623e-07 DIIS
   @RHF iter  10:  -608.48965342107158   -2.86656e-08   1.76772e-07 DIIS
   @RHF iter  11:  -608.48965342536837   -4.29679e-09   6.89903e-08 DIIS
   @RHF iter  12:  -608.48965342605391   -6.85532e-10   2.93461e-08 DIIS
   @RHF iter  13:  -608.48965342614429   -9.03810e-11   9.54415e-09 DIIS
   @RHF iter  14:  -608.48965342615827   -1.39835e-11   4.09846e-09 DIIS
   @RHF iter  15:  -608.48965342616111   -2.84217e-12   1.90224e-09 DIIS
   @RHF iter  16:  -608.48965342616680   -5.68434e-12   7.33157e-10 DIIS
   @RHF iter  17:  -608.48965342616577    1.02318e-12   3.21541e-10 DIIS
   @RHF iter  18:  -608.48965342616032    5.45697e-12   1.25718e-10 DIIS
   @RHF iter  19:  -608.48965342616600   -5.68434e-12   5.89921e-11 DIIS
  Energy and wave function converged.

  ==> Post-Iterations <==

    Orbital Energies [Eh]
    ---------------------

    Doubly Occupied:

       1A    -20.579673     2A    -15.612075     3A    -15.518995
       4A    -11.300385     5A    -11.281596     6A    -11.244789
       7A    -11.243550     8A    -11.242449     9A    -11.239800
      10A    -11.238727    11A    -11.238087    12A    -11.234948
      13A    -11.233026    14A    -11.222037    15A     -1.393668
      16A     -1.331428    17A     -1.153849    18A     -1.142983
      19A     -1.040811    20A     -1.022136    21A     -1.020284
      22A     -0.935325    23A     -0.929258    24A     -0.848103
      25A     -0.806586    26A     -0.802082    27A     -0.753024
      28A     -0.734081    29A     -0.726294    30A     -0.670703
      31A     -0.644935    32A     -0.612782    33A     -0.603059
      34A     -0.598616    35A     -0.591184    36A     -0.588723
      37A     -0.583427    38A     -0.573839    39A     -0.565207
      40A     -0.545099    41A     -0.532393    42A     -0.530152
      43A     -0.519875    44A     -0.502322    45A     -0.489218
      46A     -0.468333    47A     -0.400699    48A     -0.370229
      49A     -0.342125    50A     -0.311174    51A     -0.294920

    Virtual:

      52A      0.121775    53A      0.146806    54A      0.167738
      55A      0.182424    56A      0.196592    57A      0.196750
      58A      0.205337    59A      0.213199    60A      0.221306
      61A      0.235866    62A      0.243816    63A      0.251299
      64A      0.265336    65A      0.270875    66A      0.277462
      67A      0.278451    68A      0.293656    69A      0.303158
      70A      0.362682    71A      0.365255    72A      0.378466
      73A      0.400514    74A      0.415117    75A      0.426533
      76A      0.448598    77A      0.469251    78A      0.481984
      79A      0.489277    80A      0.491554    81A      0.510119
      82A      0.604325    83A      0.611979    84A      0.620614
      85A      0.622126    86A      0.637236    87A      0.643238
      88A      0.647718    89A      0.658420    90A      0.672644
      91A      0.684518    92A      0.705257    93A      0.710908
      94A      0.723439    95A      0.727537    96A      0.740623
      97A      0.755712    98A      0.756009    99A      0.769381
     100A      0.774316   101A      0.788286   102A      0.791462
     103A      0.800432   104A      0.818175   105A      0.831506
     106A      0.839502   107A      0.849487   108A      0.868733
     109A      0.871977   110A      0.880512   111A      0.881030
     112A      0.884577   113A      0.890052   114A      0.898533
     115A      0.906232   116A      0.912606   117A      0.919676
     118A      0.930198   119A      0.933435   120A      0.940811
     121A      0.960144   122A      0.972745   123A      0.981417
     124A      1.008182   125A      1.016502   126A      1.026112
     127A      1.041492   128A      1.055412   129A      1.075447
     130A      1.086734   131A      1.105173   132A      1.118720
     133A      1.135193   134A      1.145964   135A      1.167144
     136A      1.173562   137A      1.198816   138A      1.203021
     139A      1.217919   140A      1.235412   141A      1.249663
     142A      1.264779   143A      1.278405   144A      1.283606
     145A      1.289523   146A      1.295518   147A      1.305205
     148A      1.313195   149A      1.326749   150A      1.344413
     151A      1.353210   152A      1.368070   153A      1.370987
     154A      1.378688   155A      1.442846   156A      1.467810
     157A      1.479391   158A      1.494776   159A      1.503036
     160A      1.518663   161A      1.549052   162A      1.555606
     163A      1.577754   164A      1.602150   165A      1.625140
     166A      1.633422   167A      1.672278   168A      1.684427
     169A      1.691307   170A      1.698455   171A      1.723436
     172A      1.729832   173A      1.755784   174A      1.776484
     175A      1.787745   176A      1.793803   177A      1.819987
     178A      1.831840   179A      1.846090   180A      1.860309
     181A      1.869505   182A      1.886093   183A      1.890332
     184A      1.910657   185A      1.915808   186A      1.925218
     187A      1.929000   188A      1.933689   189A      1.947522
     190A      1.948999   191A      1.951713   192A      1.961474
     193A      1.969747   194A      1.984146   195A      1.990599
     196A      1.997967   197A      2.025554   198A      2.032248
     199A      2.049035   200A      2.061529   201A      2.070665
     202A      2.080311   203A      2.102888   204A      2.114406
     205A      2.133641   206A      2.151638   207A      2.152791
     208A      2.191312   209A      2.200955   210A      2.205498
     211A      2.218762   212A      2.226196   213A      2.250247
     214A      2.258484   215A      2.270457   216A      2.298126
     217A      2.320468   218A      2.350649   219A      2.365488
     220A      2.371573   221A      2.382298   222A      2.415437
     223A      2.437538   224A      2.461934   225A      2.470499
     226A      2.476622   227A      2.501637   228A      2.503660
     229A      2.523044   230A      2.559222   231A      2.586374
     232A      2.611765   233A      2.619217   234A      2.636116
     235A      2.698257   236A      2.725577   237A      2.744645
     238A      2.763284   239A      2.767745   240A      2.782857
     241A      2.793284   242A      2.802446   243A      2.812199
     244A      2.832124   245A      2.837083   246A      2.845330
     247A      2.896744   248A      2.902245   249A      2.937697
     250A      2.976702   251A      3.005396   252A      3.020129
     253A      3.075856   254A      3.082569   255A      3.121243
     256A      3.169039   257A      3.251110   258A      3.280159
     259A      3.281046   260A      3.345519   261A      3.472202
     262A      3.594768   263A      3.688690   264A      3.812157
     265A      3.946088   266A      4.173432

    Final Occupation by Irrep:
              A
    DOCC [    51 ]

  @RHF Final Energy:  -608.48965342616600

   => Energetics <=

    Nuclear Repulsion Energy =            849.1887966596547130
    One-Electron Energy =               -2512.5387767434908710
    Two-Electron Energy =                1054.8603266576703845
    Total Energy =                       -608.4896534261658871

Computation Completed

Properties will be evaluated at   0.000000,   0.000000,   0.000000 [a0]

Properties computed using the SCF density matrix

  Nuclear Dipole Moment: [e a0]
     X:     3.8277      Y:     0.8357      Z:    -3.5033

  Electronic Dipole Moment: [e a0]
     X:    -2.1532      Y:    -0.6215      Z:     2.9814

  Dipole Moment: [e a0]
     X:     1.6745      Y:     0.2142      Z:    -0.5219     Total:     1.7670

  Dipole Moment: [D]
     X:     4.2562      Y:     0.5444      Z:    -1.3265     Total:     4.4912

*** tstop() called on ds3 at Mon Apr 27 19:43:05 2020
Module time:
	user time   =     286.29 seconds =       4.77 minutes
	system time =      97.86 seconds =       1.63 minutes
	total time  =        763 seconds =      12.72 minutes
Total time:
	user time   =     286.29 seconds =       4.77 minutes
	system time =      97.86 seconds =       1.63 minutes
	total time  =        763 seconds =      12.72 minutes
                                     G D M A

                                 by Anthony Stone

                           version 2.2.06, 22 June 2011

               Distributed Multipoles from Gaussian wavefunctions

Starting at 19:43:5 on 27 Apr 2020

Using SCF density matrix from file ./SSI/SSI-031TYR-048HIE-1-dimer.test.6707.fchk

                         Distributed Multipole Analysis

Standard DMA

Positions and radii in angstrom
Multipole moments in atomic units, ea_0^k for rank k

C          x =  2.080500  y =  3.657309  z = -0.309929 angstrom
           Maximum rank =  0   Radius =  0.650 angstrom
                   Q00  =  -0.192240

C          x = -0.814500  y =  1.653309  z =  1.158071 angstrom
           Maximum rank =  0   Radius =  0.650 angstrom
                   Q00  =  -0.113964

C          x = -0.144500  y =  0.541309  z =  1.669071 angstrom
           Maximum rank =  0   Radius =  0.650 angstrom
                   Q00  =   0.311492

C          x = -0.084500  y =  2.660309  z =  0.517071 angstrom
           Maximum rank =  0   Radius =  0.650 angstrom
                   Q00  =   0.013575

C          x =  1.301500  y =  2.568309  z =  0.382071 angstrom
           Maximum rank =  0   Radius =  0.650 angstrom
                   Q00  =  -0.143743

C          x =  1.242500  y =  0.434309  z =  1.538071 angstrom
           Maximum rank =  0   Radius =  0.650 angstrom
                   Q00  =  -0.178806

C          x =  1.957500  y =  1.451309  z =  0.895071 angstrom
           Maximum rank =  0   Radius =  0.650 angstrom
                   Q00  =  -0.034205

O          x = -0.848500  y = -0.443691  z =  2.300071 angstrom
           Maximum rank =  0   Radius =  0.650 angstrom
                   Q00  =  -0.655258

H          x = -1.883500  y =  1.736309  z =  1.265071 angstrom
           Maximum rank =  0   Radius =  0.325 angstrom
                   Q00  =   0.088034

H          x = -0.607500  y =  3.521309  z =  0.122071 angstrom
           Maximum rank =  0   Radius =  0.325 angstrom
                   Q00  =   0.064960

H          x =  1.763500  y = -0.420691  z =  1.935071 angstrom
           Maximum rank =  0   Radius =  0.325 angstrom
                   Q00  =   0.076149

H          x = -0.268500  y = -1.221691  z =  2.376071 angstrom
           Maximum rank =  0   Radius =  0.325 angstrom
                   Q00  =   0.409193

H          x =  2.720500  y =  4.145309  z =  0.427071 angstrom
           Maximum rank =  0   Radius =  0.325 angstrom
                   Q00  =   0.100935

H          x =  1.389500  y =  4.402309  z = -0.702929 angstrom
           Maximum rank =  0   Radius =  0.325 angstrom
                   Q00  =   0.098129

H          x =  3.028500  y =  1.378309  z =  0.807071 angstrom
           Maximum rank =  0   Radius =  0.325 angstrom
                   Q00  =   0.065443

H          x =  2.704900  y =  3.281369  z = -1.133820 angstrom
           Maximum rank =  0   Radius =  0.325 angstrom
                   Q00  =   0.092108

C          x = -1.765500  y = -3.987691  z = -1.185929 angstrom
           Maximum rank =  0   Radius =  0.650 angstrom
                   Q00  =  -0.203636

C          x = -0.755500  y = -0.484691  z = -1.278929 angstrom
           Maximum rank =  0   Radius =  0.650 angstrom
                   Q00  =   0.471652

C          x = -1.019500  y = -2.674691  z = -1.270929 angstrom
           Maximum rank =  0   Radius =  0.650 angstrom
                   Q00  =   0.228737

C          x =  0.240500  y = -2.400691  z = -1.702929 angstrom
           Maximum rank =  0   Radius =  0.650 angstrom
                   Q00  =  -0.011597

N          x = -1.623500  y = -1.458691  z = -1.011929 angstrom
           Maximum rank =  0   Radius =  0.650 angstrom
                   Q00  =  -0.777971

N          x =  0.380500  y = -1.027691  z = -1.696929 angstrom
           Maximum rank =  0   Radius =  0.650 angstrom
                   Q00  =  -0.471245

H          x = -0.950500  y =  0.579309  z = -1.208929 angstrom
           Maximum rank =  0   Radius =  0.325 angstrom
                   Q00  =   0.129732

H          x =  1.193500  y = -0.485691  z = -1.987929 angstrom
           Maximum rank =  0   Radius =  0.325 angstrom
                   Q00  =   0.221431

H          x =  0.953500  y = -3.113691  z = -2.081929 angstrom
           Maximum rank =  0   Radius =  0.325 angstrom
                   Q00  =   0.094495

H          x = -2.223500  y = -4.147691  z = -2.163929 angstrom
           Maximum rank =  0   Radius =  0.325 angstrom
                   Q00  =   0.103146

H          x = -2.577500  y = -3.894691  z = -0.462929 angstrom
           Maximum rank =  0   Radius =  0.325 angstrom
                   Q00  =   0.121014

H          x = -1.159360  y = -4.874031  z = -0.947189 angstrom
           Maximum rank =  0   Radius =  0.325 angstrom
                   Q00  =   0.092439

Total multipoles referred to origin at
           x =   0.000000,  y =    0.000000,  z =    0.000000 angstrom
                   Q00  =  -0.000000

Finished at 19:43:6 on 27 Apr 2020

  DMA results are available in the Python driver through the
	  variable('DMA DISTRIBUTED MULTIPOLES')
  and
	  variable('DMA TOTAL MULTIPOLES')
  commands.

    Psi4 stopped on: Monday, 27 April 2020 07:43PM
    Psi4 wall time for execution: 0:12:43.53

*** Psi4 exiting successfully. Buy a developer a beer!
