                               Psi4 1.3.2 release

  ==> Input File <==

--------------------------------------------------------------------------
import numpy as np
set {scf_type pk
basis cc-pvdz
d_convergence 10
gdma_switch   0
gdma_limit    0
gdma_origin   [ 0.0,  0.0,  0.0 ]
}
molecule test {
    units Angstrom
    0 1
    --
    0 1
    C                0.693654889425331     1.658451168353266     1.673062969628765
    C                0.888654889425332     0.843451168353266     0.422062969628765
    C                1.400654889425332    -0.450548831646734     0.491062969628765
    C                0.531654889425331     1.361451168353266    -0.814937030371235
    C                1.568654889425331    -1.209548831646734    -0.664937030371235
    C                0.692654889425331     0.601451168353266    -1.970937030371235
    C                1.210654889425332    -0.686548831646734    -1.895937030371235
    H                0.632654889425331     0.969451168353266     2.515062969628765
    H               -0.265345110574668     2.173451168353266     1.614062969628765
    H                1.676654889425332    -0.870548831646734     1.448062969628765
    H                0.125654889425332     2.360451168353266    -0.880937030371235
    H                1.979654889425332    -2.200548831646733    -0.624937030371235
    H                0.405654889425332     1.006451168353266    -2.930937030371235
    H                1.337654889425332    -1.277548831646734    -2.791937030371235
    H                1.493994889425332     2.385771168353266     1.874220969628765
    C               -2.381345110574669    -0.739548831646734     0.803062969628765
    C               -3.698345110574669    -1.256548831646734     1.383062969628765
    H               -2.163345110574669     0.253451168353266     1.196062969628765
    H               -1.567345110574668    -1.406548831646734     1.084062969628765
    H               -2.437345110574669    -0.703548831646734    -0.284937030371235
    H               -3.575345110574669    -1.299548831646734     2.464062969628765
    H               -4.526675110574669    -0.573798831646734     1.142810969628765
    H               -3.914755110574669    -2.270288831646734     1.014953969628765

}
e, wfn = energy('scf', return_wfn=True)
gdma(wfn)
dmavals = variable('DMA DISTRIBUTED MULTIPOLES')
charges = np.array(dmavals)
print(charges)
np.save('SSI-015PHE-044LEU-1-dimer.npy', np.array(charges))--------------------------------------------------------------------------

*** tstart() called on ds3
*** at Tue Apr 28 09:24:22 2020

   => Loading Basis Set <=

    Name: CC-PVDZ
    Role: ORBITAL
    Keyword: BASIS
    atoms 1-7, 16-17  entry C          line   138 file /theoryfs2/ds/metcalf/miniconda2/envs/tf2gpu/share/psi4/basis/cc-pvdz.gbs
    atoms 8-15, 18-23 entry H          line    22 file /theoryfs2/ds/metcalf/miniconda2/envs/tf2gpu/share/psi4/basis/cc-pvdz.gbs

         ---------------------------------------------------------
                                   SCF
               by Justin Turney, Rob Parrish, Andy Simmonett
                          and Daniel G. A. Smith
                              RHF Reference
                        1 Threads,    500 MiB Core
         ---------------------------------------------------------

  ==> Geometry <==

    Molecular point group: c1
    Full point group: C1

    Geometry (in Angstrom), charge = 0, multiplicity = 1:

       Center              X                  Y                   Z               Mass
    ------------   -----------------  -----------------  -----------------  -----------------
         C            0.693654889425     1.658451168353     1.673062969629    12.000000000000
         C            0.888654889425     0.843451168353     0.422062969629    12.000000000000
         C            1.400654889425    -0.450548831647     0.491062969629    12.000000000000
         C            0.531654889425     1.361451168353    -0.814937030371    12.000000000000
         C            1.568654889425    -1.209548831647    -0.664937030371    12.000000000000
         C            0.692654889425     0.601451168353    -1.970937030371    12.000000000000
         C            1.210654889425    -0.686548831647    -1.895937030371    12.000000000000
         H            0.632654889425     0.969451168353     2.515062969629     1.007825032230
         H           -0.265345110575     2.173451168353     1.614062969629     1.007825032230
         H            1.676654889425    -0.870548831647     1.448062969629     1.007825032230
         H            0.125654889425     2.360451168353    -0.880937030371     1.007825032230
         H            1.979654889425    -2.200548831647    -0.624937030371     1.007825032230
         H            0.405654889425     1.006451168353    -2.930937030371     1.007825032230
         H            1.337654889425    -1.277548831647    -2.791937030371     1.007825032230
         H            1.493994889425     2.385771168353     1.874220969629     1.007825032230
         C           -2.381345110575    -0.739548831647     0.803062969629    12.000000000000
         C           -3.698345110575    -1.256548831647     1.383062969629    12.000000000000
         H           -2.163345110575     0.253451168353     1.196062969629     1.007825032230
         H           -1.567345110575    -1.406548831647     1.084062969629     1.007825032230
         H           -2.437345110575    -0.703548831647    -0.284937030371     1.007825032230
         H           -3.575345110575    -1.299548831647     2.464062969629     1.007825032230
         H           -4.526675110575    -0.573798831647     1.142810969629     1.007825032230
         H           -3.914755110575    -2.270288831647     1.014953969629     1.007825032230

  Running in c1 symmetry.

  Rotational constants: A =      0.06084  B =      0.02879  C =      0.02480 [cm^-1]
  Rotational constants: A =   1823.81037  B =    863.10050  C =    743.47569 [MHz]
  Nuclear repulsion =  413.743776605109360

  Charge       = 0
  Multiplicity = 1
  Electrons    = 68
  Nalpha       = 34
  Nbeta        = 34

  ==> Algorithm <==

  SCF Algorithm Type is PK.
  DIIS enabled.
  MOM disabled.
  Fractional occupation disabled.
  Guess Type is SAD.
  Energy threshold   = 1.00e-06
  Density threshold  = 1.00e-10
  Integral threshold = 0.00e+00

  ==> Primary Basis <==

  Basis Set: CC-PVDZ
    Blend: CC-PVDZ
    Number of shells: 96
    Number of basis function: 196
    Number of Cartesian functions: 205
    Spherical Harmonics?: true
    Max angular momentum: 2

  ==> Pre-Iterations <==

   -------------------------------------------------------
    Irrep   Nso     Nmo     Nalpha   Nbeta   Ndocc  Nsocc
   -------------------------------------------------------
     A        196     196       0       0       0       0
   -------------------------------------------------------
    Total     196     196      34      34      34       0
   -------------------------------------------------------

  ==> Integral Setup <==

  Using integral reordering PK algorithm.
  Sizing the integral batches needed.
  Building batch lookup table.
   Calculation information:
      Number of atoms:                  23
      Number of AO shells:              96
      Number of primitives:            268
      Number of atomic orbitals:       205
      Number of basis functions:       196

      Integral cutoff                 1.00e-12
      Number of threads:                 1

	Batch   1 pq = [       0,    9405] index = [             0,44231715] size =     44231715
	Batch   2 pq = [    9405,   13301] index = [      44231715,88464951] size =     44233236
	Batch   3 pq = [   13301,   16290] index = [      88464951,132690195] size =     44225244
	Batch   4 pq = [   16290,   18810] index = [     132690195,176917455] size =     44227260
	Batch   5 pq = [   18810,   19306] index = [     176917455,186370471] size =      9453016
  Task number: 17
  Buffer size: 11059200
  Buffer per thread: 2
  We computed 10100815 shell quartets total.
  Whereas there are 10841496 unique shell quartets.

  ==> DiskJK: Disk-Based J/K Matrices <==

    J tasked:                  Yes
    K tasked:                  Yes
    wK tasked:                  No
    Memory [MiB]:              375
    Schwarz Cutoff:          1E-12

    OpenMP threads:              1

  Minimum eigenvalue in the overlap matrix is 3.0657953433E-04.
  Using Symmetric Orthogonalization.

  SCF Guess: Superposition of Atomic Densities via on-the-fly atomic UHF.

  ==> Iterations <==

                        Total Energy        Delta E     RMS |[F,P]|

   @RHF iter SAD:  -347.89417636283645   -3.47894e+02   0.00000e+00
   @RHF iter   1:  -348.76616471987745   -8.71988e-01   2.90519e-03 DIIS
   @RHF iter   2:  -348.95981044541054   -1.93646e-01   1.20494e-03 DIIS
   @RHF iter   3:  -348.99015561475903   -3.03452e-02   2.58175e-04 DIIS
   @RHF iter   4:  -348.99261934765190   -2.46373e-03   5.41091e-05 DIIS
   @RHF iter   5:  -348.99269532959971   -7.59819e-05   1.83046e-05 DIIS
   @RHF iter   6:  -348.99270347674610   -8.14715e-06   4.90090e-06 DIIS
   @RHF iter   7:  -348.99270415755996   -6.80814e-07   1.24829e-06 DIIS
   @RHF iter   8:  -348.99270420521202   -4.76521e-08   2.76750e-07 DIIS
   @RHF iter   9:  -348.99270420906100   -3.84898e-09   1.02944e-07 DIIS
   @RHF iter  10:  -348.99270420962250   -5.61499e-10   4.04683e-08 DIIS
   @RHF iter  11:  -348.99270420977211   -1.49612e-10   1.50355e-08 DIIS
   @RHF iter  12:  -348.99270420980230   -3.01839e-11   7.24084e-09 DIIS
   @RHF iter  13:  -348.99270420981139   -9.09495e-12   3.01625e-09 DIIS
   @RHF iter  14:  -348.99270420981043    9.66338e-13   6.31500e-10 DIIS
   @RHF iter  15:  -348.99270420980980    6.25278e-13   2.19069e-10 DIIS
   @RHF iter  16:  -348.99270420980770    2.10321e-12   1.09824e-10 DIIS
   @RHF iter  17:  -348.99270420980849   -7.95808e-13   4.08875e-11 DIIS
  Energy and wave function converged.

  ==> Post-Iterations <==

    Orbital Energies [Eh]
    ---------------------

    Doubly Occupied:

       1A    -11.238994     2A    -11.234591     3A    -11.233251
       4A    -11.229998     5A    -11.229387     6A    -11.229018
       7A    -11.228905     8A    -11.213656     9A    -11.208033
      10A     -1.153517    11A     -1.045183    12A     -1.011532
      13A     -1.010864    14A     -0.931455    15A     -0.829269
      16A     -0.826167    17A     -0.794461    18A     -0.691452
      19A     -0.631698    20A     -0.629840    21A     -0.592894
      22A     -0.591006    23A     -0.581710    24A     -0.577239
      25A     -0.562768    26A     -0.533641    27A     -0.495943
      28A     -0.485495    29A     -0.483459    30A     -0.482094
      31A     -0.479049    32A     -0.477199    33A     -0.331169
      34A     -0.322581

    Virtual:

      35A      0.136645    36A      0.141386    37A      0.175314
      38A      0.195254    39A      0.205067    40A      0.214962
      41A      0.241116    42A      0.250747    43A      0.255154
      44A      0.259478    45A      0.266226    46A      0.268779
      47A      0.280910    48A      0.289071    49A      0.299627
      50A      0.327240    51A      0.369956    52A      0.378017
      53A      0.396437    54A      0.453773    55A      0.465088
      56A      0.488165    57A      0.494228    58A      0.563115
      59A      0.566155    60A      0.597581    61A      0.602244
      62A      0.606699    63A      0.638742    64A      0.670816
      65A      0.680349    66A      0.692969    67A      0.704408
      68A      0.726518    69A      0.740863    70A      0.742917
      71A      0.747636    72A      0.755221    73A      0.759978
      74A      0.769489    75A      0.782722    76A      0.790427
      77A      0.839191    78A      0.847655    79A      0.864184
      80A      0.866413    81A      0.879865    82A      0.895797
      83A      0.897733    84A      0.898822    85A      0.900057
      86A      0.914615    87A      0.920790    88A      0.928472
      89A      0.938553    90A      0.945260    91A      0.969162
      92A      0.975558    93A      0.996284    94A      1.006995
      95A      1.017158    96A      1.056144    97A      1.123516
      98A      1.131022    99A      1.135680   100A      1.146384
     101A      1.150340   102A      1.157540   103A      1.188032
     104A      1.231472   105A      1.240615   106A      1.251384
     107A      1.259390   108A      1.283882   109A      1.304720
     110A      1.308464   111A      1.324486   112A      1.331863
     113A      1.413930   114A      1.477497   115A      1.487859
     116A      1.511763   117A      1.518033   118A      1.554644
     119A      1.591037   120A      1.612204   121A      1.679983
     122A      1.685762   123A      1.699694   124A      1.704137
     125A      1.733767   126A      1.750058   127A      1.763653
     128A      1.794367   129A      1.811634   130A      1.858142
     131A      1.864151   132A      1.870593   133A      1.884564
     134A      1.892889   135A      1.911881   136A      1.921741
     137A      1.925400   138A      1.939568   139A      1.946453
     140A      1.947301   141A      1.951001   142A      1.953524
     143A      1.965196   144A      1.978323   145A      1.980666
     146A      1.989964   147A      2.002305   148A      2.028714
     149A      2.051176   150A      2.063909   151A      2.083769
     152A      2.097489   153A      2.113923   154A      2.129288
     155A      2.141341   156A      2.160248   157A      2.172752
     158A      2.175583   159A      2.189174   160A      2.254016
     161A      2.280484   162A      2.295161   163A      2.299727
     164A      2.306967   165A      2.322413   166A      2.325057
     167A      2.348747   168A      2.458394   169A      2.468023
     170A      2.471848   171A      2.482682   172A      2.508391
     173A      2.544216   174A      2.563534   175A      2.583653
     176A      2.624917   177A      2.747622   178A      2.759498
     179A      2.769409   180A      2.780801   181A      2.788746
     182A      2.800643   183A      2.815047   184A      2.853320
     185A      2.854756   186A      2.866932   187A      2.876362
     188A      2.964170   189A      2.968590   190A      2.991959
     191A      3.014048   192A      3.035033   193A      3.159486
     194A      3.202566   195A      3.308444   196A      3.978443

    Final Occupation by Irrep:
              A
    DOCC [    34 ]

  @RHF Final Energy:  -348.99270420980849

   => Energetics <=

    Nuclear Repulsion Energy =            413.7437766051093604
    One-Electron Energy =               -1290.2779259838748658
    Two-Electron Energy =                 527.5414451689570114
    Total Energy =                       -348.9927042098084939

Computation Completed

Properties will be evaluated at   0.000000,   0.000000,   0.000000 [a0]

Properties computed using the SCF density matrix

  Nuclear Dipole Moment: [e a0]
     X:   -10.1230      Y:    -1.3625      Z:     6.4120

  Electronic Dipole Moment: [e a0]
     X:    10.1667      Y:     1.4350      Z:    -6.3462

  Dipole Moment: [e a0]
     X:     0.0437      Y:     0.0725      Z:     0.0658     Total:     0.1072

  Dipole Moment: [D]
     X:     0.1111      Y:     0.1843      Z:     0.1673     Total:     0.2726

*** tstop() called on ds3 at Tue Apr 28 09:27:08 2020
Module time:
	user time   =      77.56 seconds =       1.29 minutes
	system time =      31.45 seconds =       0.52 minutes
	total time  =        166 seconds =       2.77 minutes
Total time:
	user time   =      77.56 seconds =       1.29 minutes
	system time =      31.45 seconds =       0.52 minutes
	total time  =        166 seconds =       2.77 minutes
                                     G D M A

                                 by Anthony Stone

                           version 2.2.06, 22 June 2011

               Distributed Multipoles from Gaussian wavefunctions

Starting at 9:27:8 on 28 Apr 2020

Using SCF density matrix from file ./SSI/SSI-015PHE-044LEU-1-dimer.test.10446.fchk

                         Distributed Multipole Analysis

Standard DMA

Positions and radii in angstrom
Multipole moments in atomic units, ea_0^k for rank k

C          x =  0.693655  y =  1.658451  z =  1.673063 angstrom
           Maximum rank =  0   Radius =  0.650 angstrom
                   Q00  =  -0.201125

C          x =  0.888655  y =  0.843451  z =  0.422063 angstrom
           Maximum rank =  0   Radius =  0.650 angstrom
                   Q00  =  -0.095879

C          x =  1.400655  y = -0.450549  z =  0.491063 angstrom
           Maximum rank =  0   Radius =  0.650 angstrom
                   Q00  =   0.005428

C          x =  0.531655  y =  1.361451  z = -0.814937 angstrom
           Maximum rank =  0   Radius =  0.650 angstrom
                   Q00  =  -0.090502

C          x =  1.568655  y = -1.209549  z = -0.664937 angstrom
           Maximum rank =  0   Radius =  0.650 angstrom
                   Q00  =  -0.075128

C          x =  0.692655  y =  0.601451  z = -1.970937 angstrom
           Maximum rank =  0   Radius =  0.650 angstrom
                   Q00  =  -0.060291

C          x =  1.210655  y = -0.686549  z = -1.895937 angstrom
           Maximum rank =  0   Radius =  0.650 angstrom
                   Q00  =  -0.080362

H          x =  0.632655  y =  0.969451  z =  2.515063 angstrom
           Maximum rank =  0   Radius =  0.325 angstrom
                   Q00  =   0.095620

H          x = -0.265345  y =  2.173451  z =  1.614063 angstrom
           Maximum rank =  0   Radius =  0.325 angstrom
                   Q00  =   0.097671

H          x =  1.676655  y = -0.870549  z =  1.448063 angstrom
           Maximum rank =  0   Radius =  0.325 angstrom
                   Q00  =   0.056488

H          x =  0.125655  y =  2.360451  z = -0.880937 angstrom
           Maximum rank =  0   Radius =  0.325 angstrom
                   Q00  =   0.055466

H          x =  1.979655  y = -2.200549  z = -0.624937 angstrom
           Maximum rank =  0   Radius =  0.325 angstrom
                   Q00  =   0.063360

H          x =  0.405655  y =  1.006451  z = -2.930937 angstrom
           Maximum rank =  0   Radius =  0.325 angstrom
                   Q00  =   0.063606

H          x =  1.337655  y = -1.277549  z = -2.791937 angstrom
           Maximum rank =  0   Radius =  0.325 angstrom
                   Q00  =   0.060650

H          x =  1.493995  y =  2.385771  z =  1.874221 angstrom
           Maximum rank =  0   Radius =  0.325 angstrom
                   Q00  =   0.106513

C          x = -2.381345  y = -0.739549  z =  0.803063 angstrom
           Maximum rank =  0   Radius =  0.650 angstrom
                   Q00  =  -0.227669

C          x = -3.698345  y = -1.256549  z =  1.383063 angstrom
           Maximum rank =  0   Radius =  0.650 angstrom
                   Q00  =  -0.238973

H          x = -2.163345  y =  0.253451  z =  1.196063 angstrom
           Maximum rank =  0   Radius =  0.325 angstrom
                   Q00  =   0.073873

H          x = -1.567345  y = -1.406549  z =  1.084063 angstrom
           Maximum rank =  0   Radius =  0.325 angstrom
                   Q00  =   0.080538

H          x = -2.437345  y = -0.703549  z = -0.284937 angstrom
           Maximum rank =  0   Radius =  0.325 angstrom
                   Q00  =   0.081578

H          x = -3.575345  y = -1.299549  z =  2.464063 angstrom
           Maximum rank =  0   Radius =  0.325 angstrom
                   Q00  =   0.073354

H          x = -4.526675  y = -0.573799  z =  1.142811 angstrom
           Maximum rank =  0   Radius =  0.325 angstrom
                   Q00  =   0.077270

H          x = -3.914755  y = -2.270289  z =  1.014954 angstrom
           Maximum rank =  0   Radius =  0.325 angstrom
                   Q00  =   0.078514

Total multipoles referred to origin at
           x =   0.000000,  y =    0.000000,  z =    0.000000 angstrom
                   Q00  =  -0.000000

Finished at 9:27:8 on 28 Apr 2020

  DMA results are available in the Python driver through the
	  variable('DMA DISTRIBUTED MULTIPOLES')
  and
	  variable('DMA TOTAL MULTIPOLES')
  commands.

    Psi4 stopped on: Tuesday, 28 April 2020 09:27AM
    Psi4 wall time for execution: 0:02:45.48

*** Psi4 exiting successfully. Buy a developer a beer!
