                               Psi4 1.3.2 release

  ==> Input File <==

--------------------------------------------------------------------------
import numpy as np
set {scf_type pk
basis cc-pvdz
d_convergence 10
gdma_switch   0
gdma_limit    0
gdma_origin   [ 0.0,  0.0,  0.0 ]
}
molecule test {
    units Angstrom
    -1 1
    --
    -1 1
    C               -1.343981714577233    -2.259502937044065    -3.738522278058694
    C               -0.440981714577233    -0.228502937044065    -0.707522278058693
    C               -1.206981714577233    -1.253502937044065    -1.317522278058693
    C               -0.809981714577233    -1.324502937044065    -2.696522278058694
    C                0.148018285422767    -0.373502937044065    -2.864522278058693
    C               -0.576981714577233     0.107497062955935     0.630477721941307
    C               -1.496981714577233    -0.597502937044065     1.381477721941307
    C               -2.269981714577232    -1.617502937044065     0.809477721941307
    C               -2.134981714577233    -1.952502937044065    -0.535522278058693
    N                0.375018285422767     0.286497062955935    -1.679522278058693
    H                0.022018285422767     0.890497062955935     1.067477721941307
    H               -1.604981714577232    -0.363502937044065     2.431477721941306
    H                1.064018285422767     1.019497062955935    -1.548522278058693
    H               -2.982981714577233    -2.151502937044065     1.425477721941307
    H                0.645018285422768    -0.159502937044065    -3.800522278058693
    H               -2.733981714577232    -2.734502937044065    -0.977522278058693
    H               -1.101981714577233    -1.856502937044065    -4.723522278058693
    H               -2.431981714577232    -2.281502937044065    -3.650522278058693
    H               -0.961087714577233    -3.287992937044065    -3.663672278058693
    C                1.113018285422767     3.048497062955935     2.510477721941307
    C                2.208018285422768     1.996497062955935     2.466477721941307
    O                2.582018285422768     1.475497062955935     3.537477721941307
    O                2.679018285422768     1.681497062955935     1.351477721941307
    H                0.236018285422767     2.620497062955935     2.999477721941307
    H                0.827018285422767     3.305497062955935     1.494477721941307
    H                1.422723285422767     3.953897062955935     3.052997721941307

}
e, wfn = energy('scf', return_wfn=True)
gdma(wfn)
dmavals = variable('DMA DISTRIBUTED MULTIPOLES')
charges = np.array(dmavals)
print(charges)
np.save('SSI-029TRP-308ASP-1-dimer.npy', np.array(charges))--------------------------------------------------------------------------

*** tstart() called on ds3
*** at Tue Apr 28 07:59:11 2020

   => Loading Basis Set <=

    Name: CC-PVDZ
    Role: ORBITAL
    Keyword: BASIS
    atoms 1-9, 20-21   entry C          line   138 file /theoryfs2/ds/metcalf/miniconda2/envs/tf2gpu/share/psi4/basis/cc-pvdz.gbs
    atoms 10           entry N          line   168 file /theoryfs2/ds/metcalf/miniconda2/envs/tf2gpu/share/psi4/basis/cc-pvdz.gbs
    atoms 11-19, 24-26 entry H          line    22 file /theoryfs2/ds/metcalf/miniconda2/envs/tf2gpu/share/psi4/basis/cc-pvdz.gbs
    atoms 22-23        entry O          line   198 file /theoryfs2/ds/metcalf/miniconda2/envs/tf2gpu/share/psi4/basis/cc-pvdz.gbs

         ---------------------------------------------------------
                                   SCF
               by Justin Turney, Rob Parrish, Andy Simmonett
                          and Daniel G. A. Smith
                              RHF Reference
                        1 Threads,    500 MiB Core
         ---------------------------------------------------------

  ==> Geometry <==

    Molecular point group: c1
    Full point group: C1

    Geometry (in Angstrom), charge = -1, multiplicity = 1:

       Center              X                  Y                   Z               Mass
    ------------   -----------------  -----------------  -----------------  -----------------
         C           -1.343981714577    -2.259502937044    -3.738522278059    12.000000000000
         C           -0.440981714577    -0.228502937044    -0.707522278059    12.000000000000
         C           -1.206981714577    -1.253502937044    -1.317522278059    12.000000000000
         C           -0.809981714577    -1.324502937044    -2.696522278059    12.000000000000
         C            0.148018285423    -0.373502937044    -2.864522278059    12.000000000000
         C           -0.576981714577     0.107497062956     0.630477721941    12.000000000000
         C           -1.496981714577    -0.597502937044     1.381477721941    12.000000000000
         C           -2.269981714577    -1.617502937044     0.809477721941    12.000000000000
         C           -2.134981714577    -1.952502937044    -0.535522278059    12.000000000000
         N            0.375018285423     0.286497062956    -1.679522278059    14.003074004430
         H            0.022018285423     0.890497062956     1.067477721941     1.007825032230
         H           -1.604981714577    -0.363502937044     2.431477721941     1.007825032230
         H            1.064018285423     1.019497062956    -1.548522278059     1.007825032230
         H           -2.982981714577    -2.151502937044     1.425477721941     1.007825032230
         H            0.645018285423    -0.159502937044    -3.800522278059     1.007825032230
         H           -2.733981714577    -2.734502937044    -0.977522278059     1.007825032230
         H           -1.101981714577    -1.856502937044    -4.723522278059     1.007825032230
         H           -2.431981714577    -2.281502937044    -3.650522278059     1.007825032230
         H           -0.961087714577    -3.287992937044    -3.663672278059     1.007825032230
         C            1.113018285423     3.048497062956     2.510477721941    12.000000000000
         C            2.208018285423     1.996497062956     2.466477721941    12.000000000000
         O            2.582018285423     1.475497062956     3.537477721941    15.994914619570
         O            2.679018285423     1.681497062956     1.351477721941    15.994914619570
         H            0.236018285423     2.620497062956     2.999477721941     1.007825032230
         H            0.827018285423     3.305497062956     1.494477721941     1.007825032230
         H            1.422723285423     3.953897062956     3.052997721941     1.007825032230

  Running in c1 symmetry.

  Rotational constants: A =      0.04169  B =      0.01051  C =      0.00889 [cm^-1]
  Rotational constants: A =   1249.77113  B =    314.93743  C =    266.56760 [MHz]
  Nuclear repulsion =  801.941276198131732

  Charge       = -1
  Multiplicity = 1
  Electrons    = 102
  Nalpha       = 51
  Nbeta        = 51

  ==> Algorithm <==

  SCF Algorithm Type is PK.
  DIIS enabled.
  MOM disabled.
  Fractional occupation disabled.
  Guess Type is SAD.
  Energy threshold   = 1.00e-06
  Density threshold  = 1.00e-10
  Integral threshold = 0.00e+00

  ==> Primary Basis <==

  Basis Set: CC-PVDZ
    Blend: CC-PVDZ
    Number of shells: 120
    Number of basis function: 256
    Number of Cartesian functions: 270
    Spherical Harmonics?: true
    Max angular momentum: 2

  ==> Pre-Iterations <==

   -------------------------------------------------------
    Irrep   Nso     Nmo     Nalpha   Nbeta   Ndocc  Nsocc
   -------------------------------------------------------
     A        256     256       0       0       0       0
   -------------------------------------------------------
    Total     256     256      51      51      51       0
   -------------------------------------------------------

  ==> Integral Setup <==

  Using integral reordering PK algorithm.
  Sizing the integral batches needed.
  Building batch lookup table.
   Calculation information:
      Number of atoms:                  26
      Number of AO shells:             120
      Number of primitives:            368
      Number of atomic orbitals:       270
      Number of basis functions:       256

      Integral cutoff                 1.00e-12
      Number of threads:                 1

	Batch   1 pq = [       0,    9405] index = [             0,44231715] size =     44231715
	Batch   2 pq = [    9405,   13301] index = [      44231715,88464951] size =     44233236
	Batch   3 pq = [   13301,   16290] index = [      88464951,132690195] size =     44225244
	Batch   4 pq = [   16290,   18810] index = [     132690195,176917455] size =     44227260
	Batch   5 pq = [   18810,   21030] index = [     176917455,221140965] size =     44223510
	Batch   6 pq = [   21030,   23037] index = [     221140965,265363203] size =     44222238
	Batch   7 pq = [   23037,   24883] index = [     265363203,309594286] size =     44231083
	Batch   8 pq = [   24883,   26601] index = [     309594286,353819901] size =     44225615
	Batch   9 pq = [   26601,   28214] index = [     353819901,398029005] size =     44209104
	Batch  10 pq = [   28214,   29740] index = [     398029005,442248670] size =     44219665
	Batch  11 pq = [   29740,   31191] index = [     442248670,486454836] size =     44206166
	Batch  12 pq = [   31191,   32578] index = [     486454836,530679331] size =     44224495
	Batch  13 pq = [   32578,   32896] index = [     530679331,541089856] size =     10410525
  Task number: 49
  Buffer size: 11059200
  Buffer per thread: 2
  We computed 22308558 shell quartets total.
  Whereas there are 26357430 unique shell quartets.

  ==> DiskJK: Disk-Based J/K Matrices <==

    J tasked:                  Yes
    K tasked:                  Yes
    wK tasked:                  No
    Memory [MiB]:              375
    Schwarz Cutoff:          1E-12

    OpenMP threads:              1

  Minimum eigenvalue in the overlap matrix is 2.2996284263E-04.
  Using Symmetric Orthogonalization.

  SCF Guess: Superposition of Atomic Densities via on-the-fly atomic UHF.

  ==> Iterations <==

                        Total Energy        Delta E     RMS |[F,P]|

   @RHF iter SAD:  -626.57253552773977   -6.26573e+02   0.00000e+00
   @RHF iter   1:  -627.40634873928775   -8.33813e-01   3.23676e-03 DIIS
   @RHF iter   2:  -627.70409853820206   -2.97750e-01   1.74311e-03 DIIS
   @RHF iter   3:  -627.78206904087290   -7.79705e-02   3.18170e-04 DIIS
   @RHF iter   4:  -627.78644727862695   -4.37824e-03   1.19436e-04 DIIS
   @RHF iter   5:  -627.78705167274927   -6.04394e-04   2.22042e-05 DIIS
   @RHF iter   6:  -627.78708044525058   -2.87725e-05   1.15468e-05 DIIS
   @RHF iter   7:  -627.78708743048333   -6.98523e-06   2.95641e-06 DIIS
   @RHF iter   8:  -627.78708848207930   -1.05160e-06   1.10723e-06 DIIS
   @RHF iter   9:  -627.78708862430017   -1.42221e-07   4.21931e-07 DIIS
   @RHF iter  10:  -627.78708864227224   -1.79721e-08   1.54198e-07 DIIS
   @RHF iter  11:  -627.78708864536975   -3.09751e-09   7.44155e-08 DIIS
   @RHF iter  12:  -627.78708864610508   -7.35326e-10   4.01900e-08 DIIS
   @RHF iter  13:  -627.78708864640930   -3.04226e-10   1.62827e-08 DIIS
   @RHF iter  14:  -627.78708864645716   -4.78622e-11   4.53137e-09 DIIS
   @RHF iter  15:  -627.78708864646069   -3.52429e-12   1.39836e-09 DIIS
   @RHF iter  16:  -627.78708864645978    9.09495e-13   5.86650e-10 DIIS
   @RHF iter  17:  -627.78708864645569    4.09273e-12   2.66684e-10 DIIS
   @RHF iter  18:  -627.78708864645660   -9.09495e-13   1.01110e-10 DIIS
   @RHF iter  19:  -627.78708864645705   -4.54747e-13   4.71463e-11 DIIS
  Energy and wave function converged.

  ==> Post-Iterations <==

    Orbital Energies [Eh]
    ---------------------

    Doubly Occupied:

       1A    -20.268435     2A    -20.261191     3A    -15.500422
       4A    -11.174000     5A    -11.162029     6A    -11.152201
       7A    -11.136930     8A    -11.128914     9A    -11.128132
      10A    -11.126519    11A    -11.125246    12A    -11.121481
      13A    -11.120746    14A    -11.057652    15A     -1.196488
      16A     -1.155951    17A     -1.042130    18A     -1.031095
      19A     -0.982194    20A     -0.901222    21A     -0.893190
      22A     -0.844833    23A     -0.805714    24A     -0.742575
      25A     -0.706909    26A     -0.658896    27A     -0.621632
      28A     -0.567551    29A     -0.547582    30A     -0.508219
      31A     -0.506999    32A     -0.503430    33A     -0.491118
      34A     -0.479057    35A     -0.465698    36A     -0.452482
      37A     -0.436128    38A     -0.421124    39A     -0.415757
      40A     -0.409562    41A     -0.401841    42A     -0.373703
      43A     -0.364863    44A     -0.348676    45A     -0.311362
      46A     -0.277122    47A     -0.198251    48A     -0.189902
      49A     -0.181281    50A     -0.177272    51A     -0.166302

    Virtual:

      52A      0.223196    53A      0.261957    54A      0.265564
      55A      0.287779    56A      0.295221    57A      0.310349
      58A      0.318979    59A      0.325887    60A      0.346950
      61A      0.357052    62A      0.367731    63A      0.368878
      64A      0.399505    65A      0.416555    66A      0.445759
      67A      0.456647    68A      0.481164    69A      0.487082
      70A      0.499366    71A      0.526159    72A      0.538514
      73A      0.566364    74A      0.576194    75A      0.579397
      76A      0.599255    77A      0.610725    78A      0.680804
      79A      0.695168    80A      0.703112    81A      0.713330
      82A      0.718597    83A      0.738633    84A      0.764577
      85A      0.786673    86A      0.797766    87A      0.811053
      88A      0.818461    89A      0.826002    90A      0.831298
      91A      0.835231    92A      0.844074    93A      0.847303
      94A      0.854926    95A      0.863649    96A      0.867059
      97A      0.881436    98A      0.890313    99A      0.909865
     100A      0.930953   101A      0.937252   102A      0.951631
     103A      0.955208   104A      0.965266   105A      0.972093
     106A      0.983873   107A      0.995684   108A      1.005216
     109A      1.014082   110A      1.023848   111A      1.031748
     112A      1.041721   113A      1.046556   114A      1.057095
     115A      1.064896   116A      1.077116   117A      1.095612
     118A      1.116661   119A      1.139115   120A      1.149225
     121A      1.168293   122A      1.182517   123A      1.199705
     124A      1.217527   125A      1.237639   126A      1.242263
     127A      1.254792   128A      1.276061   129A      1.303163
     130A      1.306467   131A      1.322579   132A      1.324605
     133A      1.326514   134A      1.329426   135A      1.345601
     136A      1.368631   137A      1.377192   138A      1.386220
     139A      1.390477   140A      1.413842   141A      1.429520
     142A      1.441945   143A      1.460210   144A      1.480604
     145A      1.512400   146A      1.540110   147A      1.558733
     148A      1.565489   149A      1.583312   150A      1.600687
     151A      1.630319   152A      1.648019   153A      1.653899
     154A      1.674107   155A      1.689353   156A      1.699959
     157A      1.720622   158A      1.731116   159A      1.736509
     160A      1.744000   161A      1.770301   162A      1.785792
     163A      1.831959   164A      1.839863   165A      1.841786
     166A      1.865554   167A      1.870935   168A      1.887543
     169A      1.901192   170A      1.918264   171A      1.922483
     172A      1.977807   173A      1.984394   174A      1.991760
     175A      2.000084   176A      2.014499   177A      2.021813
     178A      2.032094   179A      2.036436   180A      2.054679
     181A      2.064878   182A      2.088849   183A      2.097807
     184A      2.102712   185A      2.109021   186A      2.116372
     187A      2.131186   188A      2.144182   189A      2.167734
     190A      2.181049   191A      2.191414   192A      2.198396
     193A      2.212023   194A      2.218723   195A      2.220264
     196A      2.238569   197A      2.257643   198A      2.269811
     199A      2.280245   200A      2.307489   201A      2.313394
     202A      2.318950   203A      2.345596   204A      2.376974
     205A      2.398306   206A      2.405617   207A      2.417421
     208A      2.423829   209A      2.448367   210A      2.465281
     211A      2.501019   212A      2.502504   213A      2.546915
     214A      2.556628   215A      2.590758   216A      2.634145
     217A      2.647587   218A      2.684268   219A      2.709953
     220A      2.728110   221A      2.739555   222A      2.759574
     223A      2.777528   224A      2.795396   225A      2.809259
     226A      2.844407   227A      2.862000   228A      2.887906
     229A      2.916834   230A      2.922149   231A      2.929447
     232A      2.955168   233A      2.963615   234A      2.972012
     235A      3.003680   236A      3.018024   237A      3.063855
     238A      3.128156   239A      3.151280   240A      3.177884
     241A      3.216238   242A      3.239967   243A      3.272540
     244A      3.293413   245A      3.304345   246A      3.359890
     247A      3.415587   248A      3.482371   249A      3.633941
     250A      3.782548   251A      3.825323   252A      3.845039
     253A      4.052587   254A      4.058401   255A      4.076443
     256A      4.190040

    Final Occupation by Irrep:
              A
    DOCC [    51 ]

  @RHF Final Energy:  -627.78708864645705

   => Energetics <=

    Nuclear Repulsion Energy =            801.9412761981317317
    One-Electron Energy =               -2460.9727075922164659
    Two-Electron Energy =                1031.2443427476277975
    Total Energy =                       -627.7870886464570503

Computation Completed

Properties will be evaluated at   0.000000,   0.000000,   0.000000 [a0]

Properties computed using the SCF density matrix

  Nuclear Dipole Moment: [e a0]
     X:    -7.1007      Y:    -0.9654      Z:    -5.4960

  Electronic Dipole Moment: [e a0]
     X:     3.1551      Y:    -0.8241      Z:     1.1354

  Dipole Moment: [e a0]
     X:    -3.9457      Y:    -1.7895      Z:    -4.3606     Total:     6.1470

  Dipole Moment: [D]
     X:   -10.0289      Y:    -4.5485      Z:   -11.0836     Total:    15.6241

*** tstop() called on ds3 at Tue Apr 28 08:08:07 2020
Module time:
	user time   =     201.94 seconds =       3.37 minutes
	system time =     101.72 seconds =       1.70 minutes
	total time  =        536 seconds =       8.93 minutes
Total time:
	user time   =     201.94 seconds =       3.37 minutes
	system time =     101.72 seconds =       1.70 minutes
	total time  =        536 seconds =       8.93 minutes
                                     G D M A

                                 by Anthony Stone

                           version 2.2.06, 22 June 2011

               Distributed Multipoles from Gaussian wavefunctions

Starting at 8:8:7 on 28 Apr 2020

Using SCF density matrix from file ./SSI/SSI-029TRP-308ASP-1-dimer.test.8251.fchk

                         Distributed Multipole Analysis

Standard DMA

Positions and radii in angstrom
Multipole moments in atomic units, ea_0^k for rank k

C          x = -1.343982  y = -2.259503  z = -3.738522 angstrom
           Maximum rank =  0   Radius =  0.650 angstrom
                   Q00  =  -0.204019

C          x = -0.440982  y = -0.228503  z = -0.707522 angstrom
           Maximum rank =  0   Radius =  0.650 angstrom
                   Q00  =   0.296304

C          x = -1.206982  y = -1.253503  z = -1.317522 angstrom
           Maximum rank =  0   Radius =  0.650 angstrom
                   Q00  =  -0.064743

C          x = -0.809982  y = -1.324503  z = -2.696522 angstrom
           Maximum rank =  0   Radius =  0.650 angstrom
                   Q00  =  -0.145124

C          x =  0.148018  y = -0.373503  z = -2.864522 angstrom
           Maximum rank =  0   Radius =  0.650 angstrom
                   Q00  =   0.102313

C          x = -0.576982  y =  0.107497  z =  0.630478 angstrom
           Maximum rank =  0   Radius =  0.650 angstrom
                   Q00  =  -0.054210

C          x = -1.496982  y = -0.597503  z =  1.381478 angstrom
           Maximum rank =  0   Radius =  0.650 angstrom
                   Q00  =  -0.076540

C          x = -2.269982  y = -1.617503  z =  0.809478 angstrom
           Maximum rank =  0   Radius =  0.650 angstrom
                   Q00  =  -0.080792

C          x = -2.134982  y = -1.952503  z = -0.535522 angstrom
           Maximum rank =  0   Radius =  0.650 angstrom
                   Q00  =  -0.115354

N          x =  0.375018  y =  0.286497  z = -1.679522 angstrom
           Maximum rank =  0   Radius =  0.650 angstrom
                   Q00  =  -0.501205

H          x =  0.022018  y =  0.890497  z =  1.067478 angstrom
           Maximum rank =  0   Radius =  0.325 angstrom
                   Q00  =   0.092402

H          x = -1.604982  y = -0.363503  z =  2.431478 angstrom
           Maximum rank =  0   Radius =  0.325 angstrom
                   Q00  =   0.059677

H          x =  1.064018  y =  1.019497  z = -1.548522 angstrom
           Maximum rank =  0   Radius =  0.325 angstrom
                   Q00  =   0.241577

H          x = -2.982982  y = -2.151503  z =  1.425478 angstrom
           Maximum rank =  0   Radius =  0.325 angstrom
                   Q00  =   0.038892

H          x =  0.645018  y = -0.159503  z = -3.800522 angstrom
           Maximum rank =  0   Radius =  0.325 angstrom
                   Q00  =   0.084394

H          x = -2.733982  y = -2.734503  z = -0.977522 angstrom
           Maximum rank =  0   Radius =  0.325 angstrom
                   Q00  =   0.047168

H          x = -1.101982  y = -1.856503  z = -4.723522 angstrom
           Maximum rank =  0   Radius =  0.325 angstrom
                   Q00  =   0.090816

H          x = -2.431982  y = -2.281503  z = -3.650522 angstrom
           Maximum rank =  0   Radius =  0.325 angstrom
                   Q00  =   0.087821

H          x = -0.961088  y = -3.287993  z = -3.663672 angstrom
           Maximum rank =  0   Radius =  0.325 angstrom
                   Q00  =   0.088544

C          x =  1.113018  y =  3.048497  z =  2.510478 angstrom
           Maximum rank =  0   Radius =  0.650 angstrom
                   Q00  =  -0.282545

C          x =  2.208018  y =  1.996497  z =  2.466478 angstrom
           Maximum rank =  0   Radius =  0.650 angstrom
                   Q00  =   0.979521

O          x =  2.582018  y =  1.475497  z =  3.537478 angstrom
           Maximum rank =  0   Radius =  0.650 angstrom
                   Q00  =  -0.926257

O          x =  2.679018  y =  1.681497  z =  1.351478 angstrom
           Maximum rank =  0   Radius =  0.650 angstrom
                   Q00  =  -0.944712

H          x =  0.236018  y =  2.620497  z =  2.999478 angstrom
           Maximum rank =  0   Radius =  0.325 angstrom
                   Q00  =   0.061708

H          x =  0.827018  y =  3.305497  z =  1.494478 angstrom
           Maximum rank =  0   Radius =  0.325 angstrom
                   Q00  =   0.042745

H          x =  1.422723  y =  3.953897  z =  3.052998 angstrom
           Maximum rank =  0   Radius =  0.325 angstrom
                   Q00  =   0.081619

Total multipoles referred to origin at
           x =   0.000000,  y =    0.000000,  z =    0.000000 angstrom
                   Q00  =  -1.000000

Finished at 8:8:7 on 28 Apr 2020

  DMA results are available in the Python driver through the
	  variable('DMA DISTRIBUTED MULTIPOLES')
  and
	  variable('DMA TOTAL MULTIPOLES')
  commands.

    Psi4 stopped on: Tuesday, 28 April 2020 08:08AM
    Psi4 wall time for execution: 0:08:55.60

*** Psi4 exiting successfully. Buy a developer a beer!
