                               Psi4 1.3.2 release

  ==> Input File <==

--------------------------------------------------------------------------
import numpy as np
set {scf_type pk
basis cc-pvdz
d_convergence 10
gdma_switch   0
gdma_limit    0
gdma_origin   [ 0.0,  0.0,  0.0 ]
}
molecule test {
    units Angstrom
    0 1
    --
    0 1
    C                2.390319413648991     0.134084387203189    -1.349135991020288
    C                0.620319413648991    -1.302915612796811    -0.342135991020288
    C                1.439319413648991    -0.191915612796811    -0.249135991020288
    C               -0.250680586351009    -1.620915612796811     0.711864008979712
    C               -0.274680586351009    -0.854915612796811     1.850864008979712
    C                1.402319413648991     0.567084387203189     0.915864008979712
    C                0.546319413648991     0.233084387203189     1.961864008979712
    H                0.641319413648991    -1.923915612796811    -1.227135991020288
    H               -0.903680586351009    -2.476915612796811     0.633864008979712
    H                2.639319413648991     1.196084387203189    -1.309135991020288
    H                1.903319413648991    -0.059915612796811    -2.306135991020288
    H               -0.930680586351009    -1.131915612796811     2.657864008979712
    H                2.048319413648991     1.429084387203189     1.014864008979712
    H                0.528319413648991     0.833084387203189     2.858864008979711
    H                3.312869413648991    -0.461922612796811    -1.288451991020288
    C               -2.035680586351009     1.071084387203189    -1.815135991020288
    C               -3.270680586351009     1.531084387203189    -1.049135991020288
    H               -1.156680586351009     1.116084387203188    -1.171135991020288
    H               -2.176680586351008     0.043084387203189    -2.146135991020288
    H               -1.884680586351009     1.693084387203189    -2.695135991020288
    H               -4.104680586351009     1.585084387203189    -1.747135991020288
    H               -3.129487586351009     2.517987387203188    -0.584284991020288
    H               -3.536575586351009     0.811434387203189    -0.260843991020288

}
e, wfn = energy('scf', return_wfn=True)
gdma(wfn)
dmavals = variable('DMA DISTRIBUTED MULTIPOLES')
charges = np.array(dmavals)
print(charges)
np.save('SSI-077PHE-097LEU-1-dimer.npy', np.array(charges))--------------------------------------------------------------------------

*** tstart() called on ds3
*** at Mon Apr 27 13:47:32 2020

   => Loading Basis Set <=

    Name: CC-PVDZ
    Role: ORBITAL
    Keyword: BASIS
    atoms 1-7, 16-17  entry C          line   138 file /theoryfs2/ds/metcalf/miniconda2/envs/tf2gpu/share/psi4/basis/cc-pvdz.gbs
    atoms 8-15, 18-23 entry H          line    22 file /theoryfs2/ds/metcalf/miniconda2/envs/tf2gpu/share/psi4/basis/cc-pvdz.gbs

         ---------------------------------------------------------
                                   SCF
               by Justin Turney, Rob Parrish, Andy Simmonett
                          and Daniel G. A. Smith
                              RHF Reference
                        1 Threads,    500 MiB Core
         ---------------------------------------------------------

  ==> Geometry <==

    Molecular point group: c1
    Full point group: C1

    Geometry (in Angstrom), charge = 0, multiplicity = 1:

       Center              X                  Y                   Z               Mass
    ------------   -----------------  -----------------  -----------------  -----------------
         C            2.390319413649     0.134084387203    -1.349135991020    12.000000000000
         C            0.620319413649    -1.302915612797    -0.342135991020    12.000000000000
         C            1.439319413649    -0.191915612797    -0.249135991020    12.000000000000
         C           -0.250680586351    -1.620915612797     0.711864008980    12.000000000000
         C           -0.274680586351    -0.854915612797     1.850864008980    12.000000000000
         C            1.402319413649     0.567084387203     0.915864008980    12.000000000000
         C            0.546319413649     0.233084387203     1.961864008980    12.000000000000
         H            0.641319413649    -1.923915612797    -1.227135991020     1.007825032230
         H           -0.903680586351    -2.476915612797     0.633864008980     1.007825032230
         H            2.639319413649     1.196084387203    -1.309135991020     1.007825032230
         H            1.903319413649    -0.059915612797    -2.306135991020     1.007825032230
         H           -0.930680586351    -1.131915612797     2.657864008980     1.007825032230
         H            2.048319413649     1.429084387203     1.014864008980     1.007825032230
         H            0.528319413649     0.833084387203     2.858864008980     1.007825032230
         H            3.312869413649    -0.461922612797    -1.288451991020     1.007825032230
         C           -2.035680586351     1.071084387203    -1.815135991020    12.000000000000
         C           -3.270680586351     1.531084387203    -1.049135991020    12.000000000000
         H           -1.156680586351     1.116084387203    -1.171135991020     1.007825032230
         H           -2.176680586351     0.043084387203    -2.146135991020     1.007825032230
         H           -1.884680586351     1.693084387203    -2.695135991020     1.007825032230
         H           -4.104680586351     1.585084387203    -1.747135991020     1.007825032230
         H           -3.129487586351     2.517987387203    -0.584284991020     1.007825032230
         H           -3.536575586351     0.811434387203    -0.260843991020     1.007825032230

  Running in c1 symmetry.

  Rotational constants: A =      0.05698  B =      0.03141  C =      0.02575 [cm^-1]
  Rotational constants: A =   1708.35152  B =    941.50009  C =    771.89254 [MHz]
  Nuclear repulsion =  414.755515819892253

  Charge       = 0
  Multiplicity = 1
  Electrons    = 68
  Nalpha       = 34
  Nbeta        = 34

  ==> Algorithm <==

  SCF Algorithm Type is PK.
  DIIS enabled.
  MOM disabled.
  Fractional occupation disabled.
  Guess Type is SAD.
  Energy threshold   = 1.00e-06
  Density threshold  = 1.00e-10
  Integral threshold = 0.00e+00

  ==> Primary Basis <==

  Basis Set: CC-PVDZ
    Blend: CC-PVDZ
    Number of shells: 96
    Number of basis function: 196
    Number of Cartesian functions: 205
    Spherical Harmonics?: true
    Max angular momentum: 2

  ==> Pre-Iterations <==

   -------------------------------------------------------
    Irrep   Nso     Nmo     Nalpha   Nbeta   Ndocc  Nsocc
   -------------------------------------------------------
     A        196     196       0       0       0       0
   -------------------------------------------------------
    Total     196     196      34      34      34       0
   -------------------------------------------------------

  ==> Integral Setup <==

  Using integral reordering PK algorithm.
  Sizing the integral batches needed.
  Building batch lookup table.
   Calculation information:
      Number of atoms:                  23
      Number of AO shells:              96
      Number of primitives:            268
      Number of atomic orbitals:       205
      Number of basis functions:       196

      Integral cutoff                 1.00e-12
      Number of threads:                 1

	Batch   1 pq = [       0,    9405] index = [             0,44231715] size =     44231715
	Batch   2 pq = [    9405,   13301] index = [      44231715,88464951] size =     44233236
	Batch   3 pq = [   13301,   16290] index = [      88464951,132690195] size =     44225244
	Batch   4 pq = [   16290,   18810] index = [     132690195,176917455] size =     44227260
	Batch   5 pq = [   18810,   19306] index = [     176917455,186370471] size =      9453016
  Task number: 17
  Buffer size: 11059200
  Buffer per thread: 2
  We computed 10166194 shell quartets total.
  Whereas there are 10841496 unique shell quartets.

  ==> DiskJK: Disk-Based J/K Matrices <==

    J tasked:                  Yes
    K tasked:                  Yes
    wK tasked:                  No
    Memory [MiB]:              375
    Schwarz Cutoff:          1E-12

    OpenMP threads:              1

  Minimum eigenvalue in the overlap matrix is 2.9672207206E-04.
  Using Symmetric Orthogonalization.

  SCF Guess: Superposition of Atomic Densities via on-the-fly atomic UHF.

  ==> Iterations <==

                        Total Energy        Delta E     RMS |[F,P]|

   @RHF iter SAD:  -347.97480004239054   -3.47975e+02   0.00000e+00
   @RHF iter   1:  -348.76319911421251   -7.88399e-01   2.93363e-03 DIIS
   @RHF iter   2:  -348.95886343798355   -1.95664e-01   1.23449e-03 DIIS
   @RHF iter   3:  -348.99049620470947   -3.16328e-02   2.59535e-04 DIIS
   @RHF iter   4:  -348.99299468038987   -2.49848e-03   4.96356e-05 DIIS
   @RHF iter   5:  -348.99306268016619   -6.79998e-05   1.52616e-05 DIIS
   @RHF iter   6:  -348.99306867002048   -5.98985e-06   4.02938e-06 DIIS
   @RHF iter   7:  -348.99306912461958   -4.54599e-07   1.32671e-06 DIIS
   @RHF iter   8:  -348.99306917058732   -4.59677e-08   2.52233e-07 DIIS
   @RHF iter   9:  -348.99306917350827   -2.92096e-09   9.56317e-08 DIIS
   @RHF iter  10:  -348.99306917383291   -3.24633e-10   3.12896e-08 DIIS
   @RHF iter  11:  -348.99306917388344   -5.05338e-11   9.87083e-09 DIIS
   @RHF iter  12:  -348.99306917388873   -5.28644e-12   5.10243e-09 DIIS
   @RHF iter  13:  -348.99306917389322   -4.49063e-12   2.31152e-09 DIIS
   @RHF iter  14:  -348.99306917389248    7.38964e-13   9.05257e-10 DIIS
   @RHF iter  15:  -348.99306917388844    4.03588e-12   3.60682e-10 DIIS
   @RHF iter  16:  -348.99306917389191   -3.46745e-12   7.34049e-11 DIIS
  Energy and wave function converged.

  ==> Post-Iterations <==

    Orbital Energies [Eh]
    ---------------------

    Doubly Occupied:

       1A    -11.237616     2A    -11.233592     3A    -11.232557
       4A    -11.229784     5A    -11.229681     6A    -11.228286
       7A    -11.225738     8A    -11.211648     9A    -11.207222
      10A     -1.157985    11A     -1.051742    12A     -1.011100
      13A     -1.010133    14A     -0.933712    15A     -0.829609
      16A     -0.828806    17A     -0.793801    18A     -0.693708
      19A     -0.634701    20A     -0.629572    21A     -0.592032
      22A     -0.588172    23A     -0.580666    24A     -0.578353
      25A     -0.566248    26A     -0.535925    27A     -0.496321
      28A     -0.491262    29A     -0.485709    30A     -0.481413
      31A     -0.476589    32A     -0.474360    33A     -0.330552
      34A     -0.326170

    Virtual:

      35A      0.134745    36A      0.144092    37A      0.175738
      38A      0.198109    39A      0.201223    40A      0.214365
      41A      0.241681    42A      0.246988    43A      0.257712
      44A      0.263304    45A      0.264870    46A      0.267976
      47A      0.283991    48A      0.290062    49A      0.297624
      50A      0.306383    51A      0.370257    52A      0.378695
      53A      0.405200    54A      0.455127    55A      0.466406
      56A      0.480788    57A      0.491901    58A      0.563571
      59A      0.581908    60A      0.596787    61A      0.599589
      62A      0.605921    63A      0.653585    64A      0.656113
      65A      0.684334    66A      0.687483    67A      0.693437
      68A      0.703290    69A      0.732834    70A      0.742035
      71A      0.745384    72A      0.753887    73A      0.760592
      74A      0.770897    75A      0.783735    76A      0.829376
      77A      0.848179    78A      0.851041    79A      0.862120
      80A      0.866707    81A      0.873953    82A      0.882892
      83A      0.894750    84A      0.898868    85A      0.899979
      86A      0.905353    87A      0.911053    88A      0.927982
      89A      0.929964    90A      0.936240    91A      0.946563
      92A      0.963814    93A      0.992826    94A      1.005606
      95A      1.026023    96A      1.092825    97A      1.128205
      98A      1.131154    99A      1.137617   100A      1.146580
     101A      1.149580   102A      1.159400   103A      1.192618
     104A      1.235554   105A      1.246999   106A      1.251473
     107A      1.254625   108A      1.279143   109A      1.301571
     110A      1.308462   111A      1.327814   112A      1.331832
     113A      1.414143   114A      1.480991   115A      1.488199
     116A      1.513285   117A      1.522323   118A      1.565574
     119A      1.589807   120A      1.603511   121A      1.664164
     122A      1.692975   123A      1.697946   124A      1.706519
     125A      1.735944   126A      1.746300   127A      1.768582
     128A      1.792307   129A      1.825062   130A      1.864181
     131A      1.869120   132A      1.883715   133A      1.888202
     134A      1.894916   135A      1.913802   136A      1.916766
     137A      1.923427   138A      1.928477   139A      1.947547
     140A      1.949440   141A      1.949898   142A      1.954485
     143A      1.966317   144A      1.973896   145A      1.977243
     146A      1.979866   147A      1.994905   148A      1.999259
     149A      2.049493   150A      2.066048   151A      2.083836
     152A      2.108304   153A      2.115900   154A      2.129651
     155A      2.152300   156A      2.165826   157A      2.176801
     158A      2.185942   159A      2.193438   160A      2.263148
     161A      2.282981   162A      2.295329   163A      2.302727
     164A      2.315082   165A      2.321490   166A      2.328038
     167A      2.330607   168A      2.458771   169A      2.462742
     170A      2.475550   171A      2.484336   172A      2.503863
     173A      2.548794   174A      2.566265   175A      2.588097
     176A      2.632858   177A      2.748876   178A      2.765505
     179A      2.767166   180A      2.771280   181A      2.792264
     182A      2.809526   183A      2.816514   184A      2.849408
     185A      2.865773   186A      2.873712   187A      2.881432
     188A      2.958263   189A      2.971549   190A      2.999608
     191A      3.032460   192A      3.039186   193A      3.168848
     194A      3.219669   195A      3.313417   196A      4.000783

    Final Occupation by Irrep:
              A
    DOCC [    34 ]

  @RHF Final Energy:  -348.99306917389191

   => Energetics <=

    Nuclear Repulsion Energy =            414.7555158198922527
    One-Electron Energy =               -1292.2676394349025486
    Two-Electron Energy =                 528.5190544411184419
    Total Energy =                       -348.9930691738918540

Computation Completed

Properties will be evaluated at   0.000000,   0.000000,   0.000000 [a0]

Properties computed using the SCF density matrix

  Nuclear Dipole Moment: [e a0]
     X:    -6.3276      Y:     4.8471      Z:    -7.0967

  Electronic Dipole Moment: [e a0]
     X:     6.4736      Y:    -4.8743      Z:     7.0486

  Dipole Moment: [e a0]
     X:     0.1460      Y:    -0.0272      Z:    -0.0481     Total:     0.1561

  Dipole Moment: [D]
     X:     0.3710      Y:    -0.0691      Z:    -0.1222     Total:     0.3967

*** tstop() called on ds3 at Mon Apr 27 13:49:23 2020
Module time:
	user time   =      70.73 seconds =       1.18 minutes
	system time =      25.50 seconds =       0.42 minutes
	total time  =        111 seconds =       1.85 minutes
Total time:
	user time   =      70.73 seconds =       1.18 minutes
	system time =      25.50 seconds =       0.42 minutes
	total time  =        111 seconds =       1.85 minutes
                                     G D M A

                                 by Anthony Stone

                           version 2.2.06, 22 June 2011

               Distributed Multipoles from Gaussian wavefunctions

Starting at 13:49:23 on 27 Apr 2020

Using SCF density matrix from file ./SSI/SSI-077PHE-097LEU-1-dimer.test.7829.fchk

                         Distributed Multipole Analysis

Standard DMA

Positions and radii in angstrom
Multipole moments in atomic units, ea_0^k for rank k

C          x =  2.390319  y =  0.134084  z = -1.349136 angstrom
           Maximum rank =  0   Radius =  0.650 angstrom
                   Q00  =  -0.202257

C          x =  0.620319  y = -1.302916  z = -0.342136 angstrom
           Maximum rank =  0   Radius =  0.650 angstrom
                   Q00  =  -0.096422

C          x =  1.439319  y = -0.191916  z = -0.249136 angstrom
           Maximum rank =  0   Radius =  0.650 angstrom
                   Q00  =  -0.093661

C          x = -0.250681  y = -1.620916  z =  0.711864 angstrom
           Maximum rank =  0   Radius =  0.650 angstrom
                   Q00  =  -0.013571

C          x = -0.274681  y = -0.854916  z =  1.850864 angstrom
           Maximum rank =  0   Radius =  0.650 angstrom
                   Q00  =  -0.079906

C          x =  1.402319  y =  0.567084  z =  0.915864 angstrom
           Maximum rank =  0   Radius =  0.650 angstrom
                   Q00  =  -0.030094

C          x =  0.546319  y =  0.233084  z =  1.961864 angstrom
           Maximum rank =  0   Radius =  0.650 angstrom
                   Q00  =  -0.074777

H          x =  0.641319  y = -1.923916  z = -1.227136 angstrom
           Maximum rank =  0   Radius =  0.325 angstrom
                   Q00  =   0.056483

H          x = -0.903681  y = -2.476916  z =  0.633864 angstrom
           Maximum rank =  0   Radius =  0.325 angstrom
                   Q00  =   0.062593

H          x =  2.639319  y =  1.196084  z = -1.309136 angstrom
           Maximum rank =  0   Radius =  0.325 angstrom
                   Q00  =   0.097567

H          x =  1.903319  y = -0.059916  z = -2.306136 angstrom
           Maximum rank =  0   Radius =  0.325 angstrom
                   Q00  =   0.098515

H          x = -0.930681  y = -1.131916  z =  2.657864 angstrom
           Maximum rank =  0   Radius =  0.325 angstrom
                   Q00  =   0.056450

H          x =  2.048319  y =  1.429084  z =  1.014864 angstrom
           Maximum rank =  0   Radius =  0.325 angstrom
                   Q00  =   0.055405

H          x =  0.528319  y =  0.833084  z =  2.858864 angstrom
           Maximum rank =  0   Radius =  0.325 angstrom
                   Q00  =   0.062369

H          x =  3.312869  y = -0.461923  z = -1.288452 angstrom
           Maximum rank =  0   Radius =  0.325 angstrom
                   Q00  =   0.104700

C          x = -2.035681  y =  1.071084  z = -1.815136 angstrom
           Maximum rank =  0   Radius =  0.650 angstrom
                   Q00  =  -0.232656

C          x = -3.270681  y =  1.531084  z = -1.049136 angstrom
           Maximum rank =  0   Radius =  0.650 angstrom
                   Q00  =  -0.235769

H          x = -1.156681  y =  1.116084  z = -1.171136 angstrom
           Maximum rank =  0   Radius =  0.325 angstrom
                   Q00  =   0.091737

H          x = -2.176681  y =  0.043084  z = -2.146136 angstrom
           Maximum rank =  0   Radius =  0.325 angstrom
                   Q00  =   0.075017

H          x = -1.884681  y =  1.693084  z = -2.695136 angstrom
           Maximum rank =  0   Radius =  0.325 angstrom
                   Q00  =   0.071587

H          x = -4.104681  y =  1.585084  z = -1.747136 angstrom
           Maximum rank =  0   Radius =  0.325 angstrom
                   Q00  =   0.071584

H          x = -3.129488  y =  2.517987  z = -0.584285 angstrom
           Maximum rank =  0   Radius =  0.325 angstrom
                   Q00  =   0.077627

H          x = -3.536576  y =  0.811434  z = -0.260844 angstrom
           Maximum rank =  0   Radius =  0.325 angstrom
                   Q00  =   0.077477

Total multipoles referred to origin at
           x =   0.000000,  y =    0.000000,  z =    0.000000 angstrom
                   Q00  =  -0.000000

Finished at 13:49:23 on 27 Apr 2020

  DMA results are available in the Python driver through the
	  variable('DMA DISTRIBUTED MULTIPOLES')
  and
	  variable('DMA TOTAL MULTIPOLES')
  commands.

    Psi4 stopped on: Monday, 27 April 2020 01:49PM
    Psi4 wall time for execution: 0:01:50.75

*** Psi4 exiting successfully. Buy a developer a beer!
