                               Psi4 1.3.2 release

  ==> Input File <==

--------------------------------------------------------------------------
import numpy as np
set {scf_type pk
basis cc-pvdz
d_convergence 10
gdma_switch   0
gdma_limit    0
gdma_origin   [ 0.0,  0.0,  0.0 ]
}
molecule test {
    units Angstrom
    -1 1
    --
    -1 1
    C                0.197667574386643     1.348820778010877     2.502300978116717
    C                0.844667574386643     2.437820778010877     1.655300978116717
    C                1.170667574386643     0.171820778010877     2.741300978116717
    H               -0.093332425613357     1.772820778010877     3.465300978116716
    H               -0.699332425613357     0.979820778010877     2.003300978116717
    H                1.242667574386643     1.967820778010877     0.753300978116717
    H                1.691667574386643     2.853820778010877     2.205300978116716
    H                1.420667574386643    -0.310179221989123     1.797300978116717
    H                2.098667574386643     0.573820778010877     3.156300978116717
    H                0.180053574386643     3.256030778010877     1.340936978116717
    H                0.752044574386643    -0.539909221989123     3.468066978116717
    C               -1.078332425613357    -0.079179221989123    -0.855699021883283
    C               -1.829332425613357     0.465820778010877    -2.057699021883283
    C               -0.060332425613357    -1.159179221989123    -1.229699021883283
    O               -0.046332425613357    -1.629179221989123    -2.389699021883284
    O                0.723667574386643    -1.555179221989123    -0.341699021883283
    H               -0.551332425613357     0.751820778010877    -0.383699021883283
    H               -1.794332425613357    -0.482179221989123    -0.136699021883283
    H               -2.453332425613357    -0.323179221989123    -2.482699021883284
    H               -1.096332425613358     0.760820778010877    -2.807699021883284
    H               -2.457983425613357     1.342490778010877    -1.842653021883283

}
e, wfn = energy('scf', return_wfn=True)
gdma(wfn)
dmavals = variable('DMA DISTRIBUTED MULTIPOLES')
charges = np.array(dmavals)
print(charges)
np.save('SSI-021ARG-035GLU-1-dimer.npy', np.array(charges))--------------------------------------------------------------------------

*** tstart() called on ds3
*** at Sun Apr 26 18:08:16 2020

   => Loading Basis Set <=

    Name: CC-PVDZ
    Role: ORBITAL
    Keyword: BASIS
    atoms 1-3, 12-14  entry C          line   138 file /theoryfs2/ds/metcalf/miniconda2/envs/tf2gpu/share/psi4/basis/cc-pvdz.gbs
    atoms 4-11, 17-21 entry H          line    22 file /theoryfs2/ds/metcalf/miniconda2/envs/tf2gpu/share/psi4/basis/cc-pvdz.gbs
    atoms 15-16       entry O          line   198 file /theoryfs2/ds/metcalf/miniconda2/envs/tf2gpu/share/psi4/basis/cc-pvdz.gbs

         ---------------------------------------------------------
                                   SCF
               by Justin Turney, Rob Parrish, Andy Simmonett
                          and Daniel G. A. Smith
                              RHF Reference
                        1 Threads,    500 MiB Core
         ---------------------------------------------------------

  ==> Geometry <==

    Molecular point group: c1
    Full point group: C1

    Geometry (in Angstrom), charge = -1, multiplicity = 1:

       Center              X                  Y                   Z               Mass
    ------------   -----------------  -----------------  -----------------  -----------------
         C            0.197667574387     1.348820778011     2.502300978117    12.000000000000
         C            0.844667574387     2.437820778011     1.655300978117    12.000000000000
         C            1.170667574387     0.171820778011     2.741300978117    12.000000000000
         H           -0.093332425613     1.772820778011     3.465300978117     1.007825032230
         H           -0.699332425613     0.979820778011     2.003300978117     1.007825032230
         H            1.242667574387     1.967820778011     0.753300978117     1.007825032230
         H            1.691667574387     2.853820778011     2.205300978117     1.007825032230
         H            1.420667574387    -0.310179221989     1.797300978117     1.007825032230
         H            2.098667574387     0.573820778011     3.156300978117     1.007825032230
         H            0.180053574387     3.256030778011     1.340936978117     1.007825032230
         H            0.752044574387    -0.539909221989     3.468066978117     1.007825032230
         C           -1.078332425613    -0.079179221989    -0.855699021883    12.000000000000
         C           -1.829332425613     0.465820778011    -2.057699021883    12.000000000000
         C           -0.060332425613    -1.159179221989    -1.229699021883    12.000000000000
         O           -0.046332425613    -1.629179221989    -2.389699021883    15.994914619570
         O            0.723667574387    -1.555179221989    -0.341699021883    15.994914619570
         H           -0.551332425613     0.751820778011    -0.383699021883     1.007825032230
         H           -1.794332425613    -0.482179221989    -0.136699021883     1.007825032230
         H           -2.453332425613    -0.323179221989    -2.482699021883     1.007825032230
         H           -1.096332425613     0.760820778011    -2.807699021883     1.007825032230
         H           -2.457983425613     1.342490778011    -1.842653021883     1.007825032230

  Running in c1 symmetry.

  Rotational constants: A =      0.08666  B =      0.02741  C =      0.02264 [cm^-1]
  Rotational constants: A =   2598.09949  B =    821.72575  C =    678.62536 [MHz]
  Nuclear repulsion =  367.993053961744465

  Charge       = -1
  Multiplicity = 1
  Electrons    = 66
  Nalpha       = 33
  Nbeta        = 33

  ==> Algorithm <==

  SCF Algorithm Type is PK.
  DIIS enabled.
  MOM disabled.
  Fractional occupation disabled.
  Guess Type is SAD.
  Energy threshold   = 1.00e-06
  Density threshold  = 1.00e-10
  Integral threshold = 0.00e+00

  ==> Primary Basis <==

  Basis Set: CC-PVDZ
    Blend: CC-PVDZ
    Number of shells: 87
    Number of basis function: 177
    Number of Cartesian functions: 185
    Spherical Harmonics?: true
    Max angular momentum: 2

  ==> Pre-Iterations <==

   -------------------------------------------------------
    Irrep   Nso     Nmo     Nalpha   Nbeta   Ndocc  Nsocc
   -------------------------------------------------------
     A        177     177       0       0       0       0
   -------------------------------------------------------
    Total     177     177      33      33      33       0
   -------------------------------------------------------

  ==> Integral Setup <==

  Using integral reordering PK algorithm.
  Sizing the integral batches needed.
  Building batch lookup table.
   Calculation information:
      Number of atoms:                  21
      Number of AO shells:              87
      Number of primitives:            241
      Number of atomic orbitals:       185
      Number of basis functions:       177

      Integral cutoff                 1.00e-12
      Number of threads:                 1

	Batch   1 pq = [       0,    9405] index = [             0,44231715] size =     44231715
	Batch   2 pq = [    9405,   13301] index = [      44231715,88464951] size =     44233236
	Batch   3 pq = [   13301,   15753] index = [      88464951,124086381] size =     35621430
  Task number: 12
  Buffer size: 11059200
  Buffer per thread: 2
  We computed 6319495 shell quartets total.
  Whereas there are 7328706 unique shell quartets.

  ==> DiskJK: Disk-Based J/K Matrices <==

    J tasked:                  Yes
    K tasked:                  Yes
    wK tasked:                  No
    Memory [MiB]:              375
    Schwarz Cutoff:          1E-12

    OpenMP threads:              1

  Minimum eigenvalue in the overlap matrix is 3.5570968453E-03.
  Using Symmetric Orthogonalization.

  SCF Guess: Superposition of Atomic Densities via on-the-fly atomic UHF.

  ==> Iterations <==

                        Total Energy        Delta E     RMS |[F,P]|

   @RHF iter SAD:  -382.87745701209894   -3.82877e+02   0.00000e+00
   @RHF iter   1:  -384.22853321483689   -1.35108e+00   4.41180e-03 DIIS
   @RHF iter   2:  -384.47858188372766   -2.50049e-01   2.41287e-03 DIIS
   @RHF iter   3:  -384.54865318992000   -7.00713e-02   3.90018e-04 DIIS
   @RHF iter   4:  -384.55204187043074   -3.38868e-03   1.54042e-04 DIIS
   @RHF iter   5:  -384.55251988035712   -4.78010e-04   2.26549e-05 DIIS
   @RHF iter   6:  -384.55253463258668   -1.47522e-05   5.81761e-06 DIIS
   @RHF iter   7:  -384.55253545774411   -8.25157e-07   1.88523e-06 DIIS
   @RHF iter   8:  -384.55253554313606   -8.53919e-08   8.11854e-07 DIIS
   @RHF iter   9:  -384.55253555602451   -1.28884e-08   2.42713e-07 DIIS
   @RHF iter  10:  -384.55253555894893   -2.92442e-09   1.06075e-07 DIIS
   @RHF iter  11:  -384.55253555948741   -5.38478e-10   3.13965e-08 DIIS
   @RHF iter  12:  -384.55253555953971   -5.22959e-11   1.03330e-08 DIIS
   @RHF iter  13:  -384.55253555954454   -4.83169e-12   3.02223e-09 DIIS
   @RHF iter  14:  -384.55253555954511   -5.68434e-13   7.67933e-10 DIIS
   @RHF iter  15:  -384.55253555954528   -1.70530e-13   2.45537e-10 DIIS
   @RHF iter  16:  -384.55253555954562   -3.41061e-13   9.91872e-11 DIIS
  Energy and wave function converged.

  ==> Post-Iterations <==

    Orbital Energies [Eh]
    ---------------------

    Doubly Occupied:

       1A    -20.264652     2A    -20.262549     3A    -11.118619
       4A    -11.112259     5A    -11.110596     6A    -11.094937
       7A    -11.069830     8A    -11.057174     9A     -1.154376
      10A     -1.039012    11A     -0.940574    12A     -0.874142
      13A     -0.808735    14A     -0.702405    15A     -0.687167
      16A     -0.518403    17A     -0.505235    18A     -0.486426
      19A     -0.461884    20A     -0.436709    21A     -0.431205
      22A     -0.412203    23A     -0.394085    24A     -0.365611
      25A     -0.364455    26A     -0.357073    27A     -0.356474
      28A     -0.350643    29A     -0.326558    30A     -0.304217
      31A     -0.186819    32A     -0.173955    33A     -0.164222

    Virtual:

      34A      0.288791    35A      0.323300    36A      0.331589
      37A      0.345307    38A      0.358086    39A      0.366885
      40A      0.378767    41A      0.389377    42A      0.400966
      43A      0.417485    44A      0.421162    45A      0.445712
      46A      0.467758    47A      0.487207    48A      0.495374
      49A      0.540072    50A      0.555432    51A      0.607006
      52A      0.687938    53A      0.693516    54A      0.708811
      55A      0.723825    56A      0.733138    57A      0.742293
      58A      0.759268    59A      0.774131    60A      0.852741
      61A      0.896507    62A      0.904924    63A      0.928792
      64A      0.943927    65A      0.962582    66A      0.967734
      67A      0.978853    68A      0.989923    69A      0.990403
      70A      1.016757    71A      1.019661    72A      1.020995
      73A      1.037228    74A      1.040487    75A      1.044308
      76A      1.051749    77A      1.058030    78A      1.067193
      79A      1.075792    80A      1.088475    81A      1.122166
      82A      1.125115    83A      1.151597    84A      1.172609
      85A      1.234183    86A      1.240347    87A      1.279867
      88A      1.299072    89A      1.328330    90A      1.350060
      91A      1.416565    92A      1.459660    93A      1.464805
      94A      1.494917    95A      1.532969    96A      1.586634
      97A      1.591416    98A      1.621134    99A      1.633159
     100A      1.652187   101A      1.668714   102A      1.707960
     103A      1.725019   104A      1.734362   105A      1.795105
     106A      1.810178   107A      1.817678   108A      1.830286
     109A      1.839167   110A      1.860015   111A      1.941326
     112A      1.958479   113A      1.976621   114A      2.001702
     115A      2.025074   116A      2.034190   117A      2.053358
     118A      2.055770   119A      2.061889   120A      2.072686
     121A      2.080352   122A      2.086352   123A      2.091118
     124A      2.117250   125A      2.129509   126A      2.139385
     127A      2.148400   128A      2.151095   129A      2.173150
     130A      2.187969   131A      2.211586   132A      2.226342
     133A      2.237953   134A      2.242479   135A      2.274187
     136A      2.329561   137A      2.384284   138A      2.399601
     139A      2.413242   140A      2.430030   141A      2.455809
     142A      2.471874   143A      2.520596   144A      2.533010
     145A      2.603230   146A      2.607450   147A      2.635949
     148A      2.666563   149A      2.698124   150A      2.721973
     151A      2.726765   152A      2.747530   153A      2.772609
     154A      2.809031   155A      2.868214   156A      2.884918
     157A      2.916366   158A      2.917410   159A      2.941763
     160A      2.993931   161A      3.006672   162A      3.026788
     163A      3.071996   164A      3.083664   165A      3.100491
     166A      3.133909   167A      3.185108   168A      3.241672
     169A      3.291012   170A      3.298655   171A      3.360798
     172A      3.639617   173A      3.771442   174A      3.822204
     175A      4.054124   176A      4.100547   177A      4.207821

    Final Occupation by Irrep:
              A
    DOCC [    33 ]

  @RHF Final Energy:  -384.55253555954562

   => Energetics <=

    Nuclear Repulsion Energy =            367.9930539617444651
    One-Electron Energy =               -1265.3047682167430139
    Two-Electron Energy =                 512.7591786954529880
    Total Energy =                       -384.5525355595456176

Computation Completed

Properties will be evaluated at   0.000000,   0.000000,   0.000000 [a0]

Properties computed using the SCF density matrix

  Nuclear Dipole Moment: [e a0]
     X:    -1.6469      Y:    11.8004      Z:     9.8644

  Electronic Dipole Moment: [e a0]
     X:     0.9404      Y:    -9.1265      Z:    -7.6199

  Dipole Moment: [e a0]
     X:    -0.7065      Y:     2.6738      Z:     2.2445     Total:     3.5618

  Dipole Moment: [D]
     X:    -1.7958      Y:     6.7962      Z:     5.7049     Total:     9.0531

*** tstop() called on ds3 at Sun Apr 26 18:09:16 2020
Module time:
	user time   =      42.53 seconds =       0.71 minutes
	system time =      18.77 seconds =       0.31 minutes
	total time  =         60 seconds =       1.00 minutes
Total time:
	user time   =      42.53 seconds =       0.71 minutes
	system time =      18.77 seconds =       0.31 minutes
	total time  =         60 seconds =       1.00 minutes
                                     G D M A

                                 by Anthony Stone

                           version 2.2.06, 22 June 2011

               Distributed Multipoles from Gaussian wavefunctions

Starting at 18:9:16 on 26 Apr 2020

Using SCF density matrix from file ./SSI/SSI-021ARG-035GLU-1-dimer.test.689.fchk

                         Distributed Multipole Analysis

Standard DMA

Positions and radii in angstrom
Multipole moments in atomic units, ea_0^k for rank k

C          x =  0.197668  y =  1.348821  z =  2.502301 angstrom
           Maximum rank =  0   Radius =  0.650 angstrom
                   Q00  =  -0.080071

C          x =  0.844668  y =  2.437821  z =  1.655301 angstrom
           Maximum rank =  0   Radius =  0.650 angstrom
                   Q00  =  -0.239343

C          x =  1.170668  y =  0.171821  z =  2.741301 angstrom
           Maximum rank =  0   Radius =  0.650 angstrom
                   Q00  =  -0.205778

H          x = -0.093332  y =  1.772821  z =  3.465301 angstrom
           Maximum rank =  0   Radius =  0.325 angstrom
                   Q00  =   0.007296

H          x = -0.699332  y =  0.979821  z =  2.003301 angstrom
           Maximum rank =  0   Radius =  0.325 angstrom
                   Q00  =   0.070821

H          x =  1.242668  y =  1.967821  z =  0.753301 angstrom
           Maximum rank =  0   Radius =  0.325 angstrom
                   Q00  =   0.097887

H          x =  1.691668  y =  2.853821  z =  2.205301 angstrom
           Maximum rank =  0   Radius =  0.325 angstrom
                   Q00  =   0.051840

H          x =  1.420668  y = -0.310179  z =  1.797301 angstrom
           Maximum rank =  0   Radius =  0.325 angstrom
                   Q00  =   0.122486

H          x =  2.098668  y =  0.573821  z =  3.156301 angstrom
           Maximum rank =  0   Radius =  0.325 angstrom
                   Q00  =   0.033004

H          x =  0.180054  y =  3.256031  z =  1.340937 angstrom
           Maximum rank =  0   Radius =  0.325 angstrom
                   Q00  =   0.066809

H          x =  0.752045  y = -0.539909  z =  3.468067 angstrom
           Maximum rank =  0   Radius =  0.325 angstrom
                   Q00  =   0.065681

C          x = -1.078332  y = -0.079179  z = -0.855699 angstrom
           Maximum rank =  0   Radius =  0.650 angstrom
                   Q00  =  -0.170626

C          x = -1.829332  y =  0.465821  z = -2.057699 angstrom
           Maximum rank =  0   Radius =  0.650 angstrom
                   Q00  =  -0.215408

C          x = -0.060332  y = -1.159179  z = -1.229699 angstrom
           Maximum rank =  0   Radius =  0.650 angstrom
                   Q00  =   1.020515

O          x = -0.046332  y = -1.629179  z = -2.389699 angstrom
           Maximum rank =  0   Radius =  0.650 angstrom
                   Q00  =  -0.957630

O          x =  0.723668  y = -1.555179  z = -0.341699 angstrom
           Maximum rank =  0   Radius =  0.650 angstrom
                   Q00  =  -0.938118

H          x = -0.551332  y =  0.751821  z = -0.383699 angstrom
           Maximum rank =  0   Radius =  0.325 angstrom
                   Q00  =   0.042164

H          x = -1.794332  y = -0.482179  z = -0.136699 angstrom
           Maximum rank =  0   Radius =  0.325 angstrom
                   Q00  =   0.049894

H          x = -2.453332  y = -0.323179  z = -2.482699 angstrom
           Maximum rank =  0   Radius =  0.325 angstrom
                   Q00  =   0.078873

H          x = -1.096332  y =  0.760821  z = -2.807699 angstrom
           Maximum rank =  0   Radius =  0.325 angstrom
                   Q00  =   0.084224

H          x = -2.457983  y =  1.342491  z = -1.842653 angstrom
           Maximum rank =  0   Radius =  0.325 angstrom
                   Q00  =   0.015479

Total multipoles referred to origin at
           x =   0.000000,  y =    0.000000,  z =    0.000000 angstrom
                   Q00  =  -1.000000

Finished at 18:9:17 on 26 Apr 2020

  DMA results are available in the Python driver through the
	  variable('DMA DISTRIBUTED MULTIPOLES')
  and
	  variable('DMA TOTAL MULTIPOLES')
  commands.

    Psi4 stopped on: Sunday, 26 April 2020 06:09PM
    Psi4 wall time for execution: 0:01:00.56

*** Psi4 exiting successfully. Buy a developer a beer!
