                               Psi4 1.3.2 release

  ==> Input File <==

--------------------------------------------------------------------------
import numpy as np
set {scf_type pk
basis cc-pvdz
d_convergence 10
gdma_switch   0
gdma_limit    0
gdma_origin   [ 0.0,  0.0,  0.0 ]
}
molecule test {
    units Angstrom
    -1 1
    --
    -1 1
    C                0.662824533077575    -1.848957738177315    -0.665726649848229
    C                0.147824533077575    -2.858957738177315     0.364273350151771
    O                1.632824533077575    -0.978957738177315    -0.116726649848229
    H                1.101824533077576    -2.389957738177315    -1.505726649848229
    H               -0.173175466922425    -1.257957738177315    -1.042726649848229
    H               -0.611175466922425    -3.470957738177315    -0.125726649848229
    H                1.216824533077576    -0.080957738177315    -0.094726649848229
    H               -0.320805466922425    -2.347383738177315     1.217903350151771
    H                0.967644533077575    -3.529393738177315     0.661603350151771
    C               -1.509175466922424     2.501042261822685    -0.348726649848229
    C               -0.594175466922425     1.386042261822685     0.137273350151771
    O               -1.084175466922425     0.485042261822685     0.853273350151771
    O                0.612824533077575     1.409042261822685    -0.203726649848229
    H               -2.107175466922425     2.126042261822685    -1.182726649848229
    H               -0.923175466922425     3.348042261822685    -0.715726649848229
    H               -2.192235466922424     2.852291261822685     0.438703350151771

}
e, wfn = energy('scf', return_wfn=True)
gdma(wfn)
dmavals = variable('DMA DISTRIBUTED MULTIPOLES')
charges = np.array(dmavals)
print(charges)
np.save('SSI-100SER-119GLU-1-dimer.npy', np.array(charges))--------------------------------------------------------------------------

*** tstart() called on ds3
*** at Mon Apr 27 07:10:13 2020

   => Loading Basis Set <=

    Name: CC-PVDZ
    Role: ORBITAL
    Keyword: BASIS
    atoms 1-2, 10-11 entry C          line   138 file /theoryfs2/ds/metcalf/miniconda2/envs/tf2gpu/share/psi4/basis/cc-pvdz.gbs
    atoms 3, 12-13   entry O          line   198 file /theoryfs2/ds/metcalf/miniconda2/envs/tf2gpu/share/psi4/basis/cc-pvdz.gbs
    atoms 4-9, 14-16 entry H          line    22 file /theoryfs2/ds/metcalf/miniconda2/envs/tf2gpu/share/psi4/basis/cc-pvdz.gbs

         ---------------------------------------------------------
                                   SCF
               by Justin Turney, Rob Parrish, Andy Simmonett
                          and Daniel G. A. Smith
                              RHF Reference
                        1 Threads,    500 MiB Core
         ---------------------------------------------------------

  ==> Geometry <==

    Molecular point group: c1
    Full point group: C1

    Geometry (in Angstrom), charge = -1, multiplicity = 1:

       Center              X                  Y                   Z               Mass
    ------------   -----------------  -----------------  -----------------  -----------------
         C            0.662824533078    -1.848957738177    -0.665726649848    12.000000000000
         C            0.147824533078    -2.858957738177     0.364273350152    12.000000000000
         O            1.632824533078    -0.978957738177    -0.116726649848    15.994914619570
         H            1.101824533078    -2.389957738177    -1.505726649848     1.007825032230
         H           -0.173175466922    -1.257957738177    -1.042726649848     1.007825032230
         H           -0.611175466922    -3.470957738177    -0.125726649848     1.007825032230
         H            1.216824533078    -0.080957738177    -0.094726649848     1.007825032230
         H           -0.320805466922    -2.347383738177     1.217903350152     1.007825032230
         H            0.967644533078    -3.529393738177     0.661603350152     1.007825032230
         C           -1.509175466922     2.501042261823    -0.348726649848    12.000000000000
         C           -0.594175466922     1.386042261823     0.137273350152    12.000000000000
         O           -1.084175466922     0.485042261823     0.853273350152    15.994914619570
         O            0.612824533078     1.409042261823    -0.203726649848    15.994914619570
         H           -2.107175466922     2.126042261823    -1.182726649848     1.007825032230
         H           -0.923175466922     3.348042261823    -0.715726649848     1.007825032230
         H           -2.192235466922     2.852291261823     0.438703350152     1.007825032230

  Running in c1 symmetry.

  Rotational constants: A =      0.16531  B =      0.04044  C =      0.03544 [cm^-1]
  Rotational constants: A =   4955.81681  B =   1212.35298  C =   1062.61418 [MHz]
  Nuclear repulsion =  308.120835643695671

  Charge       = -1
  Multiplicity = 1
  Electrons    = 58
  Nalpha       = 29
  Nbeta        = 29

  ==> Algorithm <==

  SCF Algorithm Type is PK.
  DIIS enabled.
  MOM disabled.
  Fractional occupation disabled.
  Guess Type is SAD.
  Energy threshold   = 1.00e-06
  Density threshold  = 1.00e-10
  Integral threshold = 0.00e+00

  ==> Primary Basis <==

  Basis Set: CC-PVDZ
    Blend: CC-PVDZ
    Number of shells: 69
    Number of basis function: 143
    Number of Cartesian functions: 150
    Spherical Harmonics?: true
    Max angular momentum: 2

  ==> Pre-Iterations <==

   -------------------------------------------------------
    Irrep   Nso     Nmo     Nalpha   Nbeta   Ndocc  Nsocc
   -------------------------------------------------------
     A        143     143       0       0       0       0
   -------------------------------------------------------
    Total     143     143      29      29      29       0
   -------------------------------------------------------

  ==> Integral Setup <==

  Using integral reordering PK algorithm.
  Sizing the integral batches needed.
  Building batch lookup table.
   Calculation information:
      Number of atoms:                  16
      Number of AO shells:              69
      Number of primitives:            199
      Number of atomic orbitals:       150
      Number of basis functions:       143

      Integral cutoff                 1.00e-12
      Number of threads:                 1

	Batch   1 pq = [       0,    9405] index = [             0,44231715] size =     44231715
	Batch   2 pq = [    9405,   10296] index = [      44231715,53008956] size =      8777241
  Task number: 5
  Buffer size: 11059200
  Buffer per thread: 2
  We computed 2527426 shell quartets total.
  Whereas there are 2917320 unique shell quartets.

  ==> DiskJK: Disk-Based J/K Matrices <==

    J tasked:                  Yes
    K tasked:                  Yes
    wK tasked:                  No
    Memory [MiB]:              375
    Schwarz Cutoff:          1E-12

    OpenMP threads:              1

  Minimum eigenvalue in the overlap matrix is 5.0795000068E-03.
  Using Symmetric Orthogonalization.

  SCF Guess: Superposition of Atomic Densities via on-the-fly atomic UHF.

  ==> Iterations <==

                        Total Energy        Delta E     RMS |[F,P]|

   @RHF iter SAD:  -379.69474845448815   -3.79695e+02   0.00000e+00
   @RHF iter   1:  -381.08934587470941   -1.39460e+00   5.21371e-03 DIIS
   @RHF iter   2:  -381.29344871084322   -2.04103e-01   2.92452e-03 DIIS
   @RHF iter   3:  -381.35617369889525   -6.27250e-02   4.41468e-04 DIIS
   @RHF iter   4:  -381.35882818420339   -2.65449e-03   1.69118e-04 DIIS
   @RHF iter   5:  -381.35921171797537   -3.83534e-04   3.53712e-05 DIIS
   @RHF iter   6:  -381.35922737180590   -1.56538e-05   1.50458e-05 DIIS
   @RHF iter   7:  -381.35922988121479   -2.50941e-06   2.91257e-06 DIIS
   @RHF iter   8:  -381.35923004747087   -1.66256e-07   1.06273e-06 DIIS
   @RHF iter   9:  -381.35923006703035   -1.95595e-08   4.08208e-07 DIIS
   @RHF iter  10:  -381.35923007133539   -4.30504e-09   1.47489e-07 DIIS
   @RHF iter  11:  -381.35923007202337   -6.87976e-10   5.62888e-08 DIIS
   @RHF iter  12:  -381.35923007212006   -9.66907e-11   1.87219e-08 DIIS
   @RHF iter  13:  -381.35923007213285   -1.27898e-11   4.26783e-09 DIIS
   @RHF iter  14:  -381.35923007213461   -1.76215e-12   1.17652e-09 DIIS
   @RHF iter  15:  -381.35923007213478   -1.70530e-13   3.52333e-10 DIIS
   @RHF iter  16:  -381.35923007213574   -9.66338e-13   1.22601e-10 DIIS
   @RHF iter  17:  -381.35923007213182    3.92220e-12   4.90522e-11 DIIS
  Energy and wave function converged.

  ==> Post-Iterations <==

    Orbital Energies [Eh]
    ---------------------

    Doubly Occupied:

       1A    -20.336008     2A    -20.298892     3A    -20.288641
       4A    -11.148093     5A    -11.105759     6A    -11.072045
       7A    -11.071690     8A     -1.187415     9A     -1.145371
      10A     -1.070755    11A     -0.845416    12A     -0.818412
      13A     -0.667577    14A     -0.543192    15A     -0.500994
      16A     -0.460971    17A     -0.435940    18A     -0.432240
      19A     -0.430972    20A     -0.396325    21A     -0.388354
      22A     -0.367333    23A     -0.356255    24A     -0.333380
      25A     -0.298986    26A     -0.243539    27A     -0.214155
      28A     -0.204066    29A     -0.195901

    Virtual:

      30A      0.330796    31A      0.339058    32A      0.373212
      33A      0.382631    34A      0.388634    35A      0.401596
      36A      0.428725    37A      0.438888    38A      0.464034
      39A      0.510207    40A      0.547759    41A      0.552156
      42A      0.626860    43A      0.686786    44A      0.723152
      45A      0.765451    46A      0.776505    47A      0.805159
      48A      0.816854    49A      0.863915    50A      0.892940
      51A      0.902582    52A      0.935555    53A      0.957103
      54A      0.979749    55A      1.011811    56A      1.015098
      57A      1.022520    58A      1.029646    59A      1.036006
      60A      1.048615    61A      1.056746    62A      1.075752
      63A      1.095142    64A      1.107367    65A      1.136171
      66A      1.203049    67A      1.296112    68A      1.300871
      69A      1.328144    70A      1.341269    71A      1.364426
      72A      1.415939    73A      1.485325    74A      1.502766
      75A      1.546324    76A      1.549477    77A      1.577890
      78A      1.598600    79A      1.624563    80A      1.655273
      81A      1.682759    82A      1.712477    83A      1.716635
      84A      1.760342    85A      1.815084    86A      1.818597
      87A      1.822754    88A      1.856541    89A      1.911532
      90A      1.955877    91A      2.020291    92A      2.022056
      93A      2.039067    94A      2.049663    95A      2.062690
      96A      2.078962    97A      2.102281    98A      2.110182
      99A      2.114104   100A      2.134557   101A      2.180944
     102A      2.193069   103A      2.224481   104A      2.236420
     105A      2.248250   106A      2.312351   107A      2.347810
     108A      2.387357   109A      2.420052   110A      2.423082
     111A      2.477917   112A      2.527501   113A      2.550695
     114A      2.612196   115A      2.646886   116A      2.681504
     117A      2.692633   118A      2.696885   119A      2.755301
     120A      2.881427   121A      2.904561   122A      2.912630
     123A      2.931730   124A      2.940721   125A      2.968205
     126A      2.974307   127A      3.044165   128A      3.084644
     129A      3.222496   130A      3.258438   131A      3.308550
     132A      3.516954   133A      3.540280   134A      3.598067
     135A      3.617163   136A      3.682878   137A      3.768709
     138A      3.798988   139A      3.837482   140A      4.040042
     141A      4.054229   142A      4.182840   143A      4.403275

    Final Occupation by Irrep:
              A
    DOCC [    29 ]

  @RHF Final Energy:  -381.35923007213182

   => Energetics <=

    Nuclear Repulsion Energy =            308.1208356436956706
    One-Electron Energy =               -1145.2427789924408899
    Two-Electron Energy =                 455.7627132766133400
    Total Energy =                       -381.3592300721318225

Computation Completed

Properties will be evaluated at   0.000000,   0.000000,   0.000000 [a0]

Properties computed using the SCF density matrix

  Nuclear Dipole Moment: [e a0]
     X:    -2.8457      Y:    -4.4488      Z:    -2.1997

  Electronic Dipole Moment: [e a0]
     X:     2.0794      Y:     4.0893      Z:     1.4738

  Dipole Moment: [e a0]
     X:    -0.7663      Y:    -0.3595      Z:    -0.7259     Total:     1.1150

  Dipole Moment: [D]
     X:    -1.9476      Y:    -0.9137      Z:    -1.8450     Total:     2.8341

*** tstop() called on ds3 at Mon Apr 27 07:10:43 2020
Module time:
	user time   =      21.20 seconds =       0.35 minutes
	system time =       8.93 seconds =       0.15 minutes
	total time  =         30 seconds =       0.50 minutes
Total time:
	user time   =      21.20 seconds =       0.35 minutes
	system time =       8.93 seconds =       0.15 minutes
	total time  =         30 seconds =       0.50 minutes
                                     G D M A

                                 by Anthony Stone

                           version 2.2.06, 22 June 2011

               Distributed Multipoles from Gaussian wavefunctions

Starting at 7:10:43 on 27 Apr 2020

Using SCF density matrix from file ./SSI/SSI-100SER-119GLU-1-dimer.test.21927.fchk

                         Distributed Multipole Analysis

Standard DMA

Positions and radii in angstrom
Multipole moments in atomic units, ea_0^k for rank k

C          x =  0.662825  y = -1.848958  z = -0.665727 angstrom
           Maximum rank =  0   Radius =  0.650 angstrom
                   Q00  =   0.189011

C          x =  0.147825  y = -2.858958  z =  0.364273 angstrom
           Maximum rank =  0   Radius =  0.650 angstrom
                   Q00  =  -0.253704

O          x =  1.632825  y = -0.978958  z = -0.116727 angstrom
           Maximum rank =  0   Radius =  0.650 angstrom
                   Q00  =  -0.739298

H          x =  1.101825  y = -2.389958  z = -1.505727 angstrom
           Maximum rank =  0   Radius =  0.325 angstrom
                   Q00  =  -0.016647

H          x = -0.173175  y = -1.257958  z = -1.042727 angstrom
           Maximum rank =  0   Radius =  0.325 angstrom
                   Q00  =   0.038542

H          x = -0.611175  y = -3.470958  z = -0.125727 angstrom
           Maximum rank =  0   Radius =  0.325 angstrom
                   Q00  =   0.028862

H          x =  1.216825  y = -0.080958  z = -0.094727 angstrom
           Maximum rank =  0   Radius =  0.325 angstrom
                   Q00  =   0.558121

H          x = -0.320805  y = -2.347384  z =  1.217903 angstrom
           Maximum rank =  0   Radius =  0.325 angstrom
                   Q00  =   0.109007

H          x =  0.967645  y = -3.529394  z =  0.661603 angstrom
           Maximum rank =  0   Radius =  0.325 angstrom
                   Q00  =   0.046380

C          x = -1.509175  y =  2.501042  z = -0.348727 angstrom
           Maximum rank =  0   Radius =  0.650 angstrom
                   Q00  =  -0.259892

C          x = -0.594175  y =  1.386042  z =  0.137273 angstrom
           Maximum rank =  0   Radius =  0.650 angstrom
                   Q00  =   0.898601

O          x = -1.084175  y =  0.485042  z =  0.853273 angstrom
           Maximum rank =  0   Radius =  0.650 angstrom
                   Q00  =  -0.894571

O          x =  0.612825  y =  1.409042  z = -0.203727 angstrom
           Maximum rank =  0   Radius =  0.650 angstrom
                   Q00  =  -0.918356

H          x = -2.107175  y =  2.126042  z = -1.182727 angstrom
           Maximum rank =  0   Radius =  0.325 angstrom
                   Q00  =   0.083714

H          x = -0.923175  y =  3.348042  z = -0.715727 angstrom
           Maximum rank =  0   Radius =  0.325 angstrom
                   Q00  =   0.060950

H          x = -2.192235  y =  2.852291  z =  0.438703 angstrom
           Maximum rank =  0   Radius =  0.325 angstrom
                   Q00  =   0.069280

Total multipoles referred to origin at
           x =   0.000000,  y =    0.000000,  z =    0.000000 angstrom
                   Q00  =  -1.000000

Finished at 7:10:43 on 27 Apr 2020

  DMA results are available in the Python driver through the
	  variable('DMA DISTRIBUTED MULTIPOLES')
  and
	  variable('DMA TOTAL MULTIPOLES')
  commands.

    Psi4 stopped on: Monday, 27 April 2020 07:10AM
    Psi4 wall time for execution: 0:00:30.10

*** Psi4 exiting successfully. Buy a developer a beer!
