                               Psi4 1.3.2 release

  ==> Input File <==

--------------------------------------------------------------------------
import numpy as np
set {scf_type pk
basis cc-pvdz
d_convergence 10
gdma_switch   0
gdma_limit    0
gdma_origin   [ 0.0,  0.0,  0.0 ]
}
molecule test {
    units Angstrom
    0 1
    --
    0 1
    C                2.384553385861360     0.304837164286899    -1.618049783711234
    C                3.530553385861360     0.345837164286899    -2.629049783711235
    O                2.320553385861360     1.491837164286899    -0.846049783711234
    H                1.436553385861360     0.194837164286899    -2.141049783711235
    H                2.507553385861360    -0.553162835713101    -0.958049783711234
    H                3.312553385861360    -0.397162835713101    -3.398049783711234
    H                3.167553385861360     1.606837164286899    -0.371049783711234
    H                4.484596385861360     0.113747164286899    -2.133128783711234
    H                3.577681385861360     1.335527164286899    -3.106854783711234
    C               -0.652446614138640     1.299837164286899     2.478950216288765
    C               -0.570446614138640    -1.356162835713101    -0.252049783711234
    C               -0.158446614138640    -0.414162835713101     0.695950216288766
    C               -1.927446614138640    -1.628162835713101    -0.423049783711234
    C               -1.094446614138640     0.254837164286899     1.484950216288766
    C               -2.869446614138640    -0.951162835713101     0.350950216288766
    C               -2.453446614138640    -0.011162835713101     1.294950216288766
    H                0.163553385861360    -1.878162835713101    -0.848049783711234
    H                0.894553385861360    -0.209162835713101     0.823950216288766
    H               -2.249446614138640    -2.361162835713101    -1.150049783711234
    H               -3.924446614138640    -1.158162835713101     0.223950216288766
    H               -1.491446614138640     1.960837164286899     2.688950216288765
    H                0.112553385861360     1.918837164286899     2.009950216288766
    H               -3.193446614138639     0.507837164286899     1.888950216288766
    H               -0.250074614138640     0.906737164286899     3.424239216288766

}
e, wfn = energy('scf', return_wfn=True)
gdma(wfn)
dmavals = variable('DMA DISTRIBUTED MULTIPOLES')
charges = np.array(dmavals)
print(charges)
np.save('SSI-081SER-087PHE-1-dimer.npy', np.array(charges))--------------------------------------------------------------------------

*** tstart() called on ds3
*** at Sun Apr 26 21:25:08 2020

   => Loading Basis Set <=

    Name: CC-PVDZ
    Role: ORBITAL
    Keyword: BASIS
    atoms 1-2, 10-16 entry C          line   138 file /theoryfs2/ds/metcalf/miniconda2/envs/tf2gpu/share/psi4/basis/cc-pvdz.gbs
    atoms 3          entry O          line   198 file /theoryfs2/ds/metcalf/miniconda2/envs/tf2gpu/share/psi4/basis/cc-pvdz.gbs
    atoms 4-9, 17-24 entry H          line    22 file /theoryfs2/ds/metcalf/miniconda2/envs/tf2gpu/share/psi4/basis/cc-pvdz.gbs

         ---------------------------------------------------------
                                   SCF
               by Justin Turney, Rob Parrish, Andy Simmonett
                          and Daniel G. A. Smith
                              RHF Reference
                        1 Threads,    500 MiB Core
         ---------------------------------------------------------

  ==> Geometry <==

    Molecular point group: c1
    Full point group: C1

    Geometry (in Angstrom), charge = 0, multiplicity = 1:

       Center              X                  Y                   Z               Mass
    ------------   -----------------  -----------------  -----------------  -----------------
         C            2.384553385861     0.304837164287    -1.618049783711    12.000000000000
         C            3.530553385861     0.345837164287    -2.629049783711    12.000000000000
         O            2.320553385861     1.491837164287    -0.846049783711    15.994914619570
         H            1.436553385861     0.194837164287    -2.141049783711     1.007825032230
         H            2.507553385861    -0.553162835713    -0.958049783711     1.007825032230
         H            3.312553385861    -0.397162835713    -3.398049783711     1.007825032230
         H            3.167553385861     1.606837164287    -0.371049783711     1.007825032230
         H            4.484596385861     0.113747164287    -2.133128783711     1.007825032230
         H            3.577681385861     1.335527164287    -3.106854783711     1.007825032230
         C           -0.652446614139     1.299837164287     2.478950216289    12.000000000000
         C           -0.570446614139    -1.356162835713    -0.252049783711    12.000000000000
         C           -0.158446614139    -0.414162835713     0.695950216289    12.000000000000
         C           -1.927446614139    -1.628162835713    -0.423049783711    12.000000000000
         C           -1.094446614139     0.254837164287     1.484950216289    12.000000000000
         C           -2.869446614139    -0.951162835713     0.350950216289    12.000000000000
         C           -2.453446614139    -0.011162835713     1.294950216289    12.000000000000
         H            0.163553385861    -1.878162835713    -0.848049783711     1.007825032230
         H            0.894553385861    -0.209162835713     0.823950216289     1.007825032230
         H           -2.249446614139    -2.361162835713    -1.150049783711     1.007825032230
         H           -3.924446614139    -1.158162835713     0.223950216289     1.007825032230
         H           -1.491446614139     1.960837164287     2.688950216289     1.007825032230
         H            0.112553385861     1.918837164287     2.009950216289     1.007825032230
         H           -3.193446614139     0.507837164287     1.888950216289     1.007825032230
         H           -0.250074614139     0.906737164287     3.424239216289     1.007825032230

  Running in c1 symmetry.

  Rotational constants: A =      0.06665  B =      0.01918  C =      0.01556 [cm^-1]
  Rotational constants: A =   1998.00418  B =    574.98101  C =    466.38263 [MHz]
  Nuclear repulsion =  487.281934348859295

  Charge       = 0
  Multiplicity = 1
  Electrons    = 76
  Nalpha       = 38
  Nbeta        = 38

  ==> Algorithm <==

  SCF Algorithm Type is PK.
  DIIS enabled.
  MOM disabled.
  Fractional occupation disabled.
  Guess Type is SAD.
  Energy threshold   = 1.00e-06
  Density threshold  = 1.00e-10
  Integral threshold = 0.00e+00

  ==> Primary Basis <==

  Basis Set: CC-PVDZ
    Blend: CC-PVDZ
    Number of shells: 102
    Number of basis function: 210
    Number of Cartesian functions: 220
    Spherical Harmonics?: true
    Max angular momentum: 2

  ==> Pre-Iterations <==

   -------------------------------------------------------
    Irrep   Nso     Nmo     Nalpha   Nbeta   Ndocc  Nsocc
   -------------------------------------------------------
     A        210     210       0       0       0       0
   -------------------------------------------------------
    Total     210     210      38      38      38       0
   -------------------------------------------------------

  ==> Integral Setup <==

  Using integral reordering PK algorithm.
  Sizing the integral batches needed.
  Building batch lookup table.
   Calculation information:
      Number of atoms:                  24
      Number of AO shells:             102
      Number of primitives:            290
      Number of atomic orbitals:       220
      Number of basis functions:       210

      Integral cutoff                 1.00e-12
      Number of threads:                 1

	Batch   1 pq = [       0,    9405] index = [             0,44231715] size =     44231715
	Batch   2 pq = [    9405,   13301] index = [      44231715,88464951] size =     44233236
	Batch   3 pq = [   13301,   16290] index = [      88464951,132690195] size =     44225244
	Batch   4 pq = [   16290,   18810] index = [     132690195,176917455] size =     44227260
	Batch   5 pq = [   18810,   21030] index = [     176917455,221140965] size =     44223510
	Batch   6 pq = [   21030,   22155] index = [     221140965,245433090] size =     24292125
  Task number: 23
  Buffer size: 11059200
  Buffer per thread: 2
  We computed 11251793 shell quartets total.
  Whereas there are 13799631 unique shell quartets.

  ==> DiskJK: Disk-Based J/K Matrices <==

    J tasked:                  Yes
    K tasked:                  Yes
    wK tasked:                  No
    Memory [MiB]:              375
    Schwarz Cutoff:          1E-12

    OpenMP threads:              1

  Minimum eigenvalue in the overlap matrix is 3.1578699675E-04.
  Using Symmetric Orthogonalization.

  SCF Guess: Superposition of Atomic Densities via on-the-fly atomic UHF.

  ==> Iterations <==

                        Total Energy        Delta E     RMS |[F,P]|

   @RHF iter SAD:  -422.55748868009152   -4.22557e+02   0.00000e+00
   @RHF iter   1:  -423.60227655872922   -1.04479e+00   2.93264e-03 DIIS
   @RHF iter   2:  -423.81026638547155   -2.07990e-01   1.31375e-03 DIIS
   @RHF iter   3:  -423.84549413195640   -3.52277e-02   2.89089e-04 DIIS
   @RHF iter   4:  -423.84834594604928   -2.85181e-03   9.19766e-05 DIIS
   @RHF iter   5:  -423.84855195216721   -2.06006e-04   1.88898e-05 DIIS
   @RHF iter   6:  -423.84856377405390   -1.18219e-05   5.55874e-06 DIIS
   @RHF iter   7:  -423.84856492533294   -1.15128e-06   2.10446e-06 DIIS
   @RHF iter   8:  -423.84856508987883   -1.64546e-07   6.22374e-07 DIIS
   @RHF iter   9:  -423.84856511714224   -2.72634e-08   2.80136e-07 DIIS
   @RHF iter  10:  -423.84856512302667   -5.88443e-09   1.15776e-07 DIIS
   @RHF iter  11:  -423.84856512484487   -1.81819e-09   4.54943e-08 DIIS
   @RHF iter  12:  -423.84856512514574   -3.00872e-10   1.68353e-08 DIIS
   @RHF iter  13:  -423.84856512517587   -3.01270e-11   4.98167e-09 DIIS
   @RHF iter  14:  -423.84856512517865   -2.78533e-12   1.47168e-09 DIIS
   @RHF iter  15:  -423.84856512517621    2.44427e-12   6.10982e-10 DIIS
   @RHF iter  16:  -423.84856512517626   -5.68434e-14   2.26968e-10 DIIS
   @RHF iter  17:  -423.84856512517661   -3.41061e-13   9.08895e-11 DIIS
  Energy and wave function converged.

  ==> Post-Iterations <==

    Orbital Energies [Eh]
    ---------------------

    Doubly Occupied:

       1A    -20.552537     2A    -11.275934     3A    -11.235617
       4A    -11.231797     5A    -11.231312     6A    -11.228189
       7A    -11.226776     8A    -11.225941     9A    -11.224982
      10A    -11.222710    11A     -1.351663    12A     -1.145161
      13A     -1.037639    14A     -1.010108    15A     -1.004735
      16A     -0.925134    17A     -0.844527    18A     -0.819179
      19A     -0.789867    20A     -0.686308    21A     -0.680202
      22A     -0.626761    23A     -0.624376    24A     -0.623208
      25A     -0.603271    26A     -0.575710    27A     -0.569838
      28A     -0.557288    29A     -0.540072    30A     -0.527514
      31A     -0.524473    32A     -0.481070    33A     -0.479753
      34A     -0.477389    35A     -0.473968    36A     -0.435517
      37A     -0.325674    38A     -0.316659

    Virtual:

      39A      0.140372    40A      0.144378    41A      0.169952
      42A      0.195103    43A      0.198170    44A      0.218281
      45A      0.221610    46A      0.236647    47A      0.248574
      48A      0.260207    49A      0.268045    50A      0.277774
      51A      0.282765    52A      0.288241    53A      0.294976
      54A      0.325346    55A      0.365634    56A      0.385874
      57A      0.390621    58A      0.406076    59A      0.461959
      60A      0.464493    61A      0.484540    62A      0.501286
      63A      0.569342    64A      0.597421    65A      0.603915
      66A      0.630413    67A      0.648284    68A      0.661356
      69A      0.683641    70A      0.694561    71A      0.704810
      72A      0.721094    73A      0.739855    74A      0.742560
      75A      0.747090    76A      0.751272    77A      0.760484
      78A      0.767824    79A      0.774397    80A      0.786170
      81A      0.788073    82A      0.823718    83A      0.835592
      84A      0.852928    85A      0.868970    86A      0.871869
      87A      0.880753    88A      0.885376    89A      0.888850
      90A      0.897555    91A      0.900489    92A      0.911965
      93A      0.917309    94A      0.923864    95A      0.947065
      96A      0.950255    97A      0.955034    98A      0.994582
      99A      1.011973   100A      1.039551   101A      1.055000
     102A      1.108792   103A      1.120866   104A      1.132233
     105A      1.155848   106A      1.159287   107A      1.167696
     108A      1.185730   109A      1.197657   110A      1.245099
     111A      1.249316   112A      1.254287   113A      1.262260
     114A      1.277735   115A      1.308546   116A      1.318380
     117A      1.320698   118A      1.327093   119A      1.363554
     120A      1.404767   121A      1.423767   122A      1.468687
     123A      1.500908   124A      1.523867   125A      1.552518
     126A      1.557079   127A      1.588821   128A      1.618915
     129A      1.658044   130A      1.672389   131A      1.688363
     132A      1.705779   133A      1.736989   134A      1.754982
     135A      1.762769   136A      1.766904   137A      1.798038
     138A      1.815296   139A      1.857295   140A      1.868113
     141A      1.871278   142A      1.884475   143A      1.898579
     144A      1.905872   145A      1.911767   146A      1.916846
     147A      1.924005   148A      1.932240   149A      1.948341
     150A      1.954854   151A      1.958644   152A      1.972770
     153A      1.984536   154A      1.990342   155A      2.005593
     156A      2.019451   157A      2.041533   158A      2.047999
     159A      2.059481   160A      2.088226   161A      2.108493
     162A      2.122950   163A      2.142161   164A      2.158100
     165A      2.165925   166A      2.168133   167A      2.184430
     168A      2.191419   169A      2.242852   170A      2.268479
     171A      2.277382   172A      2.301352   173A      2.310159
     174A      2.322631   175A      2.325112   176A      2.341472
     177A      2.378521   178A      2.418385   179A      2.460571
     180A      2.463527   181A      2.486949   182A      2.513486
     183A      2.535712   184A      2.543189   185A      2.562933
     186A      2.628001   187A      2.740960   188A      2.750125
     189A      2.756034   190A      2.771408   191A      2.777831
     192A      2.788456   193A      2.806781   194A      2.831505
     195A      2.861813   196A      2.873831   197A      2.883221
     198A      2.925958   199A      2.979932   200A      3.009309
     201A      3.028989   202A      3.158265   203A      3.199499
     204A      3.295297   205A      3.303449   206A      3.396223
     207A      3.446107   208A      3.644195   209A      3.958301
     210A      4.084065

    Final Occupation by Irrep:
              A
    DOCC [    38 ]

  @RHF Final Energy:  -423.84856512517661

   => Energetics <=

    Nuclear Repulsion Energy =            487.2819343488592949
    One-Electron Energy =               -1540.8352791343052104
    Two-Electron Energy =                 629.7047796602693097
    Total Energy =                       -423.8485651251766058

Computation Completed

Properties will be evaluated at   0.000000,   0.000000,   0.000000 [a0]

Properties computed using the SCF density matrix

  Nuclear Dipole Moment: [e a0]
     X:     8.0249      Y:     1.8711      Z:    -2.8599

  Electronic Dipole Moment: [e a0]
     X:    -7.3922      Y:    -2.1134      Z:     2.8503

  Dipole Moment: [e a0]
     X:     0.6327      Y:    -0.2424      Z:    -0.0095     Total:     0.6776

  Dipole Moment: [D]
     X:     1.6082      Y:    -0.6160      Z:    -0.0243     Total:     1.7223

*** tstop() called on ds3 at Sun Apr 26 21:28:16 2020
Module time:
	user time   =      85.61 seconds =       1.43 minutes
	system time =      39.77 seconds =       0.66 minutes
	total time  =        188 seconds =       3.13 minutes
Total time:
	user time   =      85.61 seconds =       1.43 minutes
	system time =      39.77 seconds =       0.66 minutes
	total time  =        188 seconds =       3.13 minutes
                                     G D M A

                                 by Anthony Stone

                           version 2.2.06, 22 June 2011

               Distributed Multipoles from Gaussian wavefunctions

Starting at 21:28:16 on 26 Apr 2020

Using SCF density matrix from file ./SSI/SSI-081SER-087PHE-1-dimer.test.11388.fchk

                         Distributed Multipole Analysis

Standard DMA

Positions and radii in angstrom
Multipole moments in atomic units, ea_0^k for rank k

C          x =  2.384553  y =  0.304837  z = -1.618050 angstrom
           Maximum rank =  0   Radius =  0.650 angstrom
                   Q00  =   0.094544

C          x =  3.530553  y =  0.345837  z = -2.629050 angstrom
           Maximum rank =  0   Radius =  0.650 angstrom
                   Q00  =  -0.250281

O          x =  2.320553  y =  1.491837  z = -0.846050 angstrom
           Maximum rank =  0   Radius =  0.650 angstrom
                   Q00  =  -0.586717

H          x =  1.436553  y =  0.194837  z = -2.141050 angstrom
           Maximum rank =  0   Radius =  0.325 angstrom
                   Q00  =   0.092408

H          x =  2.507553  y = -0.553163  z = -0.958050 angstrom
           Maximum rank =  0   Radius =  0.325 angstrom
                   Q00  =   0.022177

H          x =  3.312553  y = -0.397163  z = -3.398050 angstrom
           Maximum rank =  0   Radius =  0.325 angstrom
                   Q00  =   0.090385

H          x =  3.167553  y =  1.606837  z = -0.371050 angstrom
           Maximum rank =  0   Radius =  0.325 angstrom
                   Q00  =   0.378697

H          x =  4.484596  y =  0.113747  z = -2.133129 angstrom
           Maximum rank =  0   Radius =  0.325 angstrom
                   Q00  =   0.074869

H          x =  3.577681  y =  1.335527  z = -3.106855 angstrom
           Maximum rank =  0   Radius =  0.325 angstrom
                   Q00  =   0.092724

C          x = -0.652447  y =  1.299837  z =  2.478950 angstrom
           Maximum rank =  0   Radius =  0.650 angstrom
                   Q00  =  -0.199948

C          x = -0.570447  y = -1.356163  z = -0.252050 angstrom
           Maximum rank =  0   Radius =  0.650 angstrom
                   Q00  =  -0.084237

C          x = -0.158447  y = -0.414163  z =  0.695950 angstrom
           Maximum rank =  0   Radius =  0.650 angstrom
                   Q00  =  -0.051395

C          x = -1.927447  y = -1.628163  z = -0.423050 angstrom
           Maximum rank =  0   Radius =  0.650 angstrom
                   Q00  =  -0.078726

C          x = -1.094447  y =  0.254837  z =  1.484950 angstrom
           Maximum rank =  0   Radius =  0.650 angstrom
                   Q00  =  -0.098153

C          x = -2.869447  y = -0.951163  z =  0.350950 angstrom
           Maximum rank =  0   Radius =  0.650 angstrom
                   Q00  =  -0.080254

C          x = -2.453447  y = -0.011163  z =  1.294950 angstrom
           Maximum rank =  0   Radius =  0.650 angstrom
                   Q00  =  -0.010958

H          x =  0.163553  y = -1.878163  z = -0.848050 angstrom
           Maximum rank =  0   Radius =  0.325 angstrom
                   Q00  =   0.057769

H          x =  0.894553  y = -0.209163  z =  0.823950 angstrom
           Maximum rank =  0   Radius =  0.325 angstrom
                   Q00  =   0.052375

H          x = -2.249447  y = -2.361163  z = -1.150050 angstrom
           Maximum rank =  0   Radius =  0.325 angstrom
                   Q00  =   0.060092

H          x = -3.924447  y = -1.158163  z =  0.223950 angstrom
           Maximum rank =  0   Radius =  0.325 angstrom
                   Q00  =   0.063815

H          x = -1.491447  y =  1.960837  z =  2.688950 angstrom
           Maximum rank =  0   Radius =  0.325 angstrom
                   Q00  =   0.096185

H          x =  0.112553  y =  1.918837  z =  2.009950 angstrom
           Maximum rank =  0   Radius =  0.325 angstrom
                   Q00  =   0.105100

H          x = -3.193447  y =  0.507837  z =  1.888950 angstrom
           Maximum rank =  0   Radius =  0.325 angstrom
                   Q00  =   0.058211

H          x = -0.250075  y =  0.906737  z =  3.424239 angstrom
           Maximum rank =  0   Radius =  0.325 angstrom
                   Q00  =   0.101318

Total multipoles referred to origin at
           x =   0.000000,  y =    0.000000,  z =    0.000000 angstrom
                   Q00  =  -0.000000

Finished at 21:28:16 on 26 Apr 2020

  DMA results are available in the Python driver through the
	  variable('DMA DISTRIBUTED MULTIPOLES')
  and
	  variable('DMA TOTAL MULTIPOLES')
  commands.

    Psi4 stopped on: Sunday, 26 April 2020 09:28PM
    Psi4 wall time for execution: 0:03:08.31

*** Psi4 exiting successfully. Buy a developer a beer!
