                               Psi4 1.3.2 release

  ==> Input File <==

--------------------------------------------------------------------------
import numpy as np
set {scf_type pk
basis cc-pvdz
d_convergence 10
gdma_switch   0
gdma_limit    0
gdma_origin   [ 0.0,  0.0,  0.0 ]
}
molecule test {
    units Angstrom
    0 1
    --
    0 1
    C               -0.422699775393287     0.597008297137328     2.493553156776162
    C               -0.765699775393287    -0.199991702862672     1.266553156776162
    O               -1.631699775393287     0.168008297137328     0.479553156776162
    N               -0.007699775393287    -1.274991702862672     1.048553156776163
    H                0.346300224606713     1.320008297137328     2.229553156776162
    H               -0.015699775393287    -0.076991702862672     3.248553156776163
    H               -0.190699775393287    -1.833991702862672     0.228553156776162
    H                0.716300224606713    -1.536991702862672     1.701553156776163
    H               -1.295949775393287     1.124238297137328     2.905203156776162
    C                0.824300224606713     0.255008297137328    -2.057446843223838
    C                1.897300224606713     0.508008297137328    -3.127446843223838
    H                0.168300224606713     1.118008297137328    -1.953446843223838
    H                0.222300224606713    -0.607991702862672    -2.343446843223838
    H                1.304300224606713     0.048008297137328    -1.100446843223837
    H                2.498300224606712    -0.396991702862672    -3.241446843223837
    H                2.544590224606712     1.329648297137328    -2.786966843223837
    H                1.449640224606713     0.749498297137328    -4.102783843223838

}
e, wfn = energy('scf', return_wfn=True)
gdma(wfn)
dmavals = variable('DMA DISTRIBUTED MULTIPOLES')
charges = np.array(dmavals)
print(charges)
np.save('SSI-124GLN-200ALA-1-dimer.npy', np.array(charges))--------------------------------------------------------------------------

*** tstart() called on ds3
*** at Mon Apr 27 21:37:03 2020

   => Loading Basis Set <=

    Name: CC-PVDZ
    Role: ORBITAL
    Keyword: BASIS
    atoms 1-2, 10-11 entry C          line   138 file /theoryfs2/ds/metcalf/miniconda2/envs/tf2gpu/share/psi4/basis/cc-pvdz.gbs
    atoms 3          entry O          line   198 file /theoryfs2/ds/metcalf/miniconda2/envs/tf2gpu/share/psi4/basis/cc-pvdz.gbs
    atoms 4          entry N          line   168 file /theoryfs2/ds/metcalf/miniconda2/envs/tf2gpu/share/psi4/basis/cc-pvdz.gbs
    atoms 5-9, 12-17 entry H          line    22 file /theoryfs2/ds/metcalf/miniconda2/envs/tf2gpu/share/psi4/basis/cc-pvdz.gbs

         ---------------------------------------------------------
                                   SCF
               by Justin Turney, Rob Parrish, Andy Simmonett
                          and Daniel G. A. Smith
                              RHF Reference
                        1 Threads,    500 MiB Core
         ---------------------------------------------------------

  ==> Geometry <==

    Molecular point group: c1
    Full point group: C1

    Geometry (in Angstrom), charge = 0, multiplicity = 1:

       Center              X                  Y                   Z               Mass
    ------------   -----------------  -----------------  -----------------  -----------------
         C           -0.422699775393     0.597008297137     2.493553156776    12.000000000000
         C           -0.765699775393    -0.199991702863     1.266553156776    12.000000000000
         O           -1.631699775393     0.168008297137     0.479553156776    15.994914619570
         N           -0.007699775393    -1.274991702863     1.048553156776    14.003074004430
         H            0.346300224607     1.320008297137     2.229553156776     1.007825032230
         H           -0.015699775393    -0.076991702863     3.248553156776     1.007825032230
         H           -0.190699775393    -1.833991702863     0.228553156776     1.007825032230
         H            0.716300224607    -1.536991702863     1.701553156776     1.007825032230
         H           -1.295949775393     1.124238297137     2.905203156776     1.007825032230
         C            0.824300224607     0.255008297137    -2.057446843224    12.000000000000
         C            1.897300224607     0.508008297137    -3.127446843224    12.000000000000
         H            0.168300224607     1.118008297137    -1.953446843224     1.007825032230
         H            0.222300224607    -0.607991702863    -2.343446843224     1.007825032230
         H            1.304300224607     0.048008297137    -1.100446843224     1.007825032230
         H            2.498300224607    -0.396991702863    -3.241446843224     1.007825032230
         H            2.544590224607     1.329648297137    -2.786966843224     1.007825032230
         H            1.449640224607     0.749498297137    -4.102783843224     1.007825032230

  Running in c1 symmetry.

  Rotational constants: A =      0.19271  B =      0.03567  C =      0.03495 [cm^-1]
  Rotational constants: A =   5777.17424  B =   1069.37487  C =   1047.70813 [MHz]
  Nuclear repulsion =  232.795409304444121

  Charge       = 0
  Multiplicity = 1
  Electrons    = 50
  Nalpha       = 25
  Nbeta        = 25

  ==> Algorithm <==

  SCF Algorithm Type is PK.
  DIIS enabled.
  MOM disabled.
  Fractional occupation disabled.
  Guess Type is SAD.
  Energy threshold   = 1.00e-06
  Density threshold  = 1.00e-10
  Integral threshold = 0.00e+00

  ==> Primary Basis <==

  Basis Set: CC-PVDZ
    Blend: CC-PVDZ
    Number of shells: 69
    Number of basis function: 139
    Number of Cartesian functions: 145
    Spherical Harmonics?: true
    Max angular momentum: 2

  ==> Pre-Iterations <==

   -------------------------------------------------------
    Irrep   Nso     Nmo     Nalpha   Nbeta   Ndocc  Nsocc
   -------------------------------------------------------
     A        139     139       0       0       0       0
   -------------------------------------------------------
    Total     139     139      25      25      25       0
   -------------------------------------------------------

  ==> Integral Setup <==

  Using integral reordering PK algorithm.
  Sizing the integral batches needed.
  Building batch lookup table.
   Calculation information:
      Number of atoms:                  17
      Number of AO shells:              69
      Number of primitives:            187
      Number of atomic orbitals:       145
      Number of basis functions:       139

      Integral cutoff                 1.00e-12
      Number of threads:                 1

	Batch   1 pq = [       0,    9730] index = [             0,47341315] size =     47341315
  Task number: 5
  Buffer size: 11059200
  Buffer per thread: 2
  We computed 2370230 shell quartets total.
  Whereas there are 2917320 unique shell quartets.

  ==> DiskJK: Disk-Based J/K Matrices <==

    J tasked:                  Yes
    K tasked:                  Yes
    wK tasked:                  No
    Memory [MiB]:              375
    Schwarz Cutoff:          1E-12

    OpenMP threads:              1

  Minimum eigenvalue in the overlap matrix is 4.4796988826E-03.
  Using Symmetric Orthogonalization.

  SCF Guess: Superposition of Atomic Densities via on-the-fly atomic UHF.

  ==> Iterations <==

                        Total Energy        Delta E     RMS |[F,P]|

   @RHF iter SAD:  -285.93413762120508   -2.85934e+02   0.00000e+00
   @RHF iter   1:  -286.99804776118867   -1.06391e+00   4.62253e-03 DIIS
   @RHF iter   2:  -287.17352186712361   -1.75474e-01   2.58441e-03 DIIS
   @RHF iter   3:  -287.22298232396713   -4.94605e-02   5.42124e-04 DIIS
   @RHF iter   4:  -287.22634913897110   -3.36682e-03   2.19049e-04 DIIS
   @RHF iter   5:  -287.22694932045795   -6.00181e-04   3.40952e-05 DIIS
   @RHF iter   6:  -287.22697928655128   -2.99661e-05   1.54847e-05 DIIS
   @RHF iter   7:  -287.22698406539860   -4.77885e-06   6.22774e-06 DIIS
   @RHF iter   8:  -287.22698514574631   -1.08035e-06   2.15083e-06 DIIS
   @RHF iter   9:  -287.22698528146071   -1.35714e-07   5.27318e-07 DIIS
   @RHF iter  10:  -287.22698528742484   -5.96413e-09   1.65313e-07 DIIS
   @RHF iter  11:  -287.22698528804523   -6.20389e-10   3.72834e-08 DIIS
   @RHF iter  12:  -287.22698528807973   -3.45040e-11   8.47351e-09 DIIS
   @RHF iter  13:  -287.22698528808178   -2.04636e-12   1.67805e-09 DIIS
   @RHF iter  14:  -287.22698528808291   -1.13687e-12   7.20889e-10 DIIS
   @RHF iter  15:  -287.22698528808178    1.13687e-12   2.59887e-10 DIIS
   @RHF iter  16:  -287.22698528808127    5.11591e-13   9.55843e-11 DIIS
  Energy and wave function converged.

  ==> Post-Iterations <==

    Orbital Energies [Eh]
    ---------------------

    Doubly Occupied:

       1A    -20.504384     2A    -15.588366     3A    -11.347182
       4A    -11.241928     5A    -11.214861     6A    -11.208611
       7A     -1.367852     8A     -1.215936     9A     -1.009728
      10A     -1.003415    11A     -0.829950    12A     -0.797890
      13A     -0.726926    14A     -0.655182    15A     -0.615023
      16A     -0.591535    17A     -0.589809    18A     -0.572207
      19A     -0.558596    20A     -0.522366    21A     -0.489321
      22A     -0.480453    23A     -0.478980    24A     -0.410061
      25A     -0.403556

    Virtual:

      26A      0.159340    27A      0.188951    28A      0.198256
      29A      0.212411    30A      0.227020    31A      0.255336
      32A      0.260883    33A      0.266050    34A      0.277434
      35A      0.287734    36A      0.299378    37A      0.310060
      38A      0.381409    39A      0.393989    40A      0.470805
      41A      0.555011    42A      0.602369    43A      0.604548
      44A      0.609416    45A      0.646047    46A      0.648561
      47A      0.681525    48A      0.692298    49A      0.702509
      50A      0.724959    51A      0.746107    52A      0.800285
      53A      0.830236    54A      0.863674    55A      0.874919
      56A      0.893284    57A      0.897576    58A      0.897792
      59A      0.906898    60A      0.919639    61A      0.924344
      62A      0.939978    63A      0.958547    64A      0.973463
      65A      1.007379    66A      1.052532    67A      1.070298
      68A      1.117266    69A      1.128743    70A      1.146352
      71A      1.167897    72A      1.244986    73A      1.330380
      74A      1.362546    75A      1.381868    76A      1.408612
      77A      1.409954    78A      1.461990    79A      1.469357
      80A      1.480318    81A      1.489099    82A      1.593933
      83A      1.650023    84A      1.654649    85A      1.683431
      86A      1.697724    87A      1.737908    88A      1.820548
      89A      1.850097    90A      1.868195    91A      1.881333
      92A      1.889912    93A      1.898517    94A      1.905302
      95A      1.919076    96A      1.950692    97A      1.953264
      98A      1.958455    99A      1.964590   100A      1.966920
     101A      1.993279   102A      2.013627   103A      2.043228
     104A      2.082615   105A      2.100764   106A      2.124320
     107A      2.189932   108A      2.203346   109A      2.271614
     110A      2.306910   111A      2.327059   112A      2.427942
     113A      2.456413   114A      2.467357   115A      2.475848
     116A      2.480597   117A      2.544961   118A      2.563910
     119A      2.566895   120A      2.576557   121A      2.622470
     122A      2.727433   123A      2.754684   124A      2.764922
     125A      2.796242   126A      2.799927   127A      2.845711
     128A      2.854855   129A      2.869437   130A      2.952307
     131A      2.957889   132A      2.978617   133A      3.090555
     134A      3.136894   135A      3.285347   136A      3.487668
     137A      3.556546   138A      3.865554   139A      3.907106

    Final Occupation by Irrep:
              A
    DOCC [    25 ]

  @RHF Final Energy:  -287.22698528808127

   => Energetics <=

    Nuclear Repulsion Energy =            232.7954093044441208
    One-Electron Energy =                -851.1965485505580773
    Two-Electron Energy =                 331.1741539580327185
    Total Energy =                       -287.2269852880812664

Computation Completed

Properties will be evaluated at   0.000000,   0.000000,   0.000000 [a0]

Properties computed using the SCF density matrix

  Nuclear Dipole Moment: [e a0]
     X:     7.2554      Y:     1.1636      Z:    -4.8898

  Electronic Dipole Moment: [e a0]
     X:    -6.0809      Y:    -1.8623      Z:     5.8101

  Dipole Moment: [e a0]
     X:     1.1745      Y:    -0.6986      Z:     0.9204     Total:     1.6476

  Dipole Moment: [D]
     X:     2.9853      Y:    -1.7757      Z:     2.3394     Total:     4.1879

*** tstop() called on ds3 at Mon Apr 27 21:37:27 2020
Module time:
	user time   =      15.91 seconds =       0.27 minutes
	system time =       7.51 seconds =       0.13 minutes
	total time  =         24 seconds =       0.40 minutes
Total time:
	user time   =      15.91 seconds =       0.27 minutes
	system time =       7.51 seconds =       0.13 minutes
	total time  =         24 seconds =       0.40 minutes
                                     G D M A

                                 by Anthony Stone

                           version 2.2.06, 22 June 2011

               Distributed Multipoles from Gaussian wavefunctions

Starting at 21:37:27 on 27 Apr 2020

Using SCF density matrix from file ./SSI/SSI-124GLN-200ALA-1-dimer.test.1863.fchk

                         Distributed Multipole Analysis

Standard DMA

Positions and radii in angstrom
Multipole moments in atomic units, ea_0^k for rank k

C          x = -0.422700  y =  0.597008  z =  2.493553 angstrom
           Maximum rank =  0   Radius =  0.650 angstrom
                   Q00  =  -0.258342

C          x = -0.765700  y = -0.199992  z =  1.266553 angstrom
           Maximum rank =  0   Radius =  0.650 angstrom
                   Q00  =   0.816733

O          x = -1.631700  y =  0.168008  z =  0.479553 angstrom
           Maximum rank =  0   Radius =  0.650 angstrom
                   Q00  =  -0.783581

N          x = -0.007700  y = -1.274992  z =  1.048553 angstrom
           Maximum rank =  0   Radius =  0.650 angstrom
                   Q00  =  -0.532598

H          x =  0.346300  y =  1.320008  z =  2.229553 angstrom
           Maximum rank =  0   Radius =  0.325 angstrom
                   Q00  =   0.127986

H          x = -0.015700  y = -0.076992  z =  3.248553 angstrom
           Maximum rank =  0   Radius =  0.325 angstrom
                   Q00  =   0.076189

H          x = -0.190700  y = -1.833992  z =  0.228553 angstrom
           Maximum rank =  0   Radius =  0.325 angstrom
                   Q00  =   0.224484

H          x =  0.716300  y = -1.536992  z =  1.701553 angstrom
           Maximum rank =  0   Radius =  0.325 angstrom
                   Q00  =   0.205131

H          x = -1.295950  y =  1.124238  z =  2.905203 angstrom
           Maximum rank =  0   Radius =  0.325 angstrom
                   Q00  =   0.131109

C          x =  0.824300  y =  0.255008  z = -2.057447 angstrom
           Maximum rank =  0   Radius =  0.650 angstrom
                   Q00  =  -0.220870

C          x =  1.897300  y =  0.508008  z = -3.127447 angstrom
           Maximum rank =  0   Radius =  0.650 angstrom
                   Q00  =  -0.245959

H          x =  0.168300  y =  1.118008  z = -1.953447 angstrom
           Maximum rank =  0   Radius =  0.325 angstrom
                   Q00  =   0.092454

H          x =  0.222300  y = -0.607992  z = -2.343447 angstrom
           Maximum rank =  0   Radius =  0.325 angstrom
                   Q00  =   0.072723

H          x =  1.304300  y =  0.048008  z = -1.100447 angstrom
           Maximum rank =  0   Radius =  0.325 angstrom
                   Q00  =   0.063859

H          x =  2.498300  y = -0.396992  z = -3.241447 angstrom
           Maximum rank =  0   Radius =  0.325 angstrom
                   Q00  =   0.073033

H          x =  2.544590  y =  1.329648  z = -2.786967 angstrom
           Maximum rank =  0   Radius =  0.325 angstrom
                   Q00  =   0.075562

H          x =  1.449640  y =  0.749498  z = -4.102784 angstrom
           Maximum rank =  0   Radius =  0.325 angstrom
                   Q00  =   0.082086

Total multipoles referred to origin at
           x =   0.000000,  y =    0.000000,  z =    0.000000 angstrom
                   Q00  =  -0.000000

Finished at 21:37:27 on 27 Apr 2020

  DMA results are available in the Python driver through the
	  variable('DMA DISTRIBUTED MULTIPOLES')
  and
	  variable('DMA TOTAL MULTIPOLES')
  commands.

    Psi4 stopped on: Monday, 27 April 2020 09:37PM
    Psi4 wall time for execution: 0:00:23.39

*** Psi4 exiting successfully. Buy a developer a beer!
