                               Psi4 1.3.2 release

  ==> Input File <==

--------------------------------------------------------------------------
import numpy as np
set {scf_type pk
basis cc-pvdz
d_convergence 10
gdma_switch   0
gdma_limit    0
gdma_origin   [ 0.0,  0.0,  0.0 ]
}
molecule test {
    units Angstrom
    0 1
    --
    0 1
    C               -0.002922641815151     1.801377108368821    -2.359221530568739
    C                0.190077358184849     1.370377108368821     0.090778469431261
    C                0.465077358184849     0.966377108368821    -1.205221530568739
    C                0.610077358184849     0.621377108368822     1.176778469431261
    C                1.300077358184849    -0.553622891631179     0.981778469431261
    C                1.134077358184848    -0.230622891631179    -1.392221530568739
    C                1.551077358184849    -0.989622891631179    -0.297221530568739
    O                1.719077358184849    -1.307622891631179     2.040778469431261
    H               -0.336922641815151     2.299377108368822     0.266778469431261
    H                0.398077358184849     0.964377108368821     2.178778469431261
    H               -0.456922641815151     2.713377108368821    -1.977221530568739
    H               -0.779922641815151     1.243377108368821    -2.882221530568740
    H                1.334077358184849    -0.585622891631179    -2.393221530568739
    H                1.470077358184849    -0.915622891631179     2.884778469431260
    H                2.079077358184849    -1.918622891631179    -0.444221530568739
    H                0.785089358184849     2.071964108368821    -3.077427530568739
    C               -2.567922641815151    -1.089622891631179     0.052778469431261
    C               -3.752922641815151    -0.288622891631179     0.540778469431261
    H               -2.263922641815151    -1.818622891631179     0.800778469431261
    H               -2.831922641815151    -1.623622891631179    -0.854221530568739
    H               -1.728922641815151    -0.430622891631179    -0.151221530568739
    H               -4.611922641815151    -0.952622891631179     0.474778469431261
    H               -3.607879641815151    -0.013766891631179     1.595964469431261
    H               -3.951421641815151     0.580614108368821    -0.103445530568739

}
e, wfn = energy('scf', return_wfn=True)
gdma(wfn)
dmavals = variable('DMA DISTRIBUTED MULTIPOLES')
charges = np.array(dmavals)
print(charges)
np.save('SSI-044TYR-077LEU-1-dimer.npy', np.array(charges))--------------------------------------------------------------------------

*** tstart() called on ds3
*** at Sun Apr 26 17:54:49 2020

   => Loading Basis Set <=

    Name: CC-PVDZ
    Role: ORBITAL
    Keyword: BASIS
    atoms 1-7, 17-18  entry C          line   138 file /theoryfs2/ds/metcalf/miniconda2/envs/tf2gpu/share/psi4/basis/cc-pvdz.gbs
    atoms 8           entry O          line   198 file /theoryfs2/ds/metcalf/miniconda2/envs/tf2gpu/share/psi4/basis/cc-pvdz.gbs
    atoms 9-16, 19-24 entry H          line    22 file /theoryfs2/ds/metcalf/miniconda2/envs/tf2gpu/share/psi4/basis/cc-pvdz.gbs

         ---------------------------------------------------------
                                   SCF
               by Justin Turney, Rob Parrish, Andy Simmonett
                          and Daniel G. A. Smith
                              RHF Reference
                        1 Threads,    500 MiB Core
         ---------------------------------------------------------

  ==> Geometry <==

    Molecular point group: c1
    Full point group: C1

    Geometry (in Angstrom), charge = 0, multiplicity = 1:

       Center              X                  Y                   Z               Mass
    ------------   -----------------  -----------------  -----------------  -----------------
         C           -0.002922641815     1.801377108369    -2.359221530569    12.000000000000
         C            0.190077358185     1.370377108369     0.090778469431    12.000000000000
         C            0.465077358185     0.966377108369    -1.205221530569    12.000000000000
         C            0.610077358185     0.621377108369     1.176778469431    12.000000000000
         C            1.300077358185    -0.553622891631     0.981778469431    12.000000000000
         C            1.134077358185    -0.230622891631    -1.392221530569    12.000000000000
         C            1.551077358185    -0.989622891631    -0.297221530569    12.000000000000
         O            1.719077358185    -1.307622891631     2.040778469431    15.994914619570
         H           -0.336922641815     2.299377108369     0.266778469431     1.007825032230
         H            0.398077358185     0.964377108369     2.178778469431     1.007825032230
         H           -0.456922641815     2.713377108369    -1.977221530569     1.007825032230
         H           -0.779922641815     1.243377108369    -2.882221530569     1.007825032230
         H            1.334077358185    -0.585622891631    -2.393221530569     1.007825032230
         H            1.470077358185    -0.915622891631     2.884778469431     1.007825032230
         H            2.079077358185    -1.918622891631    -0.444221530569     1.007825032230
         H            0.785089358185     2.071964108369    -3.077427530569     1.007825032230
         C           -2.567922641815    -1.089622891631     0.052778469431    12.000000000000
         C           -3.752922641815    -0.288622891631     0.540778469431    12.000000000000
         H           -2.263922641815    -1.818622891631     0.800778469431     1.007825032230
         H           -2.831922641815    -1.623622891631    -0.854221530569     1.007825032230
         H           -1.728922641815    -0.430622891631    -0.151221530569     1.007825032230
         H           -4.611922641815    -0.952622891631     0.474778469431     1.007825032230
         H           -3.607879641815    -0.013766891631     1.595964469431     1.007825032230
         H           -3.951421641815     0.580614108369    -0.103445530569     1.007825032230

  Running in c1 symmetry.

  Rotational constants: A =      0.04036  B =      0.03145  C =      0.02176 [cm^-1]
  Rotational constants: A =   1209.82477  B =    942.87546  C =    652.31369 [MHz]
  Nuclear repulsion =  508.343936995888953

  Charge       = 0
  Multiplicity = 1
  Electrons    = 76
  Nalpha       = 38
  Nbeta        = 38

  ==> Algorithm <==

  SCF Algorithm Type is PK.
  DIIS enabled.
  MOM disabled.
  Fractional occupation disabled.
  Guess Type is SAD.
  Energy threshold   = 1.00e-06
  Density threshold  = 1.00e-10
  Integral threshold = 0.00e+00

  ==> Primary Basis <==

  Basis Set: CC-PVDZ
    Blend: CC-PVDZ
    Number of shells: 102
    Number of basis function: 210
    Number of Cartesian functions: 220
    Spherical Harmonics?: true
    Max angular momentum: 2

  ==> Pre-Iterations <==

   -------------------------------------------------------
    Irrep   Nso     Nmo     Nalpha   Nbeta   Ndocc  Nsocc
   -------------------------------------------------------
     A        210     210       0       0       0       0
   -------------------------------------------------------
    Total     210     210      38      38      38       0
   -------------------------------------------------------

  ==> Integral Setup <==

  Using integral reordering PK algorithm.
  Sizing the integral batches needed.
  Building batch lookup table.
   Calculation information:
      Number of atoms:                  24
      Number of AO shells:             102
      Number of primitives:            290
      Number of atomic orbitals:       220
      Number of basis functions:       210

      Integral cutoff                 1.00e-12
      Number of threads:                 1

	Batch   1 pq = [       0,    9405] index = [             0,44231715] size =     44231715
	Batch   2 pq = [    9405,   13301] index = [      44231715,88464951] size =     44233236
	Batch   3 pq = [   13301,   16290] index = [      88464951,132690195] size =     44225244
	Batch   4 pq = [   16290,   18810] index = [     132690195,176917455] size =     44227260
	Batch   5 pq = [   18810,   21030] index = [     176917455,221140965] size =     44223510
	Batch   6 pq = [   21030,   22155] index = [     221140965,245433090] size =     24292125
  Task number: 23
  Buffer size: 11059200
  Buffer per thread: 2
  We computed 13311152 shell quartets total.
  Whereas there are 13799631 unique shell quartets.

  ==> DiskJK: Disk-Based J/K Matrices <==

    J tasked:                  Yes
    K tasked:                  Yes
    wK tasked:                  No
    Memory [MiB]:              375
    Schwarz Cutoff:          1E-12

    OpenMP threads:              1

  Minimum eigenvalue in the overlap matrix is 3.0498882451E-04.
  Using Symmetric Orthogonalization.

  SCF Guess: Superposition of Atomic Densities via on-the-fly atomic UHF.

  ==> Iterations <==

                        Total Energy        Delta E     RMS |[F,P]|

   @RHF iter SAD:  -422.85175932409311   -4.22852e+02   0.00000e+00
   @RHF iter   1:  -423.59495945126332   -7.43200e-01   3.01028e-03 DIIS
   @RHF iter   2:  -423.81488837152790   -2.19929e-01   1.26678e-03 DIIS
   @RHF iter   3:  -423.85026946780749   -3.53811e-02   2.79411e-04 DIIS
   @RHF iter   4:  -423.85308511945760   -2.81565e-03   1.12613e-04 DIIS
   @RHF iter   5:  -423.85340848955764   -3.23370e-04   2.11777e-05 DIIS
   @RHF iter   6:  -423.85342612045662   -1.76309e-05   6.32298e-06 DIIS
   @RHF iter   7:  -423.85342771379777   -1.59334e-06   1.99721e-06 DIIS
   @RHF iter   8:  -423.85342791854464   -2.04747e-07   7.30515e-07 DIIS
   @RHF iter   9:  -423.85342795080442   -3.22598e-08   2.89545e-07 DIIS
   @RHF iter  10:  -423.85342795659136   -5.78694e-09   1.16362e-07 DIIS
   @RHF iter  11:  -423.85342795828552   -1.69416e-09   5.26538e-08 DIIS
   @RHF iter  12:  -423.85342795863454   -3.49019e-10   2.46655e-08 DIIS
   @RHF iter  13:  -423.85342795869497   -6.04246e-11   7.71443e-09 DIIS
   @RHF iter  14:  -423.85342795870127   -6.30962e-12   2.13468e-09 DIIS
   @RHF iter  15:  -423.85342795870127    0.00000e+00   7.22865e-10 DIIS
   @RHF iter  16:  -423.85342795870093    3.41061e-13   2.74649e-10 DIIS
   @RHF iter  17:  -423.85342795870110   -1.70530e-13   1.28213e-10 DIIS
   @RHF iter  18:  -423.85342795870105    5.68434e-14   6.56714e-11 DIIS
  Energy and wave function converged.

  ==> Post-Iterations <==

    Orbital Energies [Eh]
    ---------------------

    Doubly Occupied:

       1A    -20.582210     2A    -11.295220     3A    -11.237362
       4A    -11.236259     5A    -11.231483     6A    -11.230515
       7A    -11.228940     8A    -11.227745     9A    -11.211750
      10A    -11.201390    11A     -1.398027    12A     -1.157840
      13A     -1.043347    14A     -1.019776    15A     -1.015066
      16A     -0.929667    17A     -0.847475    18A     -0.826864
      19A     -0.802981    20A     -0.733336    21A     -0.671038
      22A     -0.641796    23A     -0.606734    24A     -0.596904
      25A     -0.594764    26A     -0.586410    27A     -0.584111
      28A     -0.571578    29A     -0.569325    30A     -0.527877
      31A     -0.499131    32A     -0.495709    33A     -0.486986
      34A     -0.482330    35A     -0.478636    36A     -0.457476
      37A     -0.339225    38A     -0.305893

    Virtual:

      39A      0.129933    40A      0.158258    41A      0.172926
      42A      0.180963    43A      0.204334    44A      0.213117
      45A      0.217457    46A      0.249758    47A      0.251632
      48A      0.257723    49A      0.261043    50A      0.269759
      51A      0.287887    52A      0.297883    53A      0.304506
      54A      0.336539    55A      0.371521    56A      0.378304
      57A      0.407700    58A      0.429954    59A      0.455360
      60A      0.480609    61A      0.498772    62A      0.518861
      63A      0.582935    64A      0.594881    65A      0.601690
      66A      0.620167    67A      0.634232    68A      0.641701
      69A      0.654213    70A      0.673960    71A      0.684333
      72A      0.695753    73A      0.712995    74A      0.736384
      75A      0.741442    76A      0.752125    77A      0.766536
      78A      0.779213    79A      0.786839    80A      0.799915
      81A      0.825747    82A      0.838996    83A      0.851824
      84A      0.871219    85A      0.875531    86A      0.882058
      87A      0.886573    88A      0.891236    89A      0.898175
      90A      0.899780    91A      0.914460    92A      0.919277
      93A      0.927435    94A      0.932414    95A      0.943204
      96A      0.950033    97A      0.953153    98A      0.967115
      99A      0.996094   100A      1.026402   101A      1.049016
     102A      1.122987   103A      1.124618   104A      1.131500
     105A      1.132411   106A      1.148333   107A      1.162883
     108A      1.181343   109A      1.217069   110A      1.231288
     111A      1.253100   112A      1.262735   113A      1.287124
     114A      1.307873   115A      1.315218   116A      1.321474
     117A      1.350987   118A      1.354600   119A      1.370831
     120A      1.426730   121A      1.480884   122A      1.486760
     123A      1.493948   124A      1.511489   125A      1.540754
     126A      1.560262   127A      1.601091   128A      1.616867
     129A      1.626497   130A      1.677444   131A      1.682593
     132A      1.698288   133A      1.710785   134A      1.733312
     135A      1.747819   136A      1.792766   137A      1.809914
     138A      1.831112   139A      1.857534   140A      1.869048
     141A      1.882835   142A      1.897771   143A      1.900947
     144A      1.905022   145A      1.913534   146A      1.924020
     147A      1.937825   148A      1.948758   149A      1.951446
     150A      1.960955   151A      1.963866   152A      1.970712
     153A      1.981310   154A      1.992008   155A      2.006590
     156A      2.013466   157A      2.034662   158A      2.061809
     159A      2.072389   160A      2.083348   161A      2.098314
     162A      2.125368   163A      2.128588   164A      2.158828
     165A      2.176870   166A      2.193611   167A      2.208831
     168A      2.226105   169A      2.262336   170A      2.274741
     171A      2.303429   172A      2.305967   173A      2.333409
     174A      2.364975   175A      2.383205   176A      2.402963
     177A      2.449909   178A      2.458095   179A      2.469671
     180A      2.494653   181A      2.503610   182A      2.539789
     183A      2.554379   184A      2.589252   185A      2.611380
     186A      2.626015   187A      2.656340   188A      2.750701
     189A      2.772263   190A      2.777875   191A      2.801029
     192A      2.814730   193A      2.817797   194A      2.848923
     195A      2.853553   196A      2.873226   197A      2.915553
     198A      2.962602   199A      2.979661   200A      3.017063
     201A      3.033952   202A      3.107879   203A      3.146690
     204A      3.251074   205A      3.302273   206A      3.350015
     207A      3.578675   208A      3.686085   209A      3.990362
     210A      4.202119

    Final Occupation by Irrep:
              A
    DOCC [    38 ]

  @RHF Final Energy:  -423.85342795870105

   => Energetics <=

    Nuclear Repulsion Energy =            508.3439369958889529
    One-Electron Energy =               -1582.4883842880938118
    Two-Electron Energy =                 650.2910193335038684
    Total Energy =                       -423.8534279587009905

Computation Completed

Properties will be evaluated at   0.000000,   0.000000,   0.000000 [a0]

Properties computed using the SCF density matrix

  Nuclear Dipole Moment: [e a0]
     X:   -13.5882      Y:     1.5068      Z:    -3.4413

  Electronic Dipole Moment: [e a0]
     X:    13.4011      Y:    -1.0664      Z:     3.5989

  Dipole Moment: [e a0]
     X:    -0.1871      Y:     0.4404      Z:     0.1576     Total:     0.5038

  Dipole Moment: [D]
     X:    -0.4756      Y:     1.1193      Z:     0.4005     Total:     1.2804

*** tstop() called on ds3 at Sun Apr 26 17:57:04 2020
Module time:
	user time   =     100.53 seconds =       1.68 minutes
	system time =      39.42 seconds =       0.66 minutes
	total time  =        135 seconds =       2.25 minutes
Total time:
	user time   =     100.53 seconds =       1.68 minutes
	system time =      39.42 seconds =       0.66 minutes
	total time  =        135 seconds =       2.25 minutes
                                     G D M A

                                 by Anthony Stone

                           version 2.2.06, 22 June 2011

               Distributed Multipoles from Gaussian wavefunctions

Starting at 17:57:4 on 26 Apr 2020

Using SCF density matrix from file ./SSI/SSI-044TYR-077LEU-1-dimer.test.24751.fchk

                         Distributed Multipole Analysis

Standard DMA

Positions and radii in angstrom
Multipole moments in atomic units, ea_0^k for rank k

C          x = -0.002923  y =  1.801377  z = -2.359222 angstrom
           Maximum rank =  0   Radius =  0.650 angstrom
                   Q00  =  -0.201141

C          x =  0.190077  y =  1.370377  z =  0.090778 angstrom
           Maximum rank =  0   Radius =  0.650 angstrom
                   Q00  =   0.029896

C          x =  0.465077  y =  0.966377  z = -1.205222 angstrom
           Maximum rank =  0   Radius =  0.650 angstrom
                   Q00  =  -0.131009

C          x =  0.610077  y =  0.621377  z =  1.176778 angstrom
           Maximum rank =  0   Radius =  0.650 angstrom
                   Q00  =  -0.152493

C          x =  1.300077  y = -0.553623  z =  0.981778 angstrom
           Maximum rank =  0   Radius =  0.650 angstrom
                   Q00  =   0.332067

C          x =  1.134077  y = -0.230623  z = -1.392222 angstrom
           Maximum rank =  0   Radius =  0.650 angstrom
                   Q00  =  -0.054648

C          x =  1.551077  y = -0.989623  z = -0.297222 angstrom
           Maximum rank =  0   Radius =  0.650 angstrom
                   Q00  =  -0.111834

O          x =  1.719077  y = -1.307623  z =  2.040778 angstrom
           Maximum rank =  0   Radius =  0.650 angstrom
                   Q00  =  -0.681277

H          x = -0.336923  y =  2.299377  z =  0.266778 angstrom
           Maximum rank =  0   Radius =  0.325 angstrom
                   Q00  =   0.067370

H          x =  0.398077  y =  0.964377  z =  2.178778 angstrom
           Maximum rank =  0   Radius =  0.325 angstrom
                   Q00  =   0.069923

H          x = -0.456923  y =  2.713377  z = -1.977222 angstrom
           Maximum rank =  0   Radius =  0.325 angstrom
                   Q00  =   0.095740

H          x = -0.779923  y =  1.243377  z = -2.882222 angstrom
           Maximum rank =  0   Radius =  0.325 angstrom
                   Q00  =   0.097216

H          x =  1.334077  y = -0.585623  z = -2.393222 angstrom
           Maximum rank =  0   Radius =  0.325 angstrom
                   Q00  =   0.061387

H          x =  1.470077  y = -0.915623  z =  2.884778 angstrom
           Maximum rank =  0   Radius =  0.325 angstrom
                   Q00  =   0.405047

H          x =  2.079077  y = -1.918623  z = -0.444222 angstrom
           Maximum rank =  0   Radius =  0.325 angstrom
                   Q00  =   0.081040

H          x =  0.785089  y =  2.071964  z = -3.077428 angstrom
           Maximum rank =  0   Radius =  0.325 angstrom
                   Q00  =   0.099937

C          x = -2.567923  y = -1.089623  z =  0.052778 angstrom
           Maximum rank =  0   Radius =  0.650 angstrom
                   Q00  =  -0.222695

C          x = -3.752923  y = -0.288623  z =  0.540778 angstrom
           Maximum rank =  0   Radius =  0.650 angstrom
                   Q00  =  -0.247629

H          x = -2.263923  y = -1.818623  z =  0.800778 angstrom
           Maximum rank =  0   Radius =  0.325 angstrom
                   Q00  =   0.074536

H          x = -2.831923  y = -1.623623  z = -0.854222 angstrom
           Maximum rank =  0   Radius =  0.325 angstrom
                   Q00  =   0.068439

H          x = -1.728923  y = -0.430623  z = -0.151222 angstrom
           Maximum rank =  0   Radius =  0.325 angstrom
                   Q00  =   0.096972

H          x = -4.611923  y = -0.952623  z =  0.474778 angstrom
           Maximum rank =  0   Radius =  0.325 angstrom
                   Q00  =   0.075472

H          x = -3.607880  y = -0.013767  z =  1.595964 angstrom
           Maximum rank =  0   Radius =  0.325 angstrom
                   Q00  =   0.072579

H          x = -3.951422  y =  0.580614  z = -0.103446 angstrom
           Maximum rank =  0   Radius =  0.325 angstrom
                   Q00  =   0.075104

Total multipoles referred to origin at
           x =   0.000000,  y =    0.000000,  z =    0.000000 angstrom
                   Q00  =  -0.000000

Finished at 17:57:4 on 26 Apr 2020

  DMA results are available in the Python driver through the
	  variable('DMA DISTRIBUTED MULTIPOLES')
  and
	  variable('DMA TOTAL MULTIPOLES')
  commands.

    Psi4 stopped on: Sunday, 26 April 2020 05:57PM
    Psi4 wall time for execution: 0:02:14.84

*** Psi4 exiting successfully. Buy a developer a beer!
