                               Psi4 1.3.2 release

  ==> Input File <==

--------------------------------------------------------------------------
import numpy as np
set {scf_type pk
basis cc-pvdz
d_convergence 10
gdma_switch   0
gdma_limit    0
gdma_origin   [ 0.0,  0.0,  0.0 ]
}
molecule test {
    units Angstrom
    0 1
    --
    0 1
    C               -2.099559197879489     0.333704965060286     2.396411637033571
    C               -1.853559197879488     1.412704965060287     3.496411637033571
    H               -3.168559197879489     0.200704965060286     2.225411637033571
    H               -1.636559197879488     0.640704965060287     1.461411637033571
    H               -1.645559197879488    -0.618295034939713     2.670411637033572
    H               -0.782559197879489     1.397704965060286     3.715411637033572
    H               -2.378119197879489     1.178534965060287     4.434501637033572
    H               -2.112199197879488     2.428634965060286     3.163261637033571
    C               -0.957559197879488    -2.792295034939714    -0.676588362966428
    C               -1.599559197879488    -0.413295034939714    -1.293588362966428
    C               -0.721559197879488    -1.336295034939714    -0.845588362966428
    C                0.299440802120511     0.717704965060286    -0.900588362966428
    C                0.507440802120512    -0.635295034939714    -0.564588362966428
    C                1.286440802120512     1.679704965060287    -0.741588362966428
    C                1.766440802120512    -1.033295034939714    -0.107588362966428
    C                2.508440802120512     1.264704965060287    -0.272588362966428
    C                2.753440802120511    -0.074295034939714     0.046411637033572
    N               -0.995559197879489     0.817704965060287    -1.321588362966428
    H               -2.621559197879489    -0.597295034939714    -1.598588362966428
    H               -1.465559197879488     1.683704965060287    -1.602588362966428
    H               -0.821559197879488    -3.034295034939714     0.377411637033572
    H               -0.187559197879488    -3.319295034939713    -1.240588362966428
    H                1.098440802120512     2.712704965060287    -0.994588362966428
    H                1.955440802120512    -2.069295034939713     0.132411637033572
    H                3.304440802120511     1.987704965060287    -0.156588362966428
    H                3.734440802120512    -0.368295034939714     0.396411637033572
    H               -1.942429197879489    -3.151805034939713    -1.009438362966429

}
e, wfn = energy('scf', return_wfn=True)
gdma(wfn)
dmavals = variable('DMA DISTRIBUTED MULTIPOLES')
charges = np.array(dmavals)
print(charges)
np.save('SSI-058ILE-097TRP-1-dimer.npy', np.array(charges))--------------------------------------------------------------------------

*** tstart() called on ds3
*** at Tue Apr 28 03:27:12 2020

   => Loading Basis Set <=

    Name: CC-PVDZ
    Role: ORBITAL
    Keyword: BASIS
    atoms 1-2, 9-17  entry C          line   138 file /theoryfs2/ds/metcalf/miniconda2/envs/tf2gpu/share/psi4/basis/cc-pvdz.gbs
    atoms 3-8, 19-27 entry H          line    22 file /theoryfs2/ds/metcalf/miniconda2/envs/tf2gpu/share/psi4/basis/cc-pvdz.gbs
    atoms 18         entry N          line   168 file /theoryfs2/ds/metcalf/miniconda2/envs/tf2gpu/share/psi4/basis/cc-pvdz.gbs

         ---------------------------------------------------------
                                   SCF
               by Justin Turney, Rob Parrish, Andy Simmonett
                          and Daniel G. A. Smith
                              RHF Reference
                        1 Threads,    500 MiB Core
         ---------------------------------------------------------

  ==> Geometry <==

    Molecular point group: c1
    Full point group: C1

    Geometry (in Angstrom), charge = 0, multiplicity = 1:

       Center              X                  Y                   Z               Mass
    ------------   -----------------  -----------------  -----------------  -----------------
         C           -2.099559197879     0.333704965060     2.396411637034    12.000000000000
         C           -1.853559197879     1.412704965060     3.496411637034    12.000000000000
         H           -3.168559197879     0.200704965060     2.225411637034     1.007825032230
         H           -1.636559197879     0.640704965060     1.461411637034     1.007825032230
         H           -1.645559197879    -0.618295034940     2.670411637034     1.007825032230
         H           -0.782559197879     1.397704965060     3.715411637034     1.007825032230
         H           -2.378119197879     1.178534965060     4.434501637034     1.007825032230
         H           -2.112199197879     2.428634965060     3.163261637034     1.007825032230
         C           -0.957559197879    -2.792295034940    -0.676588362966    12.000000000000
         C           -1.599559197879    -0.413295034940    -1.293588362966    12.000000000000
         C           -0.721559197879    -1.336295034940    -0.845588362966    12.000000000000
         C            0.299440802121     0.717704965060    -0.900588362966    12.000000000000
         C            0.507440802121    -0.635295034940    -0.564588362966    12.000000000000
         C            1.286440802121     1.679704965060    -0.741588362966    12.000000000000
         C            1.766440802121    -1.033295034940    -0.107588362966    12.000000000000
         C            2.508440802121     1.264704965060    -0.272588362966    12.000000000000
         C            2.753440802121    -0.074295034940     0.046411637034    12.000000000000
         N           -0.995559197879     0.817704965060    -1.321588362966    14.003074004430
         H           -2.621559197879    -0.597295034940    -1.598588362966     1.007825032230
         H           -1.465559197879     1.683704965060    -1.602588362966     1.007825032230
         H           -0.821559197879    -3.034295034940     0.377411637034     1.007825032230
         H           -0.187559197879    -3.319295034940    -1.240588362966     1.007825032230
         H            1.098440802121     2.712704965060    -0.994588362966     1.007825032230
         H            1.955440802121    -2.069295034940     0.132411637034     1.007825032230
         H            3.304440802121     1.987704965060    -0.156588362966     1.007825032230
         H            3.734440802121    -0.368295034940     0.396411637034     1.007825032230
         H           -1.942429197879    -3.151805034940    -1.009438362966     1.007825032230

  Running in c1 symmetry.

  Rotational constants: A =      0.03040  B =      0.02319  C =      0.01816 [cm^-1]
  Rotational constants: A =    911.35580  B =    695.26329  C =    544.32817 [MHz]
  Nuclear repulsion =  664.897988445184296

  Charge       = 0
  Multiplicity = 1
  Electrons    = 88
  Nalpha       = 44
  Nbeta        = 44

  ==> Algorithm <==

  SCF Algorithm Type is PK.
  DIIS enabled.
  MOM disabled.
  Fractional occupation disabled.
  Guess Type is SAD.
  Energy threshold   = 1.00e-06
  Density threshold  = 1.00e-10
  Integral threshold = 0.00e+00

  ==> Primary Basis <==

  Basis Set: CC-PVDZ
    Blend: CC-PVDZ
    Number of shells: 117
    Number of basis function: 243
    Number of Cartesian functions: 255
    Spherical Harmonics?: true
    Max angular momentum: 2

  ==> Pre-Iterations <==

   -------------------------------------------------------
    Irrep   Nso     Nmo     Nalpha   Nbeta   Ndocc  Nsocc
   -------------------------------------------------------
     A        243     243       0       0       0       0
   -------------------------------------------------------
    Total     243     243      44      44      44       0
   -------------------------------------------------------

  ==> Integral Setup <==

  Using integral reordering PK algorithm.
  Sizing the integral batches needed.
  Building batch lookup table.
   Calculation information:
      Number of atoms:                  27
      Number of AO shells:             117
      Number of primitives:            339
      Number of atomic orbitals:       255
      Number of basis functions:       243

      Integral cutoff                 1.00e-12
      Number of threads:                 1

	Batch   1 pq = [       0,    9405] index = [             0,44231715] size =     44231715
	Batch   2 pq = [    9405,   13301] index = [      44231715,88464951] size =     44233236
	Batch   3 pq = [   13301,   16290] index = [      88464951,132690195] size =     44225244
	Batch   4 pq = [   16290,   18810] index = [     132690195,176917455] size =     44227260
	Batch   5 pq = [   18810,   21030] index = [     176917455,221140965] size =     44223510
	Batch   6 pq = [   21030,   23037] index = [     221140965,265363203] size =     44222238
	Batch   7 pq = [   23037,   24883] index = [     265363203,309594286] size =     44231083
	Batch   8 pq = [   24883,   26601] index = [     309594286,353819901] size =     44225615
	Batch   9 pq = [   26601,   28214] index = [     353819901,398029005] size =     44209104
	Batch  10 pq = [   28214,   29646] index = [     398029005,439457481] size =     41428476
  Task number: 40
  Buffer size: 11059200
  Buffer per thread: 2
  We computed 24486265 shell quartets total.
  Whereas there are 23829156 unique shell quartets.
     2.76 percent of shell quartets recomputed by reordering.

  ==> DiskJK: Disk-Based J/K Matrices <==

    J tasked:                  Yes
    K tasked:                  Yes
    wK tasked:                  No
    Memory [MiB]:              375
    Schwarz Cutoff:          1E-12

    OpenMP threads:              1

  Minimum eigenvalue in the overlap matrix is 2.3971646442E-04.
  Using Symmetric Orthogonalization.

  SCF Guess: Superposition of Atomic Densities via on-the-fly atomic UHF.

  ==> Iterations <==

                        Total Energy        Delta E     RMS |[F,P]|

   @RHF iter SAD:  -479.08835976278101   -4.79088e+02   0.00000e+00
   @RHF iter   1:  -479.48921095003226   -4.00851e-01   2.60969e-03 DIIS
   @RHF iter   2:  -479.72221790532768   -2.33007e-01   1.16004e-03 DIIS
   @RHF iter   3:  -479.76411824744127   -4.19003e-02   3.01034e-04 DIIS
   @RHF iter   4:  -479.76786990873910   -3.75166e-03   1.38496e-04 DIIS
   @RHF iter   5:  -479.76850922933932   -6.39321e-04   2.00036e-05 DIIS
   @RHF iter   6:  -479.76853841942648   -2.91901e-05   9.17849e-06 DIIS
   @RHF iter   7:  -479.76854434855176   -5.92913e-06   3.79658e-06 DIIS
   @RHF iter   8:  -479.76854601587934   -1.66733e-06   1.47371e-06 DIIS
   @RHF iter   9:  -479.76854633221672   -3.16337e-07   6.53136e-07 DIIS
   @RHF iter  10:  -479.76854639397254   -6.17558e-08   2.98713e-07 DIIS
   @RHF iter  11:  -479.76854640946652   -1.54940e-08   1.10070e-07 DIIS
   @RHF iter  12:  -479.76854641151215   -2.04562e-09   3.39467e-08 DIIS
   @RHF iter  13:  -479.76854641163953   -1.27386e-10   8.84240e-09 DIIS
   @RHF iter  14:  -479.76854641165238   -1.28466e-11   3.49399e-09 DIIS
   @RHF iter  15:  -479.76854641165050    1.87583e-12   1.66536e-09 DIIS
   @RHF iter  16:  -479.76854641164670    3.80851e-12   8.51888e-10 DIIS
   @RHF iter  17:  -479.76854641165716   -1.04592e-11   3.28259e-10 DIIS
   @RHF iter  18:  -479.76854641165050    6.65068e-12   1.41681e-10 DIIS
   @RHF iter  19:  -479.76854641164869    1.81899e-12   4.48246e-11 DIIS
  Energy and wave function converged.

  ==> Post-Iterations <==

    Orbital Energies [Eh]
    ---------------------

    Doubly Occupied:

       1A    -15.600026     2A    -11.262582     3A    -11.260250
       4A    -11.230397     5A    -11.229431     6A    -11.227886
       7A    -11.224989     8A    -11.220065     9A    -11.218728
      10A    -11.215509    11A    -11.214811    12A    -11.209242
      13A     -1.297451    14A     -1.132334    15A     -1.075187
      16A     -1.001017    17A     -0.999823    18A     -0.989977
      19A     -0.932497    20A     -0.841467    21A     -0.832567
      22A     -0.803460    23A     -0.753438    24A     -0.718502
      25A     -0.662589    26A     -0.644246    27A     -0.603820
      28A     -0.597779    29A     -0.592000    30A     -0.585037
      31A     -0.580508    32A     -0.571956    33A     -0.551893
      34A     -0.537134    35A     -0.526637    36A     -0.495420
      37A     -0.490857    38A     -0.479486    39A     -0.475620
      40A     -0.473117    41A     -0.463725    42A     -0.371938
      43A     -0.296266    44A     -0.277672

    Virtual:

      45A      0.127843    46A      0.169284    47A      0.174912
      48A      0.183294    49A      0.199479    50A      0.202253
      51A      0.222521    52A      0.231156    53A      0.233776
      54A      0.247955    55A      0.260128    56A      0.267016
      57A      0.269588    58A      0.274888    59A      0.283862
      60A      0.286305    61A      0.308548    62A      0.322727
      63A      0.377188    64A      0.385299    65A      0.394721
      66A      0.413208    67A      0.420363    68A      0.447785
      69A      0.473282    70A      0.482081    71A      0.500566
      72A      0.526930    73A      0.581698    74A      0.589342
      75A      0.596256    76A      0.607273    77A      0.622150
      78A      0.636997    79A      0.656942    80A      0.666143
      81A      0.672469    82A      0.700201    83A      0.704603
      84A      0.711107    85A      0.720265    86A      0.732816
      87A      0.740460    88A      0.741768    89A      0.747360
      90A      0.766952    91A      0.781181    92A      0.786369
      93A      0.790052    94A      0.812829    95A      0.816000
      96A      0.838907    97A      0.858742    98A      0.864734
      99A      0.877512   100A      0.888808   101A      0.890814
     102A      0.893896   103A      0.897772   104A      0.900740
     105A      0.908772   106A      0.911267   107A      0.924265
     108A      0.927050   109A      0.937066   110A      0.953591
     111A      0.958422   112A      0.967544   113A      0.982170
     114A      0.985428   115A      1.016831   116A      1.033250
     117A      1.065180   118A      1.082667   119A      1.119053
     120A      1.123839   121A      1.129799   122A      1.138723
     123A      1.143515   124A      1.149021   125A      1.164458
     126A      1.172020   127A      1.211612   128A      1.228486
     129A      1.231057   130A      1.235351   131A      1.253924
     132A      1.273634   133A      1.292336   134A      1.301921
     135A      1.309893   136A      1.330183   137A      1.342797
     138A      1.370130   139A      1.376467   140A      1.396085
     141A      1.442653   142A      1.463750   143A      1.478752
     144A      1.525960   145A      1.575083   146A      1.585402
     147A      1.591890   148A      1.611336   149A      1.634687
     150A      1.647029   151A      1.657710   152A      1.686563
     153A      1.691323   154A      1.694677   155A      1.713918
     156A      1.745751   157A      1.764093   158A      1.778723
     159A      1.798342   160A      1.815907   161A      1.830200
     162A      1.835890   163A      1.868874   164A      1.879074
     165A      1.883082   166A      1.888824   167A      1.893588
     168A      1.906997   169A      1.912818   170A      1.923674
     171A      1.933492   172A      1.940356   173A      1.944054
     174A      1.952440   175A      1.960991   176A      1.967199
     177A      1.975511   178A      1.981182   179A      1.996649
     180A      2.003401   181A      2.017915   182A      2.035448
     183A      2.045355   184A      2.082034   185A      2.087265
     186A      2.101283   187A      2.104464   188A      2.109902
     189A      2.123223   190A      2.141958   191A      2.145772
     192A      2.153346   193A      2.154594   194A      2.170507
     195A      2.190428   196A      2.224109   197A      2.228491
     198A      2.296945   199A      2.306063   200A      2.319165
     201A      2.322928   202A      2.325200   203A      2.333100
     204A      2.352559   205A      2.396568   206A      2.440717
     207A      2.449450   208A      2.456438   209A      2.469536
     210A      2.475438   211A      2.539265   212A      2.552879
     213A      2.582984   214A      2.595333   215A      2.611671
     216A      2.655098   217A      2.663355   218A      2.688356
     219A      2.708718   220A      2.761673   221A      2.768928
     222A      2.779137   223A      2.788383   224A      2.795952
     225A      2.806289   226A      2.826869   227A      2.857512
     228A      2.871346   229A      2.872626   230A      2.876338
     231A      2.911616   232A      2.949345   233A      2.970926
     234A      2.992667   235A      3.046264   236A      3.082344
     237A      3.104086   238A      3.142293   239A      3.215620
     240A      3.324581   241A      3.394887   242A      3.747482
     243A      3.969976

    Final Occupation by Irrep:
              A
    DOCC [    44 ]

  @RHF Final Energy:  -479.76854641164869

   => Energetics <=

    Nuclear Repulsion Energy =            664.8979884451842963
    One-Electron Energy =               -1967.7943963899626851
    Two-Electron Energy =                 823.1278615331295896
    Total Energy =                       -479.7685464116486855

Computation Completed

Properties will be evaluated at   0.000000,   0.000000,   0.000000 [a0]

Properties computed using the SCF density matrix

  Nuclear Dipole Moment: [e a0]
     X:    -8.1245      Y:    -0.8725      Z:    11.2293

  Electronic Dipole Moment: [e a0]
     X:     7.5491      Y:     1.1882      Z:   -11.5758

  Dipole Moment: [e a0]
     X:    -0.5754      Y:     0.3157      Z:    -0.3464     Total:     0.7421

  Dipole Moment: [D]
     X:    -1.4625      Y:     0.8024      Z:    -0.8806     Total:     1.8863

*** tstop() called on ds3 at Tue Apr 28 03:31:25 2020
Module time:
	user time   =     187.90 seconds =       3.13 minutes
	system time =      71.96 seconds =       1.20 minutes
	total time  =        253 seconds =       4.22 minutes
Total time:
	user time   =     187.90 seconds =       3.13 minutes
	system time =      71.96 seconds =       1.20 minutes
	total time  =        253 seconds =       4.22 minutes
                                     G D M A

                                 by Anthony Stone

                           version 2.2.06, 22 June 2011

               Distributed Multipoles from Gaussian wavefunctions

Starting at 3:31:25 on 28 Apr 2020

Using SCF density matrix from file ./SSI/SSI-058ILE-097TRP-1-dimer.test.10129.fchk

                         Distributed Multipole Analysis

Standard DMA

Positions and radii in angstrom
Multipole moments in atomic units, ea_0^k for rank k

C          x = -2.099559  y =  0.333705  z =  2.396412 angstrom
           Maximum rank =  0   Radius =  0.650 angstrom
                   Q00  =  -0.240010

C          x = -1.853559  y =  1.412705  z =  3.496412 angstrom
           Maximum rank =  0   Radius =  0.650 angstrom
                   Q00  =  -0.250964

H          x = -3.168559  y =  0.200705  z =  2.225412 angstrom
           Maximum rank =  0   Radius =  0.325 angstrom
                   Q00  =   0.070717

H          x = -1.636559  y =  0.640705  z =  1.461412 angstrom
           Maximum rank =  0   Radius =  0.325 angstrom
                   Q00  =   0.086921

H          x = -1.645559  y = -0.618295  z =  2.670412 angstrom
           Maximum rank =  0   Radius =  0.325 angstrom
                   Q00  =   0.084244

H          x = -0.782559  y =  1.397705  z =  3.715412 angstrom
           Maximum rank =  0   Radius =  0.325 angstrom
                   Q00  =   0.080521

H          x = -2.378119  y =  1.178535  z =  4.434502 angstrom
           Maximum rank =  0   Radius =  0.325 angstrom
                   Q00  =   0.079037

H          x = -2.112199  y =  2.428635  z =  3.163262 angstrom
           Maximum rank =  0   Radius =  0.325 angstrom
                   Q00  =   0.079432

C          x = -0.957559  y = -2.792295  z = -0.676588 angstrom
           Maximum rank =  0   Radius =  0.650 angstrom
                   Q00  =  -0.203718

C          x = -1.599559  y = -0.413295  z = -1.293588 angstrom
           Maximum rank =  0   Radius =  0.650 angstrom
                   Q00  =   0.072493

C          x = -0.721559  y = -1.336295  z = -0.845588 angstrom
           Maximum rank =  0   Radius =  0.650 angstrom
                   Q00  =  -0.110594

C          x =  0.299441  y =  0.717705  z = -0.900588 angstrom
           Maximum rank =  0   Radius =  0.650 angstrom
                   Q00  =   0.250587

C          x =  0.507441  y = -0.635295  z = -0.564588 angstrom
           Maximum rank =  0   Radius =  0.650 angstrom
                   Q00  =  -0.059983

C          x =  1.286441  y =  1.679705  z = -0.741588 angstrom
           Maximum rank =  0   Radius =  0.650 angstrom
                   Q00  =  -0.116927

C          x =  1.766441  y = -1.033295  z = -0.107588 angstrom
           Maximum rank =  0   Radius =  0.650 angstrom
                   Q00  =  -0.096049

C          x =  2.508441  y =  1.264705  z = -0.272588 angstrom
           Maximum rank =  0   Radius =  0.650 angstrom
                   Q00  =  -0.001210

C          x =  2.753441  y = -0.074295  z =  0.046412 angstrom
           Maximum rank =  0   Radius =  0.650 angstrom
                   Q00  =  -0.099782

N          x = -0.995559  y =  0.817705  z = -1.321588 angstrom
           Maximum rank =  0   Radius =  0.650 angstrom
                   Q00  =  -0.504511

H          x = -2.621559  y = -0.597295  z = -1.598588 angstrom
           Maximum rank =  0   Radius =  0.325 angstrom
                   Q00  =   0.101757

H          x = -1.465559  y =  1.683705  z = -1.602588 angstrom
           Maximum rank =  0   Radius =  0.325 angstrom
                   Q00  =   0.216371

H          x = -0.821559  y = -3.034295  z =  0.377412 angstrom
           Maximum rank =  0   Radius =  0.325 angstrom
                   Q00  =   0.095062

H          x = -0.187559  y = -3.319295  z = -1.240588 angstrom
           Maximum rank =  0   Radius =  0.325 angstrom
                   Q00  =   0.096379

H          x =  1.098441  y =  2.712705  z = -0.994588 angstrom
           Maximum rank =  0   Radius =  0.325 angstrom
                   Q00  =   0.071129

H          x =  1.955441  y = -2.069295  z =  0.132412 angstrom
           Maximum rank =  0   Radius =  0.325 angstrom
                   Q00  =   0.070855

H          x =  3.304441  y =  1.987705  z = -0.156588 angstrom
           Maximum rank =  0   Radius =  0.325 angstrom
                   Q00  =   0.062966

H          x =  3.734441  y = -0.368295  z =  0.396412 angstrom
           Maximum rank =  0   Radius =  0.325 angstrom
                   Q00  =   0.059548

H          x = -1.942429  y = -3.151805  z = -1.009438 angstrom
           Maximum rank =  0   Radius =  0.325 angstrom
                   Q00  =   0.105731

Total multipoles referred to origin at
           x =   0.000000,  y =    0.000000,  z =    0.000000 angstrom
                   Q00  =  -0.000000

Finished at 3:31:25 on 28 Apr 2020

  DMA results are available in the Python driver through the
	  variable('DMA DISTRIBUTED MULTIPOLES')
  and
	  variable('DMA TOTAL MULTIPOLES')
  commands.

    Psi4 stopped on: Tuesday, 28 April 2020 03:31AM
    Psi4 wall time for execution: 0:04:12.82

*** Psi4 exiting successfully. Buy a developer a beer!
