                               Psi4 1.3.2 release

  ==> Input File <==

--------------------------------------------------------------------------
import numpy as np
set {scf_type pk
basis cc-pvdz
d_convergence 10
gdma_switch   0
gdma_limit    0
gdma_origin   [ 0.0,  0.0,  0.0 ]
}
molecule test {
    units Angstrom
    0 1
    --
    0 1
    C                1.807708064756452    -3.033232032947198    -1.003556695820843
    C                0.571708064756452     0.110767967052802     0.703443304179157
    C                1.026708064756452    -1.178232032947198     0.499443304179157
    C                0.378708064756452     0.971767967052802    -0.378556695820843
    C                1.307708064756452    -1.636232032947198    -0.781556695820843
    C                0.622708064756452     0.509767967052802    -1.672556695820843
    C                1.104708064756452    -0.777232032947198    -1.859556695820843
    O               -0.108291935243548     2.231767967052802    -0.145556695820843
    H                0.380708064756452     0.448767967052802     1.710443304179157
    H                1.183708064756452    -1.830232032947198     1.347443304179157
    H               -0.195291935243548     2.414767967052802     0.789443304179157
    H                0.475708064756452     1.174767967052802    -2.510556695820843
    H                2.691708064756452    -3.179232032947198    -0.381556695820843
    H                2.111708064756452    -3.154232032947198    -2.044556695820843
    H                1.322708064756452    -1.117232032947198    -2.864556695820843
    H                1.063828064756452    -3.801622032947198    -0.746225695820843
    C               -3.016291935243547     0.375767967052802     1.879443304179157
    C               -2.924291935243548     1.874767967052802     2.185443304179157
    H               -3.584291935243548     0.215767967052802     0.965443304179157
    H               -2.020291935243548    -0.038232032947198     1.731443304179157
    H               -3.499291935243547    -0.149232032947198     2.705443304179157
    H               -2.527291935243547     2.370767967052802     1.300443304179157
    H               -3.927591935243548     2.276377967052801     2.390598304179157
    H               -2.227891935243548     2.074867967052802     3.013086304179157

}
e, wfn = energy('scf', return_wfn=True)
gdma(wfn)
dmavals = variable('DMA DISTRIBUTED MULTIPOLES')
charges = np.array(dmavals)
print(charges)
np.save('SSI-165TYR-171VAL-1-dimer.npy', np.array(charges))--------------------------------------------------------------------------

*** tstart() called on ds3
*** at Tue Apr 28 07:57:13 2020

   => Loading Basis Set <=

    Name: CC-PVDZ
    Role: ORBITAL
    Keyword: BASIS
    atoms 1-7, 17-18  entry C          line   138 file /theoryfs2/ds/metcalf/miniconda2/envs/tf2gpu/share/psi4/basis/cc-pvdz.gbs
    atoms 8           entry O          line   198 file /theoryfs2/ds/metcalf/miniconda2/envs/tf2gpu/share/psi4/basis/cc-pvdz.gbs
    atoms 9-16, 19-24 entry H          line    22 file /theoryfs2/ds/metcalf/miniconda2/envs/tf2gpu/share/psi4/basis/cc-pvdz.gbs

         ---------------------------------------------------------
                                   SCF
               by Justin Turney, Rob Parrish, Andy Simmonett
                          and Daniel G. A. Smith
                              RHF Reference
                        1 Threads,    500 MiB Core
         ---------------------------------------------------------

  ==> Geometry <==

    Molecular point group: c1
    Full point group: C1

    Geometry (in Angstrom), charge = 0, multiplicity = 1:

       Center              X                  Y                   Z               Mass
    ------------   -----------------  -----------------  -----------------  -----------------
         C            1.807708064756    -3.033232032947    -1.003556695821    12.000000000000
         C            0.571708064756     0.110767967053     0.703443304179    12.000000000000
         C            1.026708064756    -1.178232032947     0.499443304179    12.000000000000
         C            0.378708064756     0.971767967053    -0.378556695821    12.000000000000
         C            1.307708064756    -1.636232032947    -0.781556695821    12.000000000000
         C            0.622708064756     0.509767967053    -1.672556695821    12.000000000000
         C            1.104708064756    -0.777232032947    -1.859556695821    12.000000000000
         O           -0.108291935244     2.231767967053    -0.145556695821    15.994914619570
         H            0.380708064756     0.448767967053     1.710443304179     1.007825032230
         H            1.183708064756    -1.830232032947     1.347443304179     1.007825032230
         H           -0.195291935244     2.414767967053     0.789443304179     1.007825032230
         H            0.475708064756     1.174767967053    -2.510556695821     1.007825032230
         H            2.691708064756    -3.179232032947    -0.381556695821     1.007825032230
         H            2.111708064756    -3.154232032947    -2.044556695821     1.007825032230
         H            1.322708064756    -1.117232032947    -2.864556695821     1.007825032230
         H            1.063828064756    -3.801622032947    -0.746225695821     1.007825032230
         C           -3.016291935244     0.375767967053     1.879443304179    12.000000000000
         C           -2.924291935244     1.874767967053     2.185443304179    12.000000000000
         H           -3.584291935244     0.215767967053     0.965443304179     1.007825032230
         H           -2.020291935244    -0.038232032947     1.731443304179     1.007825032230
         H           -3.499291935244    -0.149232032947     2.705443304179     1.007825032230
         H           -2.527291935244     2.370767967053     1.300443304179     1.007825032230
         H           -3.927591935244     2.276377967053     2.390598304179     1.007825032230
         H           -2.227891935244     2.074867967053     3.013086304179     1.007825032230

  Running in c1 symmetry.

  Rotational constants: A =      0.06724  B =      0.02089  C =      0.01762 [cm^-1]
  Rotational constants: A =   2015.75471  B =    626.33386  C =    528.36249 [MHz]
  Nuclear repulsion =  497.914817354775266

  Charge       = 0
  Multiplicity = 1
  Electrons    = 76
  Nalpha       = 38
  Nbeta        = 38

  ==> Algorithm <==

  SCF Algorithm Type is PK.
  DIIS enabled.
  MOM disabled.
  Fractional occupation disabled.
  Guess Type is SAD.
  Energy threshold   = 1.00e-06
  Density threshold  = 1.00e-10
  Integral threshold = 0.00e+00

  ==> Primary Basis <==

  Basis Set: CC-PVDZ
    Blend: CC-PVDZ
    Number of shells: 102
    Number of basis function: 210
    Number of Cartesian functions: 220
    Spherical Harmonics?: true
    Max angular momentum: 2

  ==> Pre-Iterations <==

   -------------------------------------------------------
    Irrep   Nso     Nmo     Nalpha   Nbeta   Ndocc  Nsocc
   -------------------------------------------------------
     A        210     210       0       0       0       0
   -------------------------------------------------------
    Total     210     210      38      38      38       0
   -------------------------------------------------------

  ==> Integral Setup <==

  Using integral reordering PK algorithm.
  Sizing the integral batches needed.
  Building batch lookup table.
   Calculation information:
      Number of atoms:                  24
      Number of AO shells:             102
      Number of primitives:            290
      Number of atomic orbitals:       220
      Number of basis functions:       210

      Integral cutoff                 1.00e-12
      Number of threads:                 1

	Batch   1 pq = [       0,    9405] index = [             0,44231715] size =     44231715
	Batch   2 pq = [    9405,   13301] index = [      44231715,88464951] size =     44233236
	Batch   3 pq = [   13301,   16290] index = [      88464951,132690195] size =     44225244
	Batch   4 pq = [   16290,   18810] index = [     132690195,176917455] size =     44227260
	Batch   5 pq = [   18810,   21030] index = [     176917455,221140965] size =     44223510
	Batch   6 pq = [   21030,   22155] index = [     221140965,245433090] size =     24292125
  Task number: 23
  Buffer size: 11059200
  Buffer per thread: 2
  We computed 11729935 shell quartets total.
  Whereas there are 13799631 unique shell quartets.

  ==> DiskJK: Disk-Based J/K Matrices <==

    J tasked:                  Yes
    K tasked:                  Yes
    wK tasked:                  No
    Memory [MiB]:              375
    Schwarz Cutoff:          1E-12

    OpenMP threads:              1

  Minimum eigenvalue in the overlap matrix is 3.2159872891E-04.
  Using Symmetric Orthogonalization.

  SCF Guess: Superposition of Atomic Densities via on-the-fly atomic UHF.

  ==> Iterations <==

                        Total Energy        Delta E     RMS |[F,P]|

   @RHF iter SAD:  -422.71840073840190   -4.22718e+02   0.00000e+00
   @RHF iter   1:  -423.60134448790757   -8.82944e-01   2.98581e-03 DIIS
   @RHF iter   2:  -423.81789570770161   -2.16551e-01   1.26438e-03 DIIS
   @RHF iter   3:  -423.85320485351491   -3.53091e-02   2.87411e-04 DIIS
   @RHF iter   4:  -423.85608634030649   -2.88149e-03   1.21580e-04 DIIS
   @RHF iter   5:  -423.85646682192646   -3.80482e-04   2.04009e-05 DIIS
   @RHF iter   6:  -423.85648401875034   -1.71968e-05   6.29325e-06 DIIS
   @RHF iter   7:  -423.85648557613160   -1.55738e-06   1.96596e-06 DIIS
   @RHF iter   8:  -423.85648576836707   -1.92235e-07   7.33335e-07 DIIS
   @RHF iter   9:  -423.85648579277733   -2.44103e-08   2.29959e-07 DIIS
   @RHF iter  10:  -423.85648579569340   -2.91607e-09   7.42389e-08 DIIS
   @RHF iter  11:  -423.85648579619323   -4.99824e-10   3.07739e-08 DIIS
   @RHF iter  12:  -423.85648579630873   -1.15506e-10   1.84947e-08 DIIS
   @RHF iter  13:  -423.85648579634557   -3.68345e-11   6.77428e-09 DIIS
   @RHF iter  14:  -423.85648579635341   -7.84439e-12   1.98642e-09 DIIS
   @RHF iter  15:  -423.85648579635256    8.52651e-13   6.57782e-10 DIIS
   @RHF iter  16:  -423.85648579635188    6.82121e-13   2.18300e-10 DIIS
   @RHF iter  17:  -423.85648579635256   -6.82121e-13   9.79930e-11 DIIS
  Energy and wave function converged.

  ==> Post-Iterations <==

    Orbital Energies [Eh]
    ---------------------

    Doubly Occupied:

       1A    -20.583874     2A    -11.301165     3A    -11.237786
       4A    -11.237405     5A    -11.233411     6A    -11.232646
       7A    -11.231739     8A    -11.228074     9A    -11.222714
      10A    -11.215690    11A     -1.398521    12A     -1.153944
      13A     -1.039185    14A     -1.021335    15A     -1.018554
      16A     -0.927007    17A     -0.843931    18A     -0.838802
      19A     -0.804452    20A     -0.733415    21A     -0.669905
      22A     -0.643077    23A     -0.609170    24A     -0.602996
      25A     -0.598822    26A     -0.588130    27A     -0.583235
      28A     -0.570901    29A     -0.566249    30A     -0.527815
      31A     -0.501302    32A     -0.500047    33A     -0.490470
      34A     -0.486072    35A     -0.483848    36A     -0.467407
      37A     -0.341150    38A     -0.301829

    Virtual:

      39A      0.130485    40A      0.152593    41A      0.162752
      42A      0.185907    43A      0.214630    44A      0.215888
      45A      0.217813    46A      0.247093    47A      0.255167
      48A      0.257147    49A      0.267245    50A      0.270559
      51A      0.277959    52A      0.293743    53A      0.310801
      54A      0.319600    55A      0.370894    56A      0.379116
      57A      0.396653    58A      0.427288    59A      0.453384
      60A      0.483593    61A      0.497866    62A      0.513063
      63A      0.587152    64A      0.598978    65A      0.605411
      66A      0.618173    67A      0.627941    68A      0.651626
      69A      0.657140    70A      0.666671    71A      0.690558
      72A      0.703142    73A      0.712540    74A      0.715304
      75A      0.731196    76A      0.741758    77A      0.755624
      78A      0.775857    79A      0.779512    80A      0.786962
      81A      0.810159    82A      0.833182    83A      0.839236
      84A      0.855230    85A      0.866227    86A      0.872047
      87A      0.884877    88A      0.888444    89A      0.894853
      90A      0.896590    91A      0.902764    92A      0.915269
      93A      0.928733    94A      0.933642    95A      0.940816
      96A      0.948051    97A      0.955280    98A      0.961779
      99A      1.000568   100A      1.031523   101A      1.039748
     102A      1.073179   103A      1.119439   104A      1.122280
     105A      1.127467   106A      1.144200   107A      1.151597
     108A      1.167307   109A      1.209482   110A      1.241119
     111A      1.244157   112A      1.256716   113A      1.275072
     114A      1.302019   115A      1.307567   116A      1.326956
     117A      1.338116   118A      1.360611   119A      1.377419
     120A      1.396011   121A      1.467530   122A      1.476732
     123A      1.502063   124A      1.506334   125A      1.526868
     126A      1.556123   127A      1.570539   128A      1.622272
     129A      1.630155   130A      1.680664   131A      1.685876
     132A      1.687388   133A      1.697271   134A      1.737285
     135A      1.746952   136A      1.784189   137A      1.799529
     138A      1.808626   139A      1.859722   140A      1.875121
     141A      1.878256   142A      1.887644   143A      1.889709
     144A      1.905543   145A      1.907206   146A      1.917593
     147A      1.925651   148A      1.939199   149A      1.942088
     150A      1.953582   151A      1.955321   152A      1.959753
     153A      1.969885   154A      1.978121   155A      1.985405
     156A      2.006199   157A      2.023797   158A      2.046123
     159A      2.065545   160A      2.071478   161A      2.075333
     162A      2.096077   163A      2.122369   164A      2.124601
     165A      2.151467   166A      2.187362   167A      2.198850
     168A      2.220592   169A      2.258785   170A      2.273067
     171A      2.295817   172A      2.303319   173A      2.323813
     174A      2.361341   175A      2.378088   176A      2.397397
     177A      2.445258   178A      2.468615   179A      2.474293
     180A      2.484359   181A      2.513667   182A      2.526340
     183A      2.540771   184A      2.563127   185A      2.576394
     186A      2.615123   187A      2.649053   188A      2.741220
     189A      2.764621   190A      2.770334   191A      2.789150
     192A      2.806619   193A      2.809939   194A      2.845411
     195A      2.850315   196A      2.860961   197A      2.893471
     198A      2.951881   199A      2.960710   200A      2.978305
     201A      3.005381   202A      3.090677   203A      3.131230
     204A      3.250667   205A      3.289639   206A      3.349892
     207A      3.571866   208A      3.666879   209A      3.983834
     210A      4.197403

    Final Occupation by Irrep:
              A
    DOCC [    38 ]

  @RHF Final Energy:  -423.85648579635256

   => Energetics <=

    Nuclear Repulsion Energy =            497.9148173547752663
    One-Electron Energy =               -1561.4704589784075779
    Two-Electron Energy =                 639.6991558272796965
    Total Energy =                       -423.8564857963525583

Computation Completed

Properties will be evaluated at   0.000000,   0.000000,   0.000000 [a0]

Properties computed using the SCF density matrix

  Nuclear Dipole Moment: [e a0]
     X:    -8.2051      Y:    -2.1398      Z:     6.9425

  Electronic Dipole Moment: [e a0]
     X:     8.3320      Y:     1.8173      Z:    -6.5129

  Dipole Moment: [e a0]
     X:     0.1269      Y:    -0.3224      Z:     0.4296     Total:     0.5519

  Dipole Moment: [D]
     X:     0.3226      Y:    -0.8195      Z:     1.0920     Total:     1.4029

*** tstop() called on ds3 at Tue Apr 28 08:00:19 2020
Module time:
	user time   =      88.69 seconds =       1.48 minutes
	system time =      35.69 seconds =       0.59 minutes
	total time  =        186 seconds =       3.10 minutes
Total time:
	user time   =      88.69 seconds =       1.48 minutes
	system time =      35.69 seconds =       0.59 minutes
	total time  =        186 seconds =       3.10 minutes
                                     G D M A

                                 by Anthony Stone

                           version 2.2.06, 22 June 2011

               Distributed Multipoles from Gaussian wavefunctions

Starting at 8:0:19 on 28 Apr 2020

Using SCF density matrix from file ./SSI/SSI-165TYR-171VAL-1-dimer.test.7950.fchk

                         Distributed Multipole Analysis

Standard DMA

Positions and radii in angstrom
Multipole moments in atomic units, ea_0^k for rank k

C          x =  1.807708  y = -3.033232  z = -1.003557 angstrom
           Maximum rank =  0   Radius =  0.650 angstrom
                   Q00  =  -0.191551

C          x =  0.571708  y =  0.110768  z =  0.703443 angstrom
           Maximum rank =  0   Radius =  0.650 angstrom
                   Q00  =  -0.168461

C          x =  1.026708  y = -1.178232  z =  0.499443 angstrom
           Maximum rank =  0   Radius =  0.650 angstrom
                   Q00  =  -0.055236

C          x =  0.378708  y =  0.971768  z = -0.378557 angstrom
           Maximum rank =  0   Radius =  0.650 angstrom
                   Q00  =   0.279086

C          x =  1.307708  y = -1.636232  z = -0.781557 angstrom
           Maximum rank =  0   Radius =  0.650 angstrom
                   Q00  =  -0.141231

C          x =  0.622708  y =  0.509768  z = -1.672557 angstrom
           Maximum rank =  0   Radius =  0.650 angstrom
                   Q00  =  -0.115266

C          x =  1.104708  y = -0.777232  z = -1.859557 angstrom
           Maximum rank =  0   Radius =  0.650 angstrom
                   Q00  =   0.064087

O          x = -0.108292  y =  2.231768  z = -0.145557 angstrom
           Maximum rank =  0   Radius =  0.650 angstrom
                   Q00  =  -0.650326

H          x =  0.380708  y =  0.448768  z =  1.710443 angstrom
           Maximum rank =  0   Radius =  0.325 angstrom
                   Q00  =   0.070764

H          x =  1.183708  y = -1.830232  z =  1.347443 angstrom
           Maximum rank =  0   Radius =  0.325 angstrom
                   Q00  =   0.066710

H          x = -0.195292  y =  2.414768  z =  0.789443 angstrom
           Maximum rank =  0   Radius =  0.325 angstrom
                   Q00  =   0.411044

H          x =  0.475708  y =  1.174768  z = -2.510557 angstrom
           Maximum rank =  0   Radius =  0.325 angstrom
                   Q00  =   0.081223

H          x =  2.691708  y = -3.179232  z = -0.381557 angstrom
           Maximum rank =  0   Radius =  0.325 angstrom
                   Q00  =   0.094862

H          x =  2.111708  y = -3.154232  z = -2.044557 angstrom
           Maximum rank =  0   Radius =  0.325 angstrom
                   Q00  =   0.096727

H          x =  1.322708  y = -1.117232  z = -2.864557 angstrom
           Maximum rank =  0   Radius =  0.325 angstrom
                   Q00  =   0.063858

H          x =  1.063828  y = -3.801622  z = -0.746226 angstrom
           Maximum rank =  0   Radius =  0.325 angstrom
                   Q00  =   0.099132

C          x = -3.016292  y =  0.375768  z =  1.879443 angstrom
           Maximum rank =  0   Radius =  0.650 angstrom
                   Q00  =  -0.241203

C          x = -2.924292  y =  1.874768  z =  2.185443 angstrom
           Maximum rank =  0   Radius =  0.650 angstrom
                   Q00  =  -0.239073

H          x = -3.584292  y =  0.215768  z =  0.965443 angstrom
           Maximum rank =  0   Radius =  0.325 angstrom
                   Q00  =   0.085763

H          x = -2.020292  y = -0.038232  z =  1.731443 angstrom
           Maximum rank =  0   Radius =  0.325 angstrom
                   Q00  =   0.086501

H          x = -3.499292  y = -0.149232  z =  2.705443 angstrom
           Maximum rank =  0   Radius =  0.325 angstrom
                   Q00  =   0.075423

H          x = -2.527292  y =  2.370768  z =  1.300443 angstrom
           Maximum rank =  0   Radius =  0.325 angstrom
                   Q00  =   0.071572

H          x = -3.927592  y =  2.276378  z =  2.390598 angstrom
           Maximum rank =  0   Radius =  0.325 angstrom
                   Q00  =   0.086460

H          x = -2.227892  y =  2.074868  z =  3.013086 angstrom
           Maximum rank =  0   Radius =  0.325 angstrom
                   Q00  =   0.069133

Total multipoles referred to origin at
           x =   0.000000,  y =    0.000000,  z =    0.000000 angstrom
                   Q00  =  -0.000000

Finished at 8:0:19 on 28 Apr 2020

  DMA results are available in the Python driver through the
	  variable('DMA DISTRIBUTED MULTIPOLES')
  and
	  variable('DMA TOTAL MULTIPOLES')
  commands.

    Psi4 stopped on: Tuesday, 28 April 2020 08:00AM
    Psi4 wall time for execution: 0:03:06.22

*** Psi4 exiting successfully. Buy a developer a beer!
