                               Psi4 1.3.2 release

  ==> Input File <==

--------------------------------------------------------------------------
import numpy as np
set {scf_type pk
basis cc-pvdz
d_convergence 10
gdma_switch   0
gdma_limit    0
gdma_origin   [ 0.0,  0.0,  0.0 ]
}
molecule test {
    units Angstrom
    0 1
    --
    0 1
    C               -2.467786167926949    -0.887364457684333     1.351709201571982
    C               -2.584786167926949    -1.605364457684333     2.693709201571982
    H               -1.519786167926948    -0.353364457684333     1.291709201571982
    H               -2.529786167926948    -1.611364457684333     0.538709201571982
    H               -3.285786167926949    -0.173364457684333     1.246709201571982
    H               -3.543786167926949    -2.121364457684333     2.741709201571982
    H               -2.496996167926948    -0.893074457684333     3.527339201571982
    H               -1.760396167926949    -2.327494457684333     2.788109201571982
    C                3.085213832073051     0.591635542315667     1.139709201571982
    C               -0.436786167926949     0.257635542315667    -1.327290798428018
    C                0.262213832073051    -0.872364457684333    -0.910290798428018
    C                0.078213832073051     1.505635542315667    -1.022290798428019
    C                1.423213832073051    -0.753364457684333    -0.151290798428018
    C                1.184213832073052     1.637635542315667    -0.179290798428018
    C                1.896213832073051     0.482635542315667     0.230709201571982
    O               -1.584786167926949     0.046635542315667    -2.114290798428018
    H               -0.098786167926949    -1.857364457684333    -1.173290798428018
    H               -1.779786167926949    -0.888364457684333    -2.229290798428019
    H               -0.448786167926949     2.379635542315667    -1.370290798428018
    H                1.925213832073051    -1.653364457684333     0.165709201571982
    H                1.528213832073052     2.621635542315667     0.113709201571982
    H                2.775213832073052     0.263635542315667     2.130709201571982
    H                3.383213832073051     1.637635542315667     1.218709201571982
    H                3.951983832073052    -0.010964457684333     0.830559201571982

}
e, wfn = energy('scf', return_wfn=True)
gdma(wfn)
dmavals = variable('DMA DISTRIBUTED MULTIPOLES')
charges = np.array(dmavals)
print(charges)
np.save('SSI-126THR-197TYR-1-dimer.npy', np.array(charges))--------------------------------------------------------------------------

*** tstart() called on ds3
*** at Mon Apr 27 23:11:14 2020

   => Loading Basis Set <=

    Name: CC-PVDZ
    Role: ORBITAL
    Keyword: BASIS
    atoms 1-2, 9-15  entry C          line   138 file /theoryfs2/ds/metcalf/miniconda2/envs/tf2gpu/share/psi4/basis/cc-pvdz.gbs
    atoms 3-8, 17-24 entry H          line    22 file /theoryfs2/ds/metcalf/miniconda2/envs/tf2gpu/share/psi4/basis/cc-pvdz.gbs
    atoms 16         entry O          line   198 file /theoryfs2/ds/metcalf/miniconda2/envs/tf2gpu/share/psi4/basis/cc-pvdz.gbs

         ---------------------------------------------------------
                                   SCF
               by Justin Turney, Rob Parrish, Andy Simmonett
                          and Daniel G. A. Smith
                              RHF Reference
                        1 Threads,    500 MiB Core
         ---------------------------------------------------------

  ==> Geometry <==

    Molecular point group: c1
    Full point group: C1

    Geometry (in Angstrom), charge = 0, multiplicity = 1:

       Center              X                  Y                   Z               Mass
    ------------   -----------------  -----------------  -----------------  -----------------
         C           -2.467786167927    -0.887364457684     1.351709201572    12.000000000000
         C           -2.584786167927    -1.605364457684     2.693709201572    12.000000000000
         H           -1.519786167927    -0.353364457684     1.291709201572     1.007825032230
         H           -2.529786167927    -1.611364457684     0.538709201572     1.007825032230
         H           -3.285786167927    -0.173364457684     1.246709201572     1.007825032230
         H           -3.543786167927    -2.121364457684     2.741709201572     1.007825032230
         H           -2.496996167927    -0.893074457684     3.527339201572     1.007825032230
         H           -1.760396167927    -2.327494457684     2.788109201572     1.007825032230
         C            3.085213832073     0.591635542316     1.139709201572    12.000000000000
         C           -0.436786167927     0.257635542316    -1.327290798428    12.000000000000
         C            0.262213832073    -0.872364457684    -0.910290798428    12.000000000000
         C            0.078213832073     1.505635542316    -1.022290798428    12.000000000000
         C            1.423213832073    -0.753364457684    -0.151290798428    12.000000000000
         C            1.184213832073     1.637635542316    -0.179290798428    12.000000000000
         C            1.896213832073     0.482635542316     0.230709201572    12.000000000000
         O           -1.584786167927     0.046635542316    -2.114290798428    15.994914619570
         H           -0.098786167927    -1.857364457684    -1.173290798428     1.007825032230
         H           -1.779786167927    -0.888364457684    -2.229290798428     1.007825032230
         H           -0.448786167927     2.379635542316    -1.370290798428     1.007825032230
         H            1.925213832073    -1.653364457684     0.165709201572     1.007825032230
         H            1.528213832073     2.621635542316     0.113709201572     1.007825032230
         H            2.775213832073     0.263635542316     2.130709201572     1.007825032230
         H            3.383213832073     1.637635542316     1.218709201572     1.007825032230
         H            3.951983832073    -0.010964457684     0.830559201572     1.007825032230

  Running in c1 symmetry.

  Rotational constants: A =      0.04481  B =      0.02659  C =      0.01991 [cm^-1]
  Rotational constants: A =   1343.26773  B =    797.22616  C =    596.76834 [MHz]
  Nuclear repulsion =  500.849696837255806

  Charge       = 0
  Multiplicity = 1
  Electrons    = 76
  Nalpha       = 38
  Nbeta        = 38

  ==> Algorithm <==

  SCF Algorithm Type is PK.
  DIIS enabled.
  MOM disabled.
  Fractional occupation disabled.
  Guess Type is SAD.
  Energy threshold   = 1.00e-06
  Density threshold  = 1.00e-10
  Integral threshold = 0.00e+00

  ==> Primary Basis <==

  Basis Set: CC-PVDZ
    Blend: CC-PVDZ
    Number of shells: 102
    Number of basis function: 210
    Number of Cartesian functions: 220
    Spherical Harmonics?: true
    Max angular momentum: 2

  ==> Pre-Iterations <==

   -------------------------------------------------------
    Irrep   Nso     Nmo     Nalpha   Nbeta   Ndocc  Nsocc
   -------------------------------------------------------
     A        210     210       0       0       0       0
   -------------------------------------------------------
    Total     210     210      38      38      38       0
   -------------------------------------------------------

  ==> Integral Setup <==

  Using integral reordering PK algorithm.
  Sizing the integral batches needed.
  Building batch lookup table.
   Calculation information:
      Number of atoms:                  24
      Number of AO shells:             102
      Number of primitives:            290
      Number of atomic orbitals:       220
      Number of basis functions:       210

      Integral cutoff                 1.00e-12
      Number of threads:                 1

	Batch   1 pq = [       0,    9405] index = [             0,44231715] size =     44231715
	Batch   2 pq = [    9405,   13301] index = [      44231715,88464951] size =     44233236
	Batch   3 pq = [   13301,   16290] index = [      88464951,132690195] size =     44225244
	Batch   4 pq = [   16290,   18810] index = [     132690195,176917455] size =     44227260
	Batch   5 pq = [   18810,   21030] index = [     176917455,221140965] size =     44223510
	Batch   6 pq = [   21030,   22155] index = [     221140965,245433090] size =     24292125
  Task number: 23
  Buffer size: 11059200
  Buffer per thread: 2
  We computed 12330115 shell quartets total.
  Whereas there are 13799631 unique shell quartets.

  ==> DiskJK: Disk-Based J/K Matrices <==

    J tasked:                  Yes
    K tasked:                  Yes
    wK tasked:                  No
    Memory [MiB]:              375
    Schwarz Cutoff:          1E-12

    OpenMP threads:              1

  Minimum eigenvalue in the overlap matrix is 3.5261295762E-04.
  Using Symmetric Orthogonalization.

  SCF Guess: Superposition of Atomic Densities via on-the-fly atomic UHF.

  ==> Iterations <==

                        Total Energy        Delta E     RMS |[F,P]|

   @RHF iter SAD:  -422.61338952861786   -4.22613e+02   0.00000e+00
   @RHF iter   1:  -423.59484228256139   -9.81453e-01   2.98352e-03 DIIS
   @RHF iter   2:  -423.81066023733479   -2.15818e-01   1.27025e-03 DIIS
   @RHF iter   3:  -423.84584113068900   -3.51809e-02   2.88793e-04 DIIS
   @RHF iter   4:  -423.84873783497818   -2.89670e-03   1.22873e-04 DIIS
   @RHF iter   5:  -423.84912206603872   -3.84231e-04   2.06942e-05 DIIS
   @RHF iter   6:  -423.84913966668671   -1.76006e-05   6.45943e-06 DIIS
   @RHF iter   7:  -423.84914131932868   -1.65264e-06   2.07280e-06 DIIS
   @RHF iter   8:  -423.84914152921726   -2.09889e-07   7.68469e-07 DIIS
   @RHF iter   9:  -423.84914155628752   -2.70703e-08   2.31811e-07 DIIS
   @RHF iter  10:  -423.84914155932671   -3.03919e-09   7.45034e-08 DIIS
   @RHF iter  11:  -423.84914155980869   -4.81975e-10   3.25171e-08 DIIS
   @RHF iter  12:  -423.84914155991618   -1.07491e-10   1.64669e-08 DIIS
   @RHF iter  13:  -423.84914155995449   -3.83125e-11   7.15044e-09 DIIS
   @RHF iter  14:  -423.84914155995875   -4.26326e-12   2.28368e-09 DIIS
   @RHF iter  15:  -423.84914155995853    2.27374e-13   6.68617e-10 DIIS
   @RHF iter  16:  -423.84914155995972   -1.19371e-12   2.04780e-10 DIIS
   @RHF iter  17:  -423.84914155995972    0.00000e+00   8.35080e-11 DIIS
  Energy and wave function converged.

  ==> Post-Iterations <==

    Orbital Energies [Eh]
    ---------------------

    Doubly Occupied:

       1A    -20.578992     2A    -11.300121     3A    -11.244028
       4A    -11.238194     5A    -11.235998     6A    -11.235633
       7A    -11.234166     8A    -11.229712     9A    -11.215236
      10A    -11.209885    11A     -1.378677    12A     -1.153538
      13A     -1.042120    14A     -1.018149    15A     -1.013607
      16A     -0.928620    17A     -0.843160    18A     -0.830803
      19A     -0.799612    20A     -0.725446    21A     -0.666260
      22A     -0.642103    23A     -0.611707    24A     -0.596945
      25A     -0.591846    26A     -0.586477    27A     -0.580588
      28A     -0.565779    29A     -0.561931    30A     -0.530726
      31A     -0.501487    32A     -0.494208    33A     -0.485601
      34A     -0.482413    35A     -0.478420    36A     -0.465076
      37A     -0.339418    38A     -0.305699

    Virtual:

      39A      0.128454    40A      0.150863    41A      0.168536
      42A      0.182884    43A      0.200253    44A      0.214182
      45A      0.219702    46A      0.246648    47A      0.255798
      48A      0.262209    49A      0.267480    50A      0.274311
      51A      0.274432    52A      0.288576    53A      0.295931
      54A      0.307563    55A      0.366494    56A      0.370155
      57A      0.393757    58A      0.423658    59A      0.453779
      60A      0.479573    61A      0.493234    62A      0.503299
      63A      0.579002    64A      0.594211    65A      0.604661
      66A      0.611391    67A      0.622914    68A      0.642014
      69A      0.652511    70A      0.663515    71A      0.681097
      72A      0.692065    73A      0.706803    74A      0.732801
      75A      0.734955    76A      0.741242    77A      0.768074
      78A      0.771624    79A      0.778950    80A      0.784618
      81A      0.812159    82A      0.839416    83A      0.847878
      84A      0.860048    85A      0.876536    86A      0.884414
      87A      0.888841    88A      0.894207    89A      0.897925
      90A      0.900341    91A      0.908267    92A      0.918360
      93A      0.921244    94A      0.933072    95A      0.939534
      96A      0.945198    97A      0.956319    98A      0.984111
      99A      0.995647   100A      1.020831   101A      1.037533
     102A      1.075869   103A      1.107451   104A      1.130013
     105A      1.141269   106A      1.149248   107A      1.161157
     108A      1.176579   109A      1.205741   110A      1.233292
     111A      1.244349   112A      1.265740   113A      1.274051
     114A      1.287016   115A      1.290650   116A      1.309257
     117A      1.321525   118A      1.352332   119A      1.360212
     120A      1.395302   121A      1.475531   122A      1.477801
     123A      1.488182   124A      1.509361   125A      1.533545
     126A      1.555633   127A      1.585598   128A      1.615468
     129A      1.633028   130A      1.667423   131A      1.683863
     132A      1.693278   133A      1.702712   134A      1.737122
     135A      1.740382   136A      1.785688   137A      1.804480
     138A      1.821635   139A      1.854471   140A      1.870847
     141A      1.879481   142A      1.889943   143A      1.897352
     144A      1.899162   145A      1.909016   146A      1.920739
     147A      1.936730   148A      1.943545   149A      1.946895
     150A      1.949153   151A      1.955534   152A      1.963742
     153A      1.970394   154A      1.977544   155A      1.989802
     156A      2.018735   157A      2.035208   158A      2.042760
     159A      2.055542   160A      2.073476   161A      2.087565
     162A      2.101064   163A      2.106529   164A      2.116643
     165A      2.158227   166A      2.194303   167A      2.209235
     168A      2.216772   169A      2.254119   170A      2.271738
     171A      2.301228   172A      2.307423   173A      2.314979
     174A      2.349992   175A      2.387524   176A      2.397229
     177A      2.450181   178A      2.462389   179A      2.472496
     180A      2.477893   181A      2.494216   182A      2.532764
     183A      2.559285   184A      2.576203   185A      2.582249
     186A      2.609568   187A      2.649541   188A      2.736464
     189A      2.766023   190A      2.767170   191A      2.790571
     192A      2.802473   193A      2.807601   194A      2.841960
     195A      2.844278   196A      2.870574   197A      2.883519
     198A      2.947133   199A      2.969185   200A      2.985087
     201A      2.992792   202A      3.064151   203A      3.123995
     204A      3.238402   205A      3.284819   206A      3.333907
     207A      3.553845   208A      3.612425   209A      3.981646
     210A      4.168997

    Final Occupation by Irrep:
              A
    DOCC [    38 ]

  @RHF Final Energy:  -423.84914155995972

   => Energetics <=

    Nuclear Repulsion Energy =            500.8496968372558058
    One-Electron Energy =               -1567.5129118035551983
    Two-Electron Energy =                 642.8140734063397304
    Total Energy =                       -423.8491415599596621

Computation Completed

Properties will be evaluated at   0.000000,   0.000000,   0.000000 [a0]

Properties computed using the SCF density matrix

  Nuclear Dipole Moment: [e a0]
     X:    -3.6638      Y:    -4.6754      Z:    11.0715

  Electronic Dipole Moment: [e a0]
     X:     3.9826      Y:     4.2289      Z:   -10.8320

  Dipole Moment: [e a0]
     X:     0.3188      Y:    -0.4466      Z:     0.2395     Total:     0.5987

  Dipole Moment: [D]
     X:     0.8104      Y:    -1.1350      Z:     0.6086     Total:     1.5217

*** tstop() called on ds3 at Mon Apr 27 23:13:53 2020
Module time:
	user time   =     115.78 seconds =       1.93 minutes
	system time =      49.00 seconds =       0.82 minutes
	total time  =        159 seconds =       2.65 minutes
Total time:
	user time   =     115.78 seconds =       1.93 minutes
	system time =      49.00 seconds =       0.82 minutes
	total time  =        159 seconds =       2.65 minutes
                                     G D M A

                                 by Anthony Stone

                           version 2.2.06, 22 June 2011

               Distributed Multipoles from Gaussian wavefunctions

Starting at 23:13:53 on 27 Apr 2020

Using SCF density matrix from file ./SSI/SSI-126THR-197TYR-1-dimer.test.1514.fchk

                         Distributed Multipole Analysis

Standard DMA

Positions and radii in angstrom
Multipole moments in atomic units, ea_0^k for rank k

C          x = -2.467786  y = -0.887364  z =  1.351709 angstrom
           Maximum rank =  0   Radius =  0.650 angstrom
                   Q00  =  -0.229027

C          x = -2.584786  y = -1.605364  z =  2.693709 angstrom
           Maximum rank =  0   Radius =  0.650 angstrom
                   Q00  =  -0.236412

H          x = -1.519786  y = -0.353364  z =  1.291709 angstrom
           Maximum rank =  0   Radius =  0.325 angstrom
                   Q00  =   0.092084

H          x = -2.529786  y = -1.611364  z =  0.538709 angstrom
           Maximum rank =  0   Radius =  0.325 angstrom
                   Q00  =   0.061819

H          x = -3.285786  y = -0.173364  z =  1.246709 angstrom
           Maximum rank =  0   Radius =  0.325 angstrom
                   Q00  =   0.077653

H          x = -3.543786  y = -2.121364  z =  2.741709 angstrom
           Maximum rank =  0   Radius =  0.325 angstrom
                   Q00  =   0.076990

H          x = -2.496996  y = -0.893074  z =  3.527339 angstrom
           Maximum rank =  0   Radius =  0.325 angstrom
                   Q00  =   0.079244

H          x = -1.760396  y = -2.327494  z =  2.788109 angstrom
           Maximum rank =  0   Radius =  0.325 angstrom
                   Q00  =   0.072563

C          x =  3.085214  y =  0.591636  z =  1.139709 angstrom
           Maximum rank =  0   Radius =  0.650 angstrom
                   Q00  =  -0.202753

C          x = -0.436786  y =  0.257636  z = -1.327291 angstrom
           Maximum rank =  0   Radius =  0.650 angstrom
                   Q00  =   0.257401

C          x =  0.262214  y = -0.872364  z = -0.910291 angstrom
           Maximum rank =  0   Radius =  0.650 angstrom
                   Q00  =  -0.050177

C          x =  0.078214  y =  1.505636  z = -1.022291 angstrom
           Maximum rank =  0   Radius =  0.650 angstrom
                   Q00  =  -0.060123

C          x =  1.423214  y = -0.753364  z = -0.151291 angstrom
           Maximum rank =  0   Radius =  0.650 angstrom
                   Q00  =  -0.062002

C          x =  1.184214  y =  1.637636  z = -0.179291 angstrom
           Maximum rank =  0   Radius =  0.650 angstrom
                   Q00  =  -0.065000

C          x =  1.896214  y =  0.482636  z =  0.230709 angstrom
           Maximum rank =  0   Radius =  0.650 angstrom
                   Q00  =  -0.128461

O          x = -1.584786  y =  0.046636  z = -2.114291 angstrom
           Maximum rank =  0   Radius =  0.650 angstrom
                   Q00  =  -0.675826

H          x = -0.098786  y = -1.857364  z = -1.173291 angstrom
           Maximum rank =  0   Radius =  0.325 angstrom
                   Q00  =   0.067088

H          x = -1.779786  y = -0.888364  z = -2.229291 angstrom
           Maximum rank =  0   Radius =  0.325 angstrom
                   Q00  =   0.411472

H          x = -0.448786  y =  2.379636  z = -1.370291 angstrom
           Maximum rank =  0   Radius =  0.325 angstrom
                   Q00  =   0.082349

H          x =  1.925214  y = -1.653364  z =  0.165709 angstrom
           Maximum rank =  0   Radius =  0.325 angstrom
                   Q00  =   0.064498

H          x =  1.528214  y =  2.621636  z =  0.113709 angstrom
           Maximum rank =  0   Radius =  0.325 angstrom
                   Q00  =   0.071183

H          x =  2.775214  y =  0.263636  z =  2.130709 angstrom
           Maximum rank =  0   Radius =  0.325 angstrom
                   Q00  =   0.098695

H          x =  3.383214  y =  1.637636  z =  1.218709 angstrom
           Maximum rank =  0   Radius =  0.325 angstrom
                   Q00  =   0.096617

H          x =  3.951984  y = -0.010964  z =  0.830559 angstrom
           Maximum rank =  0   Radius =  0.325 angstrom
                   Q00  =   0.100123

Total multipoles referred to origin at
           x =   0.000000,  y =    0.000000,  z =    0.000000 angstrom
                   Q00  =  -0.000000

Finished at 23:13:53 on 27 Apr 2020

  DMA results are available in the Python driver through the
	  variable('DMA DISTRIBUTED MULTIPOLES')
  and
	  variable('DMA TOTAL MULTIPOLES')
  commands.

    Psi4 stopped on: Monday, 27 April 2020 11:13PM
    Psi4 wall time for execution: 0:02:38.66

*** Psi4 exiting successfully. Buy a developer a beer!
