                               Psi4 1.3.2 release

  ==> Input File <==

--------------------------------------------------------------------------
import numpy as np
set {scf_type pk
basis cc-pvdz
d_convergence 10
gdma_switch   0
gdma_limit    0
gdma_origin   [ 0.0,  0.0,  0.0 ]
}
molecule test {
    units Angstrom
    0 1
    --
    0 1
    C               -0.353354692071669     3.464084174672319    -1.093913572879713
    C                0.077645307928331     3.540084174672319    -2.555913572879713
    H               -1.295354692071669     2.927084174672319    -1.001913572879713
    H                0.404645307928331     2.921084174672319    -0.533913572879713
    H               -0.454354692071669     4.462084174672317    -0.676913572879713
    H                0.169645307928331     2.523084174672319    -2.935913572879714
    H               -0.649315692071669     4.089439174672319    -3.172143572879714
    H                1.060191307928331     4.028104174672318    -2.636163572879713
    C                1.817645307928331    -1.973915825327681    -0.872913572879713
    C               -0.694354692071669     0.340084174672319     0.794086427120287
    C               -1.296354692071669    -0.514915825327681     1.710086427120287
    C                0.312645307928331    -0.132915825327681    -0.042913572879713
    C                0.729645307928331    -1.457915825327681     0.033086427120287
    C               -0.891354692071669    -1.838915825327681     1.788086427120287
    C                0.113645307928331    -2.307915825327682     0.951086427120287
    H               -1.008354692071669     1.372084174672319     0.739086427120287
    H               -2.078354692071669    -0.176915825327681     2.368086427120287
    H                0.775645307928331     0.536084174672319    -0.753913572879713
    H               -1.362354692071669    -2.504915825327681     2.496086427120287
    H                2.265645307928331    -1.150915825327681    -1.431913572879713
    H                1.355645307928331    -2.647915825327681    -1.594913572879713
    H                0.400645307928331    -3.347915825327681     1.016086427120287
    H                2.609171307928331    -2.525759825327681    -0.344753572879713

}
e, wfn = energy('scf', return_wfn=True)
gdma(wfn)
dmavals = variable('DMA DISTRIBUTED MULTIPOLES')
charges = np.array(dmavals)
print(charges)
np.save('SSI-006LEU-323PHE-1-dimer.npy', np.array(charges))--------------------------------------------------------------------------

*** tstart() called on ds3
*** at Mon Apr 27 18:41:38 2020

   => Loading Basis Set <=

    Name: CC-PVDZ
    Role: ORBITAL
    Keyword: BASIS
    atoms 1-2, 9-15  entry C          line   138 file /theoryfs2/ds/metcalf/miniconda2/envs/tf2gpu/share/psi4/basis/cc-pvdz.gbs
    atoms 3-8, 16-23 entry H          line    22 file /theoryfs2/ds/metcalf/miniconda2/envs/tf2gpu/share/psi4/basis/cc-pvdz.gbs

         ---------------------------------------------------------
                                   SCF
               by Justin Turney, Rob Parrish, Andy Simmonett
                          and Daniel G. A. Smith
                              RHF Reference
                        1 Threads,    500 MiB Core
         ---------------------------------------------------------

  ==> Geometry <==

    Molecular point group: c1
    Full point group: C1

    Geometry (in Angstrom), charge = 0, multiplicity = 1:

       Center              X                  Y                   Z               Mass
    ------------   -----------------  -----------------  -----------------  -----------------
         C           -0.353354692072     3.464084174672    -1.093913572880    12.000000000000
         C            0.077645307928     3.540084174672    -2.555913572880    12.000000000000
         H           -1.295354692072     2.927084174672    -1.001913572880     1.007825032230
         H            0.404645307928     2.921084174672    -0.533913572880     1.007825032230
         H           -0.454354692072     4.462084174672    -0.676913572880     1.007825032230
         H            0.169645307928     2.523084174672    -2.935913572880     1.007825032230
         H           -0.649315692072     4.089439174672    -3.172143572880     1.007825032230
         H            1.060191307928     4.028104174672    -2.636163572880     1.007825032230
         C            1.817645307928    -1.973915825328    -0.872913572880    12.000000000000
         C           -0.694354692072     0.340084174672     0.794086427120    12.000000000000
         C           -1.296354692072    -0.514915825328     1.710086427120    12.000000000000
         C            0.312645307928    -0.132915825328    -0.042913572880    12.000000000000
         C            0.729645307928    -1.457915825328     0.033086427120    12.000000000000
         C           -0.891354692072    -1.838915825328     1.788086427120    12.000000000000
         C            0.113645307928    -2.307915825328     0.951086427120    12.000000000000
         H           -1.008354692072     1.372084174672     0.739086427120     1.007825032230
         H           -2.078354692072    -0.176915825328     2.368086427120     1.007825032230
         H            0.775645307928     0.536084174672    -0.753913572880     1.007825032230
         H           -1.362354692072    -2.504915825328     2.496086427120     1.007825032230
         H            2.265645307928    -1.150915825328    -1.431913572880     1.007825032230
         H            1.355645307928    -2.647915825328    -1.594913572880     1.007825032230
         H            0.400645307928    -3.347915825328     1.016086427120     1.007825032230
         H            2.609171307928    -2.525759825328    -0.344753572880     1.007825032230

  Running in c1 symmetry.

  Rotational constants: A =      0.07653  B =      0.02322  C =      0.01814 [cm^-1]
  Rotational constants: A =   2294.21241  B =    696.03019  C =    543.93833 [MHz]
  Nuclear repulsion =  403.061049891368100

  Charge       = 0
  Multiplicity = 1
  Electrons    = 68
  Nalpha       = 34
  Nbeta        = 34

  ==> Algorithm <==

  SCF Algorithm Type is PK.
  DIIS enabled.
  MOM disabled.
  Fractional occupation disabled.
  Guess Type is SAD.
  Energy threshold   = 1.00e-06
  Density threshold  = 1.00e-10
  Integral threshold = 0.00e+00

  ==> Primary Basis <==

  Basis Set: CC-PVDZ
    Blend: CC-PVDZ
    Number of shells: 96
    Number of basis function: 196
    Number of Cartesian functions: 205
    Spherical Harmonics?: true
    Max angular momentum: 2

  ==> Pre-Iterations <==

   -------------------------------------------------------
    Irrep   Nso     Nmo     Nalpha   Nbeta   Ndocc  Nsocc
   -------------------------------------------------------
     A        196     196       0       0       0       0
   -------------------------------------------------------
    Total     196     196      34      34      34       0
   -------------------------------------------------------

  ==> Integral Setup <==

  Using integral reordering PK algorithm.
  Sizing the integral batches needed.
  Building batch lookup table.
   Calculation information:
      Number of atoms:                  23
      Number of AO shells:              96
      Number of primitives:            268
      Number of atomic orbitals:       205
      Number of basis functions:       196

      Integral cutoff                 1.00e-12
      Number of threads:                 1

	Batch   1 pq = [       0,    9405] index = [             0,44231715] size =     44231715
	Batch   2 pq = [    9405,   13301] index = [      44231715,88464951] size =     44233236
	Batch   3 pq = [   13301,   16290] index = [      88464951,132690195] size =     44225244
	Batch   4 pq = [   16290,   18810] index = [     132690195,176917455] size =     44227260
	Batch   5 pq = [   18810,   19306] index = [     176917455,186370471] size =      9453016
  Task number: 17
  Buffer size: 11059200
  Buffer per thread: 2
  We computed 8917910 shell quartets total.
  Whereas there are 10841496 unique shell quartets.

  ==> DiskJK: Disk-Based J/K Matrices <==

    J tasked:                  Yes
    K tasked:                  Yes
    wK tasked:                  No
    Memory [MiB]:              375
    Schwarz Cutoff:          1E-12

    OpenMP threads:              1

  Minimum eigenvalue in the overlap matrix is 2.9704296953E-04.
  Using Symmetric Orthogonalization.

  SCF Guess: Superposition of Atomic Densities via on-the-fly atomic UHF.

  ==> Iterations <==

                        Total Energy        Delta E     RMS |[F,P]|

   @RHF iter SAD:  -347.91507228611215   -3.47915e+02   0.00000e+00
   @RHF iter   1:  -348.76672655129306   -8.51654e-01   2.89767e-03 DIIS
   @RHF iter   2:  -348.96015953516695   -1.93433e-01   1.19804e-03 DIIS
   @RHF iter   3:  -348.99023129488643   -3.00718e-02   2.59352e-04 DIIS
   @RHF iter   4:  -348.99272545207810   -2.49416e-03   5.25294e-05 DIIS
   @RHF iter   5:  -348.99279819733857   -7.27453e-05   1.79189e-05 DIIS
   @RHF iter   6:  -348.99280604439508   -7.84706e-06   4.78418e-06 DIIS
   @RHF iter   7:  -348.99280670639541   -6.62000e-07   1.27973e-06 DIIS
   @RHF iter   8:  -348.99280676159577   -5.52004e-08   3.15332e-07 DIIS
   @RHF iter   9:  -348.99280676884558   -7.24981e-09   1.33062e-07 DIIS
   @RHF iter  10:  -348.99280677051172   -1.66614e-09   6.34918e-08 DIIS
   @RHF iter  11:  -348.99280677107606   -5.64341e-10   2.25306e-08 DIIS
   @RHF iter  12:  -348.99280677114683   -7.07701e-11   8.93655e-09 DIIS
   @RHF iter  13:  -348.99280677115161   -4.77485e-12   3.64949e-09 DIIS
   @RHF iter  14:  -348.99280677115524   -3.63798e-12   8.75201e-10 DIIS
   @RHF iter  15:  -348.99280677115240    2.84217e-12   2.95914e-10 DIIS
   @RHF iter  16:  -348.99280677115490   -2.50111e-12   6.58656e-11 DIIS
  Energy and wave function converged.

  ==> Post-Iterations <==

    Orbital Energies [Eh]
    ---------------------

    Doubly Occupied:

       1A    -11.240290     2A    -11.233408     3A    -11.233055
       4A    -11.229440     5A    -11.229378     6A    -11.228690
       7A    -11.228184     8A    -11.221233     9A    -11.218598
      10A     -1.152705    11A     -1.043900    12A     -1.022336
      13A     -1.010865    14A     -0.931034    15A     -0.840561
      16A     -0.824038    17A     -0.795109    18A     -0.691204
      19A     -0.631194    20A     -0.629309    21A     -0.604555
      22A     -0.599734    23A     -0.580031    24A     -0.574875
      25A     -0.562378    26A     -0.536305    27A     -0.504085
      28A     -0.490344    29A     -0.488748    30A     -0.486456
      31A     -0.482373    32A     -0.479400    33A     -0.331710
      34A     -0.320945

    Virtual:

      35A      0.135801    36A      0.143571    37A      0.171794
      38A      0.195535    39A      0.202376    40A      0.226226
      41A      0.231521    42A      0.243705    43A      0.253012
      44A      0.266068    45A      0.267938    46A      0.271501
      47A      0.279806    48A      0.283870    49A      0.313292
      50A      0.345885    51A      0.370122    52A      0.391353
      53A      0.400321    54A      0.458298    55A      0.459102
      56A      0.479958    57A      0.496748    58A      0.557864
      59A      0.593672    60A      0.598255    61A      0.620176
      62A      0.626871    63A      0.636243    64A      0.673419
      65A      0.687614    66A      0.695005    67A      0.704887
      68A      0.715928    69A      0.728980    70A      0.740358
      71A      0.745005    72A      0.750658    73A      0.763912
      74A      0.775245    75A      0.792706    76A      0.811508
      77A      0.832447    78A      0.850085    79A      0.855407
      80A      0.867261    81A      0.878343    82A      0.881981
      83A      0.889651    84A      0.889966    85A      0.896715
      86A      0.909977    87A      0.912616    88A      0.931424
      89A      0.937163    90A      0.943844    91A      0.946493
      92A      0.965604    93A      0.983391    94A      1.015462
      95A      1.027464    96A      1.055706    97A      1.108987
      98A      1.122744    99A      1.135130   100A      1.156719
     101A      1.165765   102A      1.181504   103A      1.204058
     104A      1.228925   105A      1.247353   106A      1.252018
     107A      1.256052   108A      1.283570   109A      1.309355
     110A      1.316185   111A      1.328854   112A      1.346168
     113A      1.415512   114A      1.467312   115A      1.483586
     116A      1.505482   117A      1.524498   118A      1.560530
     119A      1.585955   120A      1.622905   121A      1.671858
     122A      1.683614   123A      1.693932   124A      1.705223
     125A      1.739271   126A      1.749211   127A      1.762472
     128A      1.791966   129A      1.817157   130A      1.855336
     131A      1.865675   132A      1.882239   133A      1.894447
     134A      1.899503   135A      1.903925   136A      1.915812
     137A      1.920015   138A      1.926920   139A      1.938025
     140A      1.944427   141A      1.947477   142A      1.951838
     143A      1.963721   144A      1.968802   145A      1.980367
     146A      1.984657   147A      1.995898   148A      2.006457
     149A      2.032012   150A      2.060223   151A      2.078913
     152A      2.094626   153A      2.109140   154A      2.131631
     155A      2.144678   156A      2.177740   157A      2.180832
     158A      2.189807   159A      2.204489   160A      2.254809
     161A      2.262607   162A      2.289072   163A      2.303735
     164A      2.307122   165A      2.320709   166A      2.335021
     167A      2.370250   168A      2.448023   169A      2.465464
     170A      2.468970   171A      2.493412   172A      2.514604
     173A      2.544338   174A      2.562595   175A      2.582489
     176A      2.637712   177A      2.737142   178A      2.754468
     179A      2.760394   180A      2.770578   181A      2.797342
     182A      2.804503   183A      2.832981   184A      2.849010
     185A      2.854418   186A      2.860923   187A      2.863955
     188A      2.955795   189A      2.969895   190A      2.990489
     191A      3.025514   192A      3.033227   193A      3.171210
     194A      3.215532   195A      3.311218   196A      3.978350

    Final Occupation by Irrep:
              A
    DOCC [    34 ]

  @RHF Final Energy:  -348.99280677115490

   => Energetics <=

    Nuclear Repulsion Energy =            403.0610498913680999
    One-Electron Energy =               -1268.7547755010089077
    Two-Electron Energy =                 516.7009188384857907
    Total Energy =                       -348.9928067711549602

Computation Completed

Properties will be evaluated at   0.000000,   0.000000,   0.000000 [a0]

Properties computed using the SCF density matrix

  Nuclear Dipole Moment: [e a0]
     X:     2.0560      Y:     9.8478      Z:    -7.9339

  Electronic Dipole Moment: [e a0]
     X:    -1.9860      Y:    -9.9013      Z:     7.8522

  Dipole Moment: [e a0]
     X:     0.0701      Y:    -0.0535      Z:    -0.0817     Total:     0.1201

  Dipole Moment: [D]
     X:     0.1781      Y:    -0.1359      Z:    -0.2076     Total:     0.3054

*** tstop() called on ds3 at Mon Apr 27 18:43:35 2020
Module time:
	user time   =      61.85 seconds =       1.03 minutes
	system time =      25.60 seconds =       0.43 minutes
	total time  =        117 seconds =       1.95 minutes
Total time:
	user time   =      61.85 seconds =       1.03 minutes
	system time =      25.60 seconds =       0.43 minutes
	total time  =        117 seconds =       1.95 minutes
                                     G D M A

                                 by Anthony Stone

                           version 2.2.06, 22 June 2011

               Distributed Multipoles from Gaussian wavefunctions

Starting at 18:43:35 on 27 Apr 2020

Using SCF density matrix from file ./SSI/SSI-006LEU-323PHE-1-dimer.test.27845.fchk

                         Distributed Multipole Analysis

Standard DMA

Positions and radii in angstrom
Multipole moments in atomic units, ea_0^k for rank k

C          x = -0.353355  y =  3.464084  z = -1.093914 angstrom
           Maximum rank =  0   Radius =  0.650 angstrom
                   Q00  =  -0.248859

C          x =  0.077645  y =  3.540084  z = -2.555914 angstrom
           Maximum rank =  0   Radius =  0.650 angstrom
                   Q00  =  -0.226610

H          x = -1.295355  y =  2.927084  z = -1.001914 angstrom
           Maximum rank =  0   Radius =  0.325 angstrom
                   Q00  =   0.078651

H          x =  0.404645  y =  2.921084  z = -0.533914 angstrom
           Maximum rank =  0   Radius =  0.325 angstrom
                   Q00  =   0.075873

H          x = -0.454355  y =  4.462084  z = -0.676914 angstrom
           Maximum rank =  0   Radius =  0.325 angstrom
                   Q00  =   0.082988

H          x =  0.169645  y =  2.523084  z = -2.935914 angstrom
           Maximum rank =  0   Radius =  0.325 angstrom
                   Q00  =   0.076622

H          x = -0.649316  y =  4.089439  z = -3.172144 angstrom
           Maximum rank =  0   Radius =  0.325 angstrom
                   Q00  =   0.082413

H          x =  1.060191  y =  4.028104  z = -2.636164 angstrom
           Maximum rank =  0   Radius =  0.325 angstrom
                   Q00  =   0.078326

C          x =  1.817645  y = -1.973916  z = -0.872914 angstrom
           Maximum rank =  0   Radius =  0.650 angstrom
                   Q00  =  -0.205261

C          x = -0.694355  y =  0.340084  z =  0.794086 angstrom
           Maximum rank =  0   Radius =  0.650 angstrom
                   Q00  =  -0.058787

C          x = -1.296355  y = -0.514916  z =  1.710086 angstrom
           Maximum rank =  0   Radius =  0.650 angstrom
                   Q00  =  -0.085273

C          x =  0.312645  y = -0.132916  z = -0.042914 angstrom
           Maximum rank =  0   Radius =  0.650 angstrom
                   Q00  =  -0.091525

C          x =  0.729645  y = -1.457916  z =  0.033086 angstrom
           Maximum rank =  0   Radius =  0.650 angstrom
                   Q00  =  -0.094010

C          x = -0.891355  y = -1.838916  z =  1.788086 angstrom
           Maximum rank =  0   Radius =  0.650 angstrom
                   Q00  =  -0.068334

C          x =  0.113645  y = -2.307916  z =  0.951086 angstrom
           Maximum rank =  0   Radius =  0.650 angstrom
                   Q00  =   0.001052

H          x = -1.008355  y =  1.372084  z =  0.739086 angstrom
           Maximum rank =  0   Radius =  0.325 angstrom
                   Q00  =   0.066530

H          x = -2.078355  y = -0.176916  z =  2.368086 angstrom
           Maximum rank =  0   Radius =  0.325 angstrom
                   Q00  =   0.058972

H          x =  0.775645  y =  0.536084  z = -0.753914 angstrom
           Maximum rank =  0   Radius =  0.325 angstrom
                   Q00  =   0.056909

H          x = -1.362355  y = -2.504916  z =  2.496086 angstrom
           Maximum rank =  0   Radius =  0.325 angstrom
                   Q00  =   0.063436

H          x =  2.265645  y = -1.150916  z = -1.431914 angstrom
           Maximum rank =  0   Radius =  0.325 angstrom
                   Q00  =   0.097923

H          x =  1.355645  y = -2.647916  z = -1.594914 angstrom
           Maximum rank =  0   Radius =  0.325 angstrom
                   Q00  =   0.102271

H          x =  0.400645  y = -3.347916  z =  1.016086 angstrom
           Maximum rank =  0   Radius =  0.325 angstrom
                   Q00  =   0.053962

H          x =  2.609171  y = -2.525760  z = -0.344754 angstrom
           Maximum rank =  0   Radius =  0.325 angstrom
                   Q00  =   0.102730

Total multipoles referred to origin at
           x =   0.000000,  y =    0.000000,  z =    0.000000 angstrom
                   Q00  =  -0.000000

Finished at 18:43:35 on 27 Apr 2020

  DMA results are available in the Python driver through the
	  variable('DMA DISTRIBUTED MULTIPOLES')
  and
	  variable('DMA TOTAL MULTIPOLES')
  commands.

    Psi4 stopped on: Monday, 27 April 2020 06:43PM
    Psi4 wall time for execution: 0:01:57.63

*** Psi4 exiting successfully. Buy a developer a beer!
