                               Psi4 1.3.2 release

  ==> Input File <==

--------------------------------------------------------------------------
import numpy as np
set {scf_type pk
basis cc-pvdz
d_convergence 10
gdma_switch   0
gdma_limit    0
gdma_origin   [ 0.0,  0.0,  0.0 ]
}
molecule test {
    units Angstrom
    0 1
    --
    0 1
    C               -0.709615289863163    -2.058292934897621     3.778760869876236
    C                0.016384710136837     0.093707065102379     0.118760869876236
    C               -0.944615289863163     0.548707065102379     1.020760869876235
    C                0.749384710136837    -1.054292934897621     0.399760869876236
    C               -1.170615289863163    -0.153292934897621     2.202760869876236
    C                0.520384710136837    -1.747292934897621     1.591760869876236
    C               -0.443615289863163    -1.304292934897621     2.497760869876235
    O                0.231384710136837     0.785707065102379    -1.035239130123764
    H               -0.354615289863163     1.560707065102379    -1.065239130123764
    H               -1.521615289863163     1.433707065102379     0.807760869876236
    H                1.491384710136837    -1.401292934897621    -0.303239130123764
    H               -1.924615289863163     0.200707065102379     2.892760869876236
    H                1.090384710136837    -2.641292934897621     1.804760869876236
    H               -0.487615289863163    -3.114292934897621     3.627760869876236
    H               -1.772615289863163    -1.974292934897621     4.011760869876236
    H               -0.121661289863163    -1.684598934897621     4.630030869876236
    C                0.673384710136837     1.654707065102379    -4.027239130123764
    C                0.904384710136837     2.557707065102379    -5.242239130123765
    H               -0.181615289863163     1.001707065102379    -4.193239130123764
    H                1.549384710136837     1.038707065102379    -3.857239130123764
    H                0.495384710136837     2.264707065102380    -3.148239130123764
    H                0.941384710136837     1.918707065102379    -6.123239130123764
    H                0.069117710136837     3.265354065102379    -5.349789130123765
    H                1.871828510136837     3.077087065102379    -5.176689130123765

}
e, wfn = energy('scf', return_wfn=True)
gdma(wfn)
dmavals = variable('DMA DISTRIBUTED MULTIPOLES')
charges = np.array(dmavals)
print(charges)
np.save('SSI-142TYR-150VAL-1-dimer.npy', np.array(charges))--------------------------------------------------------------------------

*** tstart() called on ds3
*** at Sun Apr 26 20:41:53 2020

   => Loading Basis Set <=

    Name: CC-PVDZ
    Role: ORBITAL
    Keyword: BASIS
    atoms 1-7, 17-18  entry C          line   138 file /theoryfs2/ds/metcalf/miniconda2/envs/tf2gpu/share/psi4/basis/cc-pvdz.gbs
    atoms 8           entry O          line   198 file /theoryfs2/ds/metcalf/miniconda2/envs/tf2gpu/share/psi4/basis/cc-pvdz.gbs
    atoms 9-16, 19-24 entry H          line    22 file /theoryfs2/ds/metcalf/miniconda2/envs/tf2gpu/share/psi4/basis/cc-pvdz.gbs

         ---------------------------------------------------------
                                   SCF
               by Justin Turney, Rob Parrish, Andy Simmonett
                          and Daniel G. A. Smith
                              RHF Reference
                        1 Threads,    500 MiB Core
         ---------------------------------------------------------

  ==> Geometry <==

    Molecular point group: c1
    Full point group: C1

    Geometry (in Angstrom), charge = 0, multiplicity = 1:

       Center              X                  Y                   Z               Mass
    ------------   -----------------  -----------------  -----------------  -----------------
         C           -0.709615289863    -2.058292934898     3.778760869876    12.000000000000
         C            0.016384710137     0.093707065102     0.118760869876    12.000000000000
         C           -0.944615289863     0.548707065102     1.020760869876    12.000000000000
         C            0.749384710137    -1.054292934898     0.399760869876    12.000000000000
         C           -1.170615289863    -0.153292934898     2.202760869876    12.000000000000
         C            0.520384710137    -1.747292934898     1.591760869876    12.000000000000
         C           -0.443615289863    -1.304292934898     2.497760869876    12.000000000000
         O            0.231384710137     0.785707065102    -1.035239130124    15.994914619570
         H           -0.354615289863     1.560707065102    -1.065239130124     1.007825032230
         H           -1.521615289863     1.433707065102     0.807760869876     1.007825032230
         H            1.491384710137    -1.401292934898    -0.303239130124     1.007825032230
         H           -1.924615289863     0.200707065102     2.892760869876     1.007825032230
         H            1.090384710137    -2.641292934898     1.804760869876     1.007825032230
         H           -0.487615289863    -3.114292934898     3.627760869876     1.007825032230
         H           -1.772615289863    -1.974292934898     4.011760869876     1.007825032230
         H           -0.121661289863    -1.684598934898     4.630030869876     1.007825032230
         C            0.673384710137     1.654707065102    -4.027239130124    12.000000000000
         C            0.904384710137     2.557707065102    -5.242239130124    12.000000000000
         H           -0.181615289863     1.001707065102    -4.193239130124     1.007825032230
         H            1.549384710137     1.038707065102    -3.857239130124     1.007825032230
         H            0.495384710137     2.264707065102    -3.148239130124     1.007825032230
         H            0.941384710137     1.918707065102    -6.123239130124     1.007825032230
         H            0.069117710137     3.265354065102    -5.349789130124     1.007825032230
         H            1.871828510137     3.077087065102    -5.176689130124     1.007825032230

  Running in c1 symmetry.

  Rotational constants: A =      0.16514  B =      0.01216  C =      0.01143 [cm^-1]
  Rotational constants: A =   4950.88484  B =    364.49985  C =    342.65821 [MHz]
  Nuclear repulsion =  476.195855926994739

  Charge       = 0
  Multiplicity = 1
  Electrons    = 76
  Nalpha       = 38
  Nbeta        = 38

  ==> Algorithm <==

  SCF Algorithm Type is PK.
  DIIS enabled.
  MOM disabled.
  Fractional occupation disabled.
  Guess Type is SAD.
  Energy threshold   = 1.00e-06
  Density threshold  = 1.00e-10
  Integral threshold = 0.00e+00

  ==> Primary Basis <==

  Basis Set: CC-PVDZ
    Blend: CC-PVDZ
    Number of shells: 102
    Number of basis function: 210
    Number of Cartesian functions: 220
    Spherical Harmonics?: true
    Max angular momentum: 2

  ==> Pre-Iterations <==

   -------------------------------------------------------
    Irrep   Nso     Nmo     Nalpha   Nbeta   Ndocc  Nsocc
   -------------------------------------------------------
     A        210     210       0       0       0       0
   -------------------------------------------------------
    Total     210     210      38      38      38       0
   -------------------------------------------------------

  ==> Integral Setup <==

  Using integral reordering PK algorithm.
  Sizing the integral batches needed.
  Building batch lookup table.
   Calculation information:
      Number of atoms:                  24
      Number of AO shells:             102
      Number of primitives:            290
      Number of atomic orbitals:       220
      Number of basis functions:       210

      Integral cutoff                 1.00e-12
      Number of threads:                 1

	Batch   1 pq = [       0,    9405] index = [             0,44231715] size =     44231715
	Batch   2 pq = [    9405,   13301] index = [      44231715,88464951] size =     44233236
	Batch   3 pq = [   13301,   16290] index = [      88464951,132690195] size =     44225244
	Batch   4 pq = [   16290,   18810] index = [     132690195,176917455] size =     44227260
	Batch   5 pq = [   18810,   21030] index = [     176917455,221140965] size =     44223510
	Batch   6 pq = [   21030,   22155] index = [     221140965,245433090] size =     24292125
  Task number: 23
  Buffer size: 11059200
  Buffer per thread: 2
  We computed 8984642 shell quartets total.
  Whereas there are 13799631 unique shell quartets.

  ==> DiskJK: Disk-Based J/K Matrices <==

    J tasked:                  Yes
    K tasked:                  Yes
    wK tasked:                  No
    Memory [MiB]:              375
    Schwarz Cutoff:          1E-12

    OpenMP threads:              1

  Minimum eigenvalue in the overlap matrix is 3.2496212136E-04.
  Using Symmetric Orthogonalization.

  SCF Guess: Superposition of Atomic Densities via on-the-fly atomic UHF.

  ==> Iterations <==

                        Total Energy        Delta E     RMS |[F,P]|

   @RHF iter SAD:  -422.67151940475208   -4.22672e+02   0.00000e+00
   @RHF iter   1:  -423.60009462610435   -9.28575e-01   2.98080e-03 DIIS
   @RHF iter   2:  -423.81756039356827   -2.17466e-01   1.25870e-03 DIIS
   @RHF iter   3:  -423.85257380859446   -3.50134e-02   2.85729e-04 DIIS
   @RHF iter   4:  -423.85547041995073   -2.89661e-03   1.19232e-04 DIIS
   @RHF iter   5:  -423.85583726737349   -3.66847e-04   2.08512e-05 DIIS
   @RHF iter   6:  -423.85585518645956   -1.79191e-05   6.41943e-06 DIIS
   @RHF iter   7:  -423.85585685452281   -1.66806e-06   2.10727e-06 DIIS
   @RHF iter   8:  -423.85585707914976   -2.24627e-07   7.86179e-07 DIIS
   @RHF iter   9:  -423.85585711434987   -3.52001e-08   3.04539e-07 DIIS
   @RHF iter  10:  -423.85585712054518   -6.19531e-09   1.26004e-07 DIIS
   @RHF iter  11:  -423.85585712243960   -1.89442e-09   5.72392e-08 DIIS
   @RHF iter  12:  -423.85585712283893   -3.99325e-10   2.82390e-08 DIIS
   @RHF iter  13:  -423.85585712291527   -7.63407e-11   8.25453e-09 DIIS
   @RHF iter  14:  -423.85585712292004   -4.77485e-12   2.25041e-09 DIIS
   @RHF iter  15:  -423.85585712292101   -9.66338e-13   6.88635e-10 DIIS
   @RHF iter  16:  -423.85585712292072    2.84217e-13   2.11912e-10 DIIS
   @RHF iter  17:  -423.85585712292169   -9.66338e-13   7.83830e-11 DIIS
  Energy and wave function converged.

  ==> Post-Iterations <==

    Orbital Energies [Eh]
    ---------------------

    Doubly Occupied:

       1A    -20.584822     2A    -11.298984     3A    -11.239071
       4A    -11.238816     5A    -11.233474     6A    -11.233087
       7A    -11.230765     8A    -11.228086     9A    -11.214773
      10A    -11.209457    11A     -1.399749    12A     -1.149968
      13A     -1.036382    14A     -1.017608    15A     -1.013173
      16A     -0.925071    17A     -0.844831    18A     -0.832447
      19A     -0.800510    20A     -0.729417    21A     -0.669090
      22A     -0.641651    23A     -0.606243    24A     -0.594965
      25A     -0.592376    26A     -0.587411    27A     -0.586366
      28A     -0.570899    29A     -0.568286    30A     -0.526724
      31A     -0.497749    32A     -0.493112    33A     -0.485539
      34A     -0.483141    35A     -0.478173    36A     -0.466867
      37A     -0.338485    38A     -0.301624

    Virtual:

      39A      0.129501    40A      0.156574    41A      0.171503
      42A      0.187127    43A      0.196349    44A      0.214904
      45A      0.220369    46A      0.245691    47A      0.254753
      48A      0.257180    49A      0.264601    50A      0.278302
      51A      0.282842    52A      0.290258    53A      0.298460
      54A      0.316350    55A      0.370175    56A      0.373553
      57A      0.398019    58A      0.435901    59A      0.460088
      60A      0.487153    61A      0.497907    62A      0.501858
      63A      0.599354    64A      0.603729    65A      0.609452
      66A      0.616148    67A      0.634946    68A      0.650176
      69A      0.670181    70A      0.682522    71A      0.689191
      72A      0.693226    73A      0.698038    74A      0.706948
      75A      0.729976    76A      0.738991    77A      0.741153
      78A      0.771624    79A      0.783640    80A      0.790535
      81A      0.796512    82A      0.836092    83A      0.841071
      84A      0.849396    85A      0.877127    86A      0.877769
      87A      0.880613    88A      0.890259    89A      0.894113
      90A      0.897393    91A      0.904384    92A      0.910622
      93A      0.920415    94A      0.928179    95A      0.932825
      96A      0.938297    97A      0.940353    98A      0.948499
      99A      0.984765   100A      1.010571   101A      1.032884
     102A      1.048383   103A      1.121860   104A      1.126853
     105A      1.135145   106A      1.142939   107A      1.146328
     108A      1.167904   109A      1.199945   110A      1.219454
     111A      1.244447   112A      1.247282   113A      1.285972
     114A      1.296720   115A      1.299652   116A      1.309012
     117A      1.321219   118A      1.364571   119A      1.381728
     120A      1.403522   121A      1.474011   122A      1.476534
     123A      1.496327   124A      1.511942   125A      1.537345
     126A      1.558116   127A      1.587304   128A      1.610104
     129A      1.625620   130A      1.682748   131A      1.683293
     132A      1.700864   133A      1.703832   134A      1.730205
     135A      1.747822   136A      1.778555   137A      1.800588
     138A      1.803390   139A      1.860717   140A      1.872184
     141A      1.878379   142A      1.884167   143A      1.893846
     144A      1.908531   145A      1.912306   146A      1.913335
     147A      1.920188   148A      1.940959   149A      1.944219
     150A      1.952088   151A      1.955877   152A      1.961776
     153A      1.969822   154A      1.980577   155A      1.988093
     156A      2.033808   157A      2.042313   158A      2.050858
     159A      2.056810   160A      2.065863   161A      2.068660
     162A      2.111671   163A      2.136772   164A      2.142069
     165A      2.150043   166A      2.157882   167A      2.202026
     168A      2.230490   169A      2.261088   170A      2.274017
     171A      2.291452   172A      2.306815   173A      2.316553
     174A      2.341056   175A      2.379505   176A      2.423367
     177A      2.446776   178A      2.460986   179A      2.469948
     180A      2.475800   181A      2.486038   182A      2.537006
     183A      2.543770   184A      2.565362   185A      2.592945
     186A      2.600760   187A      2.644231   188A      2.750801
     189A      2.767867   190A      2.769168   191A      2.787699
     192A      2.803688   193A      2.807085   194A      2.840758
     195A      2.853059   196A      2.861769   197A      2.901126
     198A      2.945520   199A      2.959076   200A      2.972060
     201A      2.998574   202A      3.088528   203A      3.109120
     204A      3.257701   205A      3.276311   206A      3.334579
     207A      3.601745   208A      3.681384   209A      3.960693
     210A      4.186238

    Final Occupation by Irrep:
              A
    DOCC [    38 ]

  @RHF Final Energy:  -423.85585712292169

   => Energetics <=

    Nuclear Repulsion Energy =            476.1958559269947386
    One-Electron Energy =               -1518.2050446837945401
    Two-Electron Energy =                 618.1533316338781106
    Total Energy =                       -423.8558571229217478

Computation Completed

Properties will be evaluated at   0.000000,   0.000000,   0.000000 [a0]

Properties computed using the SCF density matrix

  Nuclear Dipole Moment: [e a0]
     X:     1.0741      Y:     4.6401      Z:   -10.7316

  Electronic Dipole Moment: [e a0]
     X:    -1.4697      Y:    -4.4616      Z:    11.1028

  Dipole Moment: [e a0]
     X:    -0.3957      Y:     0.1785      Z:     0.3712     Total:     0.5712

  Dipole Moment: [D]
     X:    -1.0057      Y:     0.4537      Z:     0.9436     Total:     1.4517

*** tstop() called on ds3 at Sun Apr 26 20:43:53 2020
Module time:
	user time   =      78.77 seconds =       1.31 minutes
	system time =      47.47 seconds =       0.79 minutes
	total time  =        120 seconds =       2.00 minutes
Total time:
	user time   =      78.77 seconds =       1.31 minutes
	system time =      47.47 seconds =       0.79 minutes
	total time  =        120 seconds =       2.00 minutes
                                     G D M A

                                 by Anthony Stone

                           version 2.2.06, 22 June 2011

               Distributed Multipoles from Gaussian wavefunctions

Starting at 20:43:53 on 26 Apr 2020

Using SCF density matrix from file ./SSI/SSI-142TYR-150VAL-1-dimer.test.9859.fchk

                         Distributed Multipole Analysis

Standard DMA

Positions and radii in angstrom
Multipole moments in atomic units, ea_0^k for rank k

C          x = -0.709615  y = -2.058293  z =  3.778761 angstrom
           Maximum rank =  0   Radius =  0.650 angstrom
                   Q00  =  -0.196289

C          x =  0.016385  y =  0.093707  z =  0.118761 angstrom
           Maximum rank =  0   Radius =  0.650 angstrom
                   Q00  =   0.313995

C          x = -0.944615  y =  0.548707  z =  1.020761 angstrom
           Maximum rank =  0   Radius =  0.650 angstrom
                   Q00  =  -0.187432

C          x =  0.749385  y = -1.054293  z =  0.399761 angstrom
           Maximum rank =  0   Radius =  0.650 angstrom
                   Q00  =  -0.120020

C          x = -1.170615  y = -0.153293  z =  2.202761 angstrom
           Maximum rank =  0   Radius =  0.650 angstrom
                   Q00  =   0.032247

C          x =  0.520385  y = -1.747293  z =  1.591761 angstrom
           Maximum rank =  0   Radius =  0.650 angstrom
                   Q00  =  -0.012298

C          x = -0.443615  y = -1.304293  z =  2.497761 angstrom
           Maximum rank =  0   Radius =  0.650 angstrom
                   Q00  =  -0.137003

O          x =  0.231385  y =  0.785707  z = -1.035239 angstrom
           Maximum rank =  0   Radius =  0.650 angstrom
                   Q00  =  -0.666400

H          x = -0.354615  y =  1.560707  z = -1.065239 angstrom
           Maximum rank =  0   Radius =  0.325 angstrom
                   Q00  =   0.404185

H          x = -1.521615  y =  1.433707  z =  0.807761 angstrom
           Maximum rank =  0   Radius =  0.325 angstrom
                   Q00  =   0.070888

H          x =  1.491385  y = -1.401293  z = -0.303239 angstrom
           Maximum rank =  0   Radius =  0.325 angstrom
                   Q00  =   0.079933

H          x = -1.924615  y =  0.200707  z =  2.892761 angstrom
           Maximum rank =  0   Radius =  0.325 angstrom
                   Q00  =   0.068422

H          x =  1.090385  y = -2.641293  z =  1.804761 angstrom
           Maximum rank =  0   Radius =  0.325 angstrom
                   Q00  =   0.064600

H          x = -0.487615  y = -3.114293  z =  3.627761 angstrom
           Maximum rank =  0   Radius =  0.325 angstrom
                   Q00  =   0.096639

H          x = -1.772615  y = -1.974293  z =  4.011761 angstrom
           Maximum rank =  0   Radius =  0.325 angstrom
                   Q00  =   0.094498

H          x = -0.121661  y = -1.684599  z =  4.630031 angstrom
           Maximum rank =  0   Radius =  0.325 angstrom
                   Q00  =   0.099995

C          x =  0.673385  y =  1.654707  z = -4.027239 angstrom
           Maximum rank =  0   Radius =  0.650 angstrom
                   Q00  =  -0.212968

C          x =  0.904385  y =  2.557707  z = -5.242239 angstrom
           Maximum rank =  0   Radius =  0.650 angstrom
                   Q00  =  -0.249338

H          x = -0.181615  y =  1.001707  z = -4.193239 angstrom
           Maximum rank =  0   Radius =  0.325 angstrom
                   Q00  =   0.076846

H          x =  1.549385  y =  1.038707  z = -3.857239 angstrom
           Maximum rank =  0   Radius =  0.325 angstrom
                   Q00  =   0.085488

H          x =  0.495385  y =  2.264707  z = -3.148239 angstrom
           Maximum rank =  0   Radius =  0.325 angstrom
                   Q00  =   0.061007

H          x =  0.941385  y =  1.918707  z = -6.123239 angstrom
           Maximum rank =  0   Radius =  0.325 angstrom
                   Q00  =   0.076996

H          x =  0.069118  y =  3.265354  z = -5.349789 angstrom
           Maximum rank =  0   Radius =  0.325 angstrom
                   Q00  =   0.075940

H          x =  1.871829  y =  3.077087  z = -5.176689 angstrom
           Maximum rank =  0   Radius =  0.325 angstrom
                   Q00  =   0.080070

Total multipoles referred to origin at
           x =   0.000000,  y =    0.000000,  z =    0.000000 angstrom
                   Q00  =  -0.000000

Finished at 20:43:54 on 26 Apr 2020

  DMA results are available in the Python driver through the
	  variable('DMA DISTRIBUTED MULTIPOLES')
  and
	  variable('DMA TOTAL MULTIPOLES')
  commands.

    Psi4 stopped on: Sunday, 26 April 2020 08:43PM
    Psi4 wall time for execution: 0:02:00.54

*** Psi4 exiting successfully. Buy a developer a beer!
