                               Psi4 1.3.2 release

  ==> Input File <==

--------------------------------------------------------------------------
import numpy as np
set {scf_type pk
basis cc-pvdz
d_convergence 10
gdma_switch   0
gdma_limit    0
gdma_origin   [ 0.0,  0.0,  0.0 ]
}
molecule test {
    units Angstrom
    0 1
    --
    0 1
    C               -0.173153511897178    -1.350396402031387    -0.084171835789289
    C               -1.635153511897179    -1.583396402031387    -0.460171835789289
    C               -0.032153511897178    -0.773396402031387     1.302828164210711
    O               -0.867153511897178     0.010603597968613     1.747828164210711
    N                1.032846488102821    -1.144396402031387     1.995828164210711
    H                0.368846488102822    -2.295396402031387    -0.148171835789289
    H                0.288846488102822    -0.666396402031387    -0.788171835789289
    H               -2.198153511897178    -0.664396402031387    -0.275171835789289
    H                1.158846488102822    -0.770396402031387     2.924828164210711
    H                1.710846488102822    -1.777396402031387     1.596828164210711
    H               -2.057585511897178    -2.398086302031387     0.146318164210711
    H               -1.730151511897178    -1.831406302031387    -1.527631835789289
    C                0.583846488102821     1.720603597968613    -1.860171835789289
    C                1.007846488102822     2.993603597968613    -2.600171835789289
    H                0.223846488102822     0.978603597968613    -2.574171835789289
    H                1.444846488102822     1.316603597968613    -1.327171835789289
    H               -0.190153511897178     1.938603597968613    -1.124171835789289
    H                1.301846488102822     3.736603597968613    -1.857171835789289
    H                0.172980488102822     3.386775597968613    -3.198851835789289
    H                1.878795488102821     2.788251597968613    -3.239921835789289

}
e, wfn = energy('scf', return_wfn=True)
gdma(wfn)
dmavals = variable('DMA DISTRIBUTED MULTIPOLES')
charges = np.array(dmavals)
print(charges)
np.save('SSI-105ASN-139VAL-1-dimer.npy', np.array(charges))--------------------------------------------------------------------------

*** tstart() called on ds3
*** at Sun Apr 26 18:07:28 2020

   => Loading Basis Set <=

    Name: CC-PVDZ
    Role: ORBITAL
    Keyword: BASIS
    atoms 1-3, 13-14  entry C          line   138 file /theoryfs2/ds/metcalf/miniconda2/envs/tf2gpu/share/psi4/basis/cc-pvdz.gbs
    atoms 4           entry O          line   198 file /theoryfs2/ds/metcalf/miniconda2/envs/tf2gpu/share/psi4/basis/cc-pvdz.gbs
    atoms 5           entry N          line   168 file /theoryfs2/ds/metcalf/miniconda2/envs/tf2gpu/share/psi4/basis/cc-pvdz.gbs
    atoms 6-12, 15-20 entry H          line    22 file /theoryfs2/ds/metcalf/miniconda2/envs/tf2gpu/share/psi4/basis/cc-pvdz.gbs

         ---------------------------------------------------------
                                   SCF
               by Justin Turney, Rob Parrish, Andy Simmonett
                          and Daniel G. A. Smith
                              RHF Reference
                        1 Threads,    500 MiB Core
         ---------------------------------------------------------

  ==> Geometry <==

    Molecular point group: c1
    Full point group: C1

    Geometry (in Angstrom), charge = 0, multiplicity = 1:

       Center              X                  Y                   Z               Mass
    ------------   -----------------  -----------------  -----------------  -----------------
         C           -0.173153511897    -1.350396402031    -0.084171835789    12.000000000000
         C           -1.635153511897    -1.583396402031    -0.460171835789    12.000000000000
         C           -0.032153511897    -0.773396402031     1.302828164211    12.000000000000
         O           -0.867153511897     0.010603597969     1.747828164211    15.994914619570
         N            1.032846488103    -1.144396402031     1.995828164211    14.003074004430
         H            0.368846488103    -2.295396402031    -0.148171835789     1.007825032230
         H            0.288846488103    -0.666396402031    -0.788171835789     1.007825032230
         H           -2.198153511897    -0.664396402031    -0.275171835789     1.007825032230
         H            1.158846488103    -0.770396402031     2.924828164211     1.007825032230
         H            1.710846488103    -1.777396402031     1.596828164211     1.007825032230
         H           -2.057585511897    -2.398086302031     0.146318164211     1.007825032230
         H           -1.730151511897    -1.831406302031    -1.527631835789     1.007825032230
         C            0.583846488103     1.720603597969    -1.860171835789    12.000000000000
         C            1.007846488103     2.993603597969    -2.600171835789    12.000000000000
         H            0.223846488103     0.978603597969    -2.574171835789     1.007825032230
         H            1.444846488103     1.316603597969    -1.327171835789     1.007825032230
         H           -0.190153511897     1.938603597969    -1.124171835789     1.007825032230
         H            1.301846488103     3.736603597969    -1.857171835789     1.007825032230
         H            0.172980488103     3.386775597969    -3.198851835789     1.007825032230
         H            1.878795488103     2.788251597969    -3.239921835789     1.007825032230

  Running in c1 symmetry.

  Rotational constants: A =      0.09818  B =      0.03030  C =      0.02682 [cm^-1]
  Rotational constants: A =   2943.41001  B =    908.45602  C =    804.18376 [MHz]
  Nuclear repulsion =  301.647338188409265

  Charge       = 0
  Multiplicity = 1
  Electrons    = 58
  Nalpha       = 29
  Nbeta        = 29

  ==> Algorithm <==

  SCF Algorithm Type is PK.
  DIIS enabled.
  MOM disabled.
  Fractional occupation disabled.
  Guess Type is SAD.
  Energy threshold   = 1.00e-06
  Density threshold  = 1.00e-10
  Integral threshold = 0.00e+00

  ==> Primary Basis <==

  Basis Set: CC-PVDZ
    Blend: CC-PVDZ
    Number of shells: 81
    Number of basis function: 163
    Number of Cartesian functions: 170
    Spherical Harmonics?: true
    Max angular momentum: 2

  ==> Pre-Iterations <==

   -------------------------------------------------------
    Irrep   Nso     Nmo     Nalpha   Nbeta   Ndocc  Nsocc
   -------------------------------------------------------
     A        163     163       0       0       0       0
   -------------------------------------------------------
    Total     163     163      29      29      29       0
   -------------------------------------------------------

  ==> Integral Setup <==

  Using integral reordering PK algorithm.
  Sizing the integral batches needed.
  Building batch lookup table.
   Calculation information:
      Number of atoms:                  20
      Number of AO shells:              81
      Number of primitives:            219
      Number of atomic orbitals:       170
      Number of basis functions:       163

      Integral cutoff                 1.00e-12
      Number of threads:                 1

	Batch   1 pq = [       0,    9405] index = [             0,44231715] size =     44231715
	Batch   2 pq = [    9405,   13366] index = [      44231715,89331661] size =     45099946
  Task number: 9
  Buffer size: 11059200
  Buffer per thread: 2
  We computed 4723776 shell quartets total.
  Whereas there are 5516181 unique shell quartets.

  ==> DiskJK: Disk-Based J/K Matrices <==

    J tasked:                  Yes
    K tasked:                  Yes
    wK tasked:                  No
    Memory [MiB]:              375
    Schwarz Cutoff:          1E-12

    OpenMP threads:              1

  Minimum eigenvalue in the overlap matrix is 3.3323368164E-03.
  Using Symmetric Orthogonalization.

  SCF Guess: Superposition of Atomic Densities via on-the-fly atomic UHF.

  ==> Iterations <==

                        Total Energy        Delta E     RMS |[F,P]|

   @RHF iter SAD:  -324.97177355667606   -3.24972e+02   0.00000e+00
   @RHF iter   1:  -326.00919883797604   -1.03743e+00   4.10985e-03 DIIS
   @RHF iter   2:  -326.20597553076158   -1.96777e-01   2.25906e-03 DIIS
   @RHF iter   3:  -326.25983207554668   -5.38565e-02   4.90451e-04 DIIS
   @RHF iter   4:  -326.26363563398297   -3.80356e-03   2.02290e-04 DIIS
   @RHF iter   5:  -326.26430640677273   -6.70773e-04   2.90052e-05 DIIS
   @RHF iter   6:  -326.26433804379849   -3.16370e-05   1.13917e-05 DIIS
   @RHF iter   7:  -326.26434198489142   -3.94109e-06   4.87777e-06 DIIS
   @RHF iter   8:  -326.26434284319510   -8.58304e-07   1.90087e-06 DIIS
   @RHF iter   9:  -326.26434298466080   -1.41466e-07   4.14807e-07 DIIS
   @RHF iter  10:  -326.26434299038465   -5.72385e-09   1.28144e-07 DIIS
   @RHF iter  11:  -326.26434299081632   -4.31669e-10   3.40630e-08 DIIS
   @RHF iter  12:  -326.26434299085315   -3.68345e-11   8.90761e-09 DIIS
   @RHF iter  13:  -326.26434299085696   -3.80851e-12   2.18765e-09 DIIS
   @RHF iter  14:  -326.26434299085588    1.08002e-12   9.31526e-10 DIIS
   @RHF iter  15:  -326.26434299085611   -2.27374e-13   4.62465e-10 DIIS
   @RHF iter  16:  -326.26434299085690   -7.95808e-13   1.70080e-10 DIIS
   @RHF iter  17:  -326.26434299085685    5.68434e-14   5.20421e-11 DIIS
  Energy and wave function converged.

  ==> Post-Iterations <==

    Orbital Energies [Eh]
    ---------------------

    Doubly Occupied:

       1A    -20.502438     2A    -15.588193     3A    -11.341962
       4A    -11.235895     5A    -11.221816     6A    -11.219566
       7A    -11.217715     8A     -1.367094     9A     -1.216521
      10A     -1.046093    11A     -1.017804    12A     -0.886575
      13A     -0.837631    14A     -0.783938    15A     -0.722659
      16A     -0.665325    17A     -0.629068    18A     -0.599275
      19A     -0.596902    20A     -0.584798    21A     -0.555489
      22A     -0.516532    23A     -0.506177    24A     -0.498396
      25A     -0.488725    26A     -0.487296    27A     -0.481432
      28A     -0.407696    29A     -0.403170

    Virtual:

      30A      0.166793    31A      0.182725    32A      0.192660
      33A      0.214128    34A      0.229692    35A      0.233105
      36A      0.246287    37A      0.256999    38A      0.270567
      39A      0.273178    40A      0.284782    41A      0.287761
      42A      0.318439    43A      0.336212    44A      0.384414
      45A      0.410678    46A      0.434206    47A      0.471983
      48A      0.562586    49A      0.585368    50A      0.600429
      51A      0.609124    52A      0.624994    53A      0.646819
      54A      0.656644    55A      0.692541    56A      0.702023
      57A      0.723147    58A      0.737881    59A      0.749860
      60A      0.802469    61A      0.834210    62A      0.856017
      63A      0.863590    64A      0.881723    65A      0.892365
      66A      0.894998    67A      0.897880    68A      0.901938
      69A      0.913754    70A      0.916930    71A      0.926558
      72A      0.932213    73A      0.955380    74A      0.966328
      75A      0.977709    76A      0.992348    77A      1.020883
      78A      1.041978    79A      1.072187    80A      1.119182
      81A      1.120428    82A      1.123623    83A      1.170388
      84A      1.247170    85A      1.303177    86A      1.313263
      87A      1.362226    88A      1.400750    89A      1.404230
      90A      1.431645    91A      1.473059    92A      1.478807
      93A      1.485151    94A      1.494263    95A      1.581947
      96A      1.602542    97A      1.678088    98A      1.679941
      99A      1.690587   100A      1.696039   101A      1.706678
     102A      1.763552   103A      1.821047   104A      1.840207
     105A      1.849297   106A      1.872039   107A      1.887932
     108A      1.911546   109A      1.912709   110A      1.918337
     111A      1.925337   112A      1.938454   113A      1.941983
     114A      1.946228   115A      1.957881   116A      1.965063
     117A      1.972475   118A      1.988178   119A      2.006992
     120A      2.038868   121A      2.058429   122A      2.067001
     123A      2.099132   124A      2.107277   125A      2.115694
     126A      2.215321   127A      2.237123   128A      2.276802
     129A      2.304403   130A      2.304931   131A      2.360871
     132A      2.380445   133A      2.432565   134A      2.451105
     135A      2.466773   136A      2.474793   137A      2.545304
     138A      2.557260   139A      2.562910   140A      2.571242
     141A      2.574432   142A      2.603350   143A      2.639400
     144A      2.751666   145A      2.764533   146A      2.766533
     147A      2.788739   148A      2.836686   149A      2.844978
     150A      2.853897   151A      2.895208   152A      2.906430
     153A      2.944175   154A      2.949733   155A      2.986861
     156A      3.005908   157A      3.103581   158A      3.153129
     159A      3.295959   160A      3.514404   161A      3.533684
     162A      3.872846   163A      3.909543

    Final Occupation by Irrep:
              A
    DOCC [    29 ]

  @RHF Final Energy:  -326.26434299085685

   => Energetics <=

    Nuclear Repulsion Energy =            301.6473381884092646
    One-Electron Energy =               -1040.5710003156875700
    Two-Electron Energy =                 412.6593191364214022
    Total Energy =                       -326.2643429908568464

Computation Completed

Properties will be evaluated at   0.000000,   0.000000,   0.000000 [a0]

Properties computed using the SCF density matrix

  Nuclear Dipole Moment: [e a0]
     X:     2.2181      Y:     3.5114      Z:   -10.6776

  Electronic Dipole Moment: [e a0]
     X:    -0.9597      Y:    -4.4314      Z:    10.3740

  Dipole Moment: [e a0]
     X:     1.2583      Y:    -0.9201      Z:    -0.3037     Total:     1.5881

  Dipole Moment: [D]
     X:     3.1983      Y:    -2.3386      Z:    -0.7718     Total:     4.0366

*** tstop() called on ds3 at Sun Apr 26 18:08:11 2020
Module time:
	user time   =      30.80 seconds =       0.51 minutes
	system time =      14.21 seconds =       0.24 minutes
	total time  =         43 seconds =       0.72 minutes
Total time:
	user time   =      30.80 seconds =       0.51 minutes
	system time =      14.21 seconds =       0.24 minutes
	total time  =         43 seconds =       0.72 minutes
                                     G D M A

                                 by Anthony Stone

                           version 2.2.06, 22 June 2011

               Distributed Multipoles from Gaussian wavefunctions

Starting at 18:8:11 on 26 Apr 2020

Using SCF density matrix from file ./SSI/SSI-105ASN-139VAL-1-dimer.test.24670.fchk

                         Distributed Multipole Analysis

Standard DMA

Positions and radii in angstrom
Multipole moments in atomic units, ea_0^k for rank k

C          x = -0.173154  y = -1.350396  z = -0.084172 angstrom
           Maximum rank =  0   Radius =  0.650 angstrom
                   Q00  =  -0.173638

C          x = -1.635154  y = -1.583396  z = -0.460172 angstrom
           Maximum rank =  0   Radius =  0.650 angstrom
                   Q00  =  -0.206254

C          x = -0.032154  y = -0.773396  z =  1.302828 angstrom
           Maximum rank =  0   Radius =  0.650 angstrom
                   Q00  =   0.861118

O          x = -0.867154  y =  0.010604  z =  1.747828 angstrom
           Maximum rank =  0   Radius =  0.650 angstrom
                   Q00  =  -0.814710

N          x =  1.032846  y = -1.144396  z =  1.995828 angstrom
           Maximum rank =  0   Radius =  0.650 angstrom
                   Q00  =  -0.543162

H          x =  0.368846  y = -2.295396  z = -0.148172 angstrom
           Maximum rank =  0   Radius =  0.325 angstrom
                   Q00  =   0.047416

H          x =  0.288846  y = -0.666396  z = -0.788172 angstrom
           Maximum rank =  0   Radius =  0.325 angstrom
                   Q00  =   0.123619

H          x = -2.198154  y = -0.664396  z = -0.275172 angstrom
           Maximum rank =  0   Radius =  0.325 angstrom
                   Q00  =   0.116854

H          x =  1.158846  y = -0.770396  z =  2.924828 angstrom
           Maximum rank =  0   Radius =  0.325 angstrom
                   Q00  =   0.218075

H          x =  1.710846  y = -1.777396  z =  1.596828 angstrom
           Maximum rank =  0   Radius =  0.325 angstrom
                   Q00  =   0.207062

H          x = -2.057586  y = -2.398086  z =  0.146318 angstrom
           Maximum rank =  0   Radius =  0.325 angstrom
                   Q00  =   0.083988

H          x = -1.730152  y = -1.831406  z = -1.527632 angstrom
           Maximum rank =  0   Radius =  0.325 angstrom
                   Q00  =   0.078762

C          x =  0.583846  y =  1.720604  z = -1.860172 angstrom
           Maximum rank =  0   Radius =  0.650 angstrom
                   Q00  =  -0.256251

C          x =  1.007846  y =  2.993604  z = -2.600172 angstrom
           Maximum rank =  0   Radius =  0.650 angstrom
                   Q00  =  -0.221051

H          x =  0.223846  y =  0.978604  z = -2.574172 angstrom
           Maximum rank =  0   Radius =  0.325 angstrom
                   Q00  =   0.072253

H          x =  1.444846  y =  1.316604  z = -1.327172 angstrom
           Maximum rank =  0   Radius =  0.325 angstrom
                   Q00  =   0.067994

H          x = -0.190154  y =  1.938604  z = -1.124172 angstrom
           Maximum rank =  0   Radius =  0.325 angstrom
                   Q00  =   0.094518

H          x =  1.301846  y =  3.736604  z = -1.857172 angstrom
           Maximum rank =  0   Radius =  0.325 angstrom
                   Q00  =   0.082874

H          x =  0.172980  y =  3.386776  z = -3.198852 angstrom
           Maximum rank =  0   Radius =  0.325 angstrom
                   Q00  =   0.083553

H          x =  1.878795  y =  2.788252  z = -3.239922 angstrom
           Maximum rank =  0   Radius =  0.325 angstrom
                   Q00  =   0.076980

Total multipoles referred to origin at
           x =   0.000000,  y =    0.000000,  z =    0.000000 angstrom
                   Q00  =  -0.000000

Finished at 18:8:11 on 26 Apr 2020

  DMA results are available in the Python driver through the
	  variable('DMA DISTRIBUTED MULTIPOLES')
  and
	  variable('DMA TOTAL MULTIPOLES')
  commands.

    Psi4 stopped on: Sunday, 26 April 2020 06:08PM
    Psi4 wall time for execution: 0:00:43.85

*** Psi4 exiting successfully. Buy a developer a beer!
