                               Psi4 1.3.2 release

  ==> Input File <==

--------------------------------------------------------------------------
import numpy as np
set {scf_type pk
basis cc-pvdz
d_convergence 10
gdma_switch   0
gdma_limit    0
gdma_origin   [ 0.0,  0.0,  0.0 ]
}
molecule test {
    units Angstrom
    0 1
    --
    0 1
    C                3.485281173698077     0.353217258316894     3.008946816610209
    C                0.664281173698077    -1.817782741683106     1.597946816610209
    C                1.342281173698077    -0.800782741683106     2.280946816610209
    C                1.387281173698077    -2.760782741683106     0.871946816610209
    C                2.742281173698077    -0.729782741683106     2.258946816610209
    C                2.785281173698077    -2.689782741683107     0.836946816610209
    C                3.454281173698077    -1.676782741683106     1.534946816610209
    H               -0.414718826301923    -1.858782741683106     1.628946816610209
    H                0.771281173698077    -0.059782741683106     2.820946816610209
    H                0.872281173698077    -3.540782741683106     0.327946816610209
    H                3.348281173698077    -3.420782741683107     0.273946816610209
    H                2.846281173698077     1.236217258316894     3.034946816610209
    H                4.377281173698077     0.634217258316894     2.450946816610209
    H                4.535281173698077    -1.634782741683106     1.505946816610209
    H                3.760101173698077     0.085517258316894     4.039876816610209
    C               -0.121718826301923     0.415217258316894    -1.444053183389791
    C                0.692281173698077     1.053217258316894    -2.572053183389791
    C               -1.526718826301923     0.918217258316894    -1.388053183389791
    C               -2.576718826301923     0.102217258316894    -1.790053183389791
    C               -1.785718826301923     2.224217258316893    -0.989053183389791
    C               -3.876718826301923     0.580217258316894    -1.769053183389791
    C               -3.084718826301923     2.703217258316894    -0.967053183389791
    C               -4.128718826301923     1.881217258316894    -1.361053183389791
    H               -0.130718826301923    -0.669782741683106    -1.567053183389791
    H                0.366281173698077     0.629217258316894    -0.491053183389791
    H                0.842281173698077     2.107217258316894    -2.334053183389791
    H               -2.390718826301923    -0.917782741683106    -2.094053183389791
    H               -0.973718826301923     2.870217258316893    -0.687053183389791
    H               -4.697718826301923    -0.059782741683106    -2.064053183389791
    H               -3.290718826301923     3.710217258316894    -0.633053183389791
    H               -5.142718826301923     2.253217258316893    -1.337053183389791
    H                0.162581173698077     0.970967258316894    -3.532603183389791
    H                1.681451173698077     0.579347258316894    -2.655635183389791

}
e, wfn = energy('scf', return_wfn=True)
gdma(wfn)
dmavals = variable('DMA DISTRIBUTED MULTIPOLES')
charges = np.array(dmavals)
print(charges)
np.save('SSI-042PHE-085PHE-1-dimer.npy', np.array(charges))--------------------------------------------------------------------------

*** tstart() called on ds3
*** at Tue Apr 28 13:50:50 2020

   => Loading Basis Set <=

    Name: CC-PVDZ
    Role: ORBITAL
    Keyword: BASIS
    atoms 1-7, 16-23  entry C          line   138 file /theoryfs2/ds/metcalf/miniconda2/envs/tf2gpu/share/psi4/basis/cc-pvdz.gbs
    atoms 8-15, 24-33 entry H          line    22 file /theoryfs2/ds/metcalf/miniconda2/envs/tf2gpu/share/psi4/basis/cc-pvdz.gbs

         ---------------------------------------------------------
                                   SCF
               by Justin Turney, Rob Parrish, Andy Simmonett
                          and Daniel G. A. Smith
                              RHF Reference
                        1 Threads,    500 MiB Core
         ---------------------------------------------------------

  ==> Geometry <==

    Molecular point group: c1
    Full point group: C1

    Geometry (in Angstrom), charge = 0, multiplicity = 1:

       Center              X                  Y                   Z               Mass
    ------------   -----------------  -----------------  -----------------  -----------------
         C            3.485281173698     0.353217258317     3.008946816610    12.000000000000
         C            0.664281173698    -1.817782741683     1.597946816610    12.000000000000
         C            1.342281173698    -0.800782741683     2.280946816610    12.000000000000
         C            1.387281173698    -2.760782741683     0.871946816610    12.000000000000
         C            2.742281173698    -0.729782741683     2.258946816610    12.000000000000
         C            2.785281173698    -2.689782741683     0.836946816610    12.000000000000
         C            3.454281173698    -1.676782741683     1.534946816610    12.000000000000
         H           -0.414718826302    -1.858782741683     1.628946816610     1.007825032230
         H            0.771281173698    -0.059782741683     2.820946816610     1.007825032230
         H            0.872281173698    -3.540782741683     0.327946816610     1.007825032230
         H            3.348281173698    -3.420782741683     0.273946816610     1.007825032230
         H            2.846281173698     1.236217258317     3.034946816610     1.007825032230
         H            4.377281173698     0.634217258317     2.450946816610     1.007825032230
         H            4.535281173698    -1.634782741683     1.505946816610     1.007825032230
         H            3.760101173698     0.085517258317     4.039876816610     1.007825032230
         C           -0.121718826302     0.415217258317    -1.444053183390    12.000000000000
         C            0.692281173698     1.053217258317    -2.572053183390    12.000000000000
         C           -1.526718826302     0.918217258317    -1.388053183390    12.000000000000
         C           -2.576718826302     0.102217258317    -1.790053183390    12.000000000000
         C           -1.785718826302     2.224217258317    -0.989053183390    12.000000000000
         C           -3.876718826302     0.580217258317    -1.769053183390    12.000000000000
         C           -3.084718826302     2.703217258317    -0.967053183390    12.000000000000
         C           -4.128718826302     1.881217258317    -1.361053183390    12.000000000000
         H           -0.130718826302    -0.669782741683    -1.567053183390     1.007825032230
         H            0.366281173698     0.629217258317    -0.491053183390     1.007825032230
         H            0.842281173698     2.107217258317    -2.334053183390     1.007825032230
         H           -2.390718826302    -0.917782741683    -2.094053183390     1.007825032230
         H           -0.973718826302     2.870217258317    -0.687053183390     1.007825032230
         H           -4.697718826302    -0.059782741683    -2.064053183390     1.007825032230
         H           -3.290718826302     3.710217258317    -0.633053183390     1.007825032230
         H           -5.142718826302     2.253217258317    -1.337053183390     1.007825032230
         H            0.162581173698     0.970967258317    -3.532603183390     1.007825032230
         H            1.681451173698     0.579347258317    -2.655635183390     1.007825032230

  Running in c1 symmetry.

  Rotational constants: A =      0.03464  B =      0.00753  C =      0.00732 [cm^-1]
  Rotational constants: A =   1038.61750  B =    225.77435  C =    219.39471 [MHz]
  Nuclear repulsion =  860.159880422811739

  Charge       = 0
  Multiplicity = 1
  Electrons    = 108
  Nalpha       = 54
  Nbeta        = 54

  ==> Algorithm <==

  SCF Algorithm Type is PK.
  DIIS enabled.
  MOM disabled.
  Fractional occupation disabled.
  Guess Type is SAD.
  Energy threshold   = 1.00e-06
  Density threshold  = 1.00e-10
  Integral threshold = 0.00e+00

  ==> Primary Basis <==

  Basis Set: CC-PVDZ
    Blend: CC-PVDZ
    Number of shells: 144
    Number of basis function: 300
    Number of Cartesian functions: 315
    Spherical Harmonics?: true
    Max angular momentum: 2

  ==> Pre-Iterations <==

   -------------------------------------------------------
    Irrep   Nso     Nmo     Nalpha   Nbeta   Ndocc  Nsocc
   -------------------------------------------------------
     A        300     300       0       0       0       0
   -------------------------------------------------------
    Total     300     300      54      54      54       0
   -------------------------------------------------------

  ==> Integral Setup <==

  Using integral reordering PK algorithm.
  Sizing the integral batches needed.
  Building batch lookup table.
   Calculation information:
      Number of atoms:                  33
      Number of AO shells:             144
      Number of primitives:            420
      Number of atomic orbitals:       315
      Number of basis functions:       300

      Integral cutoff                 1.00e-12
      Number of threads:                 1

	Batch   1 pq = [       0,    9405] index = [             0,44231715] size =     44231715
	Batch   2 pq = [    9405,   13301] index = [      44231715,88464951] size =     44233236
	Batch   3 pq = [   13301,   16290] index = [      88464951,132690195] size =     44225244
	Batch   4 pq = [   16290,   18810] index = [     132690195,176917455] size =     44227260
	Batch   5 pq = [   18810,   21030] index = [     176917455,221140965] size =     44223510
	Batch   6 pq = [   21030,   23037] index = [     221140965,265363203] size =     44222238
	Batch   7 pq = [   23037,   24883] index = [     265363203,309594286] size =     44231083
	Batch   8 pq = [   24883,   26601] index = [     309594286,353819901] size =     44225615
	Batch   9 pq = [   26601,   28214] index = [     353819901,398029005] size =     44209104
	Batch  10 pq = [   28214,   29740] index = [     398029005,442248670] size =     44219665
	Batch  11 pq = [   29740,   31191] index = [     442248670,486454836] size =     44206166
	Batch  12 pq = [   31191,   32578] index = [     486454836,530679331] size =     44224495
	Batch  13 pq = [   32578,   33908] index = [     530679331,574893186] size =     44213855
	Batch  14 pq = [   33908,   35188] index = [     574893186,619115266] size =     44222080
	Batch  15 pq = [   35188,   36423] index = [     619115266,663335676] size =     44220410
	Batch  16 pq = [   36423,   37617] index = [     663335676,707538153] size =     44202477
	Batch  17 pq = [   37617,   38775] index = [     707538153,751769700] size =     44231547
	Batch  18 pq = [   38775,   39899] index = [     751769700,795985050] size =     44215350
	Batch  19 pq = [   39899,   40992] index = [     795985050,840192528] size =     44207478
	Batch  20 pq = [   40992,   42057] index = [     840192528,884416653] size =     44224125
	Batch  21 pq = [   42057,   43095] index = [     884416653,928611060] size =     44194407
	Batch  22 pq = [   43095,   44109] index = [     928611060,972823995] size =     44212935
	Batch  23 pq = [   44109,   45150] index = [     972823995,1019283825] size =     46459830
  Task number: 93
  Buffer size: 11059200
  Buffer per thread: 2
  We computed 48446067 shell quartets total.
  Whereas there are 54502020 unique shell quartets.

  ==> DiskJK: Disk-Based J/K Matrices <==

    J tasked:                  Yes
    K tasked:                  Yes
    wK tasked:                  No
    Memory [MiB]:              375
    Schwarz Cutoff:          1E-12

    OpenMP threads:              1

  Minimum eigenvalue in the overlap matrix is 3.0268453745E-04.
  Using Symmetric Orthogonalization.

  SCF Guess: Superposition of Atomic Densities via on-the-fly atomic UHF.

  ==> Iterations <==

                        Total Energy        Delta E     RMS |[F,P]|

   @RHF iter SAD:  -577.39740725437969   -5.77397e+02   0.00000e+00
   @RHF iter   1:  -578.23826998313825   -8.40863e-01   2.21876e-03 DIIS
   @RHF iter   2:  -578.51219959847128   -2.73930e-01   9.11032e-04 DIIS
   @RHF iter   3:  -578.55317561134666   -4.09760e-02   2.09393e-04 DIIS
   @RHF iter   4:  -578.55666358656413   -3.48798e-03   5.35958e-05 DIIS
   @RHF iter   5:  -578.55682228046578   -1.58694e-04   1.69404e-05 DIIS
   @RHF iter   6:  -578.55683886480392   -1.65843e-05   3.95390e-06 DIIS
   @RHF iter   7:  -578.55684000872793   -1.14392e-06   1.05153e-06 DIIS
   @RHF iter   8:  -578.55684011527228   -1.06544e-07   3.55029e-07 DIIS
   @RHF iter   9:  -578.55684013717723   -2.19050e-08   1.67558e-07 DIIS
   @RHF iter  10:  -578.55684014319559   -6.01835e-09   8.73163e-08 DIIS
   @RHF iter  11:  -578.55684014512917   -1.93359e-09   3.24157e-08 DIIS
   @RHF iter  12:  -578.55684014532699   -1.97815e-10   1.28015e-08 DIIS
   @RHF iter  13:  -578.55684014534802   -2.10321e-11   4.11528e-09 DIIS
   @RHF iter  14:  -578.55684014535666   -8.64020e-12   1.15544e-09 DIIS
   @RHF iter  15:  -578.55684014534972    6.93490e-12   4.12276e-10 DIIS
   @RHF iter  16:  -578.55684014535746   -7.73070e-12   1.65615e-10 DIIS
   @RHF iter  17:  -578.55684014535450    2.95586e-12   8.45289e-11 DIIS
  Energy and wave function converged.

  ==> Post-Iterations <==

    Orbital Energies [Eh]
    ---------------------

    Doubly Occupied:

       1A    -11.242837     2A    -11.238542     3A    -11.237555
       4A    -11.233885     5A    -11.233314     6A    -11.232018
       7A    -11.231886     8A    -11.231533     9A    -11.231164
      10A    -11.230845    11A    -11.226487    12A    -11.225967
      13A    -11.225778    14A    -11.220020    15A    -11.218051
      16A     -1.154863    17A     -1.150733    18A     -1.060731
      19A     -1.043620    20A     -1.011924    21A     -1.010077
      22A     -0.976602    23A     -0.931581    24A     -0.858466
      25A     -0.825322    26A     -0.823103    27A     -0.795694
      28A     -0.781858    29A     -0.690527    30A     -0.689192
      31A     -0.637663    32A     -0.631766    33A     -0.629921
      34A     -0.629797    35A     -0.588413    36A     -0.584995
      37A     -0.582390    38A     -0.578132    39A     -0.573355
      40A     -0.562818    41A     -0.537351    42A     -0.534517
      43A     -0.513059    44A     -0.496309    45A     -0.487810
      46A     -0.485729    47A     -0.481710    48A     -0.478188
      49A     -0.471037    50A     -0.463978    51A     -0.331762
      52A     -0.331509    53A     -0.323258    54A     -0.318269

    Virtual:

      55A      0.131790    56A      0.138571    57A      0.140054
      58A      0.145565    59A      0.174937    60A      0.190063
      61A      0.196654    62A      0.206524    63A      0.214423
      64A      0.218664    65A      0.239075    66A      0.244308
      67A      0.249468    68A      0.258260    69A      0.259017
      70A      0.260834    71A      0.267616    72A      0.282406
      73A      0.289021    74A      0.293787    75A      0.309408
      76A      0.315464    77A      0.350359    78A      0.363435
      79A      0.374311    80A      0.397897    81A      0.419840
      82A      0.449719    83A      0.456895    84A      0.459636
      85A      0.471124    86A      0.477947    87A      0.485546
      88A      0.496634    89A      0.502387    90A      0.560559
      91A      0.578918    92A      0.588184    93A      0.598068
      94A      0.604104    95A      0.622275    96A      0.641684
      97A      0.651130    98A      0.676481    99A      0.683382
     100A      0.686339   101A      0.696000   102A      0.702013
     103A      0.717650   104A      0.721919   105A      0.727968
     106A      0.735706   107A      0.738969   108A      0.739601
     109A      0.743763   110A      0.746601   111A      0.752694
     112A      0.754959   113A      0.755712   114A      0.764948
     115A      0.775625   116A      0.795983   117A      0.799833
     118A      0.806107   119A      0.825590   120A      0.833428
     121A      0.846403   122A      0.853261   123A      0.862659
     124A      0.863650   125A      0.872567   126A      0.879064
     127A      0.883461   128A      0.892166   129A      0.894542
     130A      0.899016   131A      0.901978   132A      0.905845
     133A      0.909910   134A      0.916194   135A      0.925482
     136A      0.926474   137A      0.937361   138A      0.938674
     139A      0.953407   140A      0.967455   141A      0.978241
     142A      0.984444   143A      0.999704   144A      1.012933
     145A      1.020090   146A      1.044548   147A      1.054390
     148A      1.081276   149A      1.120429   150A      1.125914
     151A      1.136272   152A      1.140884   153A      1.149302
     154A      1.153301   155A      1.158244   156A      1.164675
     157A      1.186442   158A      1.196833   159A      1.223751
     160A      1.234350   161A      1.241084   162A      1.246862
     163A      1.251809   164A      1.256956   165A      1.257575
     166A      1.258637   167A      1.295775   168A      1.303285
     169A      1.304637   170A      1.310601   171A      1.317757
     172A      1.321159   173A      1.325776   174A      1.330436
     175A      1.393839   176A      1.411270   177A      1.432922
     178A      1.455177   179A      1.504902   180A      1.512535
     181A      1.520371   182A      1.527157   183A      1.549975
     184A      1.596939   185A      1.606859   186A      1.621854
     187A      1.676630   188A      1.684589   189A      1.698052
     190A      1.701223   191A      1.716186   192A      1.730730
     193A      1.747126   194A      1.753479   195A      1.762074
     196A      1.771089   197A      1.773785   198A      1.790650
     199A      1.806300   200A      1.840166   201A      1.855083
     202A      1.858943   203A      1.876097   204A      1.882146
     205A      1.887020   206A      1.893661   207A      1.899906
     208A      1.905279   209A      1.907041   210A      1.910550
     211A      1.915099   212A      1.922737   213A      1.928488
     214A      1.938675   215A      1.941670   216A      1.947111
     217A      1.955490   218A      1.958081   219A      1.966887
     220A      1.968429   221A      1.971304   222A      1.982580
     223A      1.987577   224A      2.003218   225A      2.016176
     226A      2.030933   227A      2.031741   228A      2.048722
     229A      2.054225   230A      2.064252   231A      2.069446
     232A      2.070020   233A      2.099418   234A      2.107103
     235A      2.124958   236A      2.140410   237A      2.148237
     238A      2.155152   239A      2.163680   240A      2.166392
     241A      2.169601   242A      2.172106   243A      2.176732
     244A      2.185708   245A      2.209898   246A      2.249299
     247A      2.251720   248A      2.257202   249A      2.273540
     250A      2.282160   251A      2.289151   252A      2.301476
     253A      2.304396   254A      2.305839   255A      2.316206
     256A      2.326164   257A      2.347037   258A      2.377810
     259A      2.463094   260A      2.465636   261A      2.474859
     262A      2.484392   263A      2.485937   264A      2.488333
     265A      2.533434   266A      2.544687   267A      2.557996
     268A      2.595909   269A      2.613129   270A      2.648831
     271A      2.736258   272A      2.746487   273A      2.750843
     274A      2.765196   275A      2.769486   276A      2.777767
     277A      2.782226   278A      2.794293   279A      2.804119
     280A      2.807711   281A      2.847500   282A      2.853728
     283A      2.869028   284A      2.880523   285A      2.921695
     286A      2.966452   287A      2.977897   288A      3.001864
     289A      3.005233   290A      3.019045   291A      3.034594
     292A      3.072375   293A      3.143271   294A      3.189339
     295A      3.196637   296A      3.221443   297A      3.284244
     298A      3.325354   299A      3.948603   300A      3.997554

    Final Occupation by Irrep:
              A
    DOCC [    54 ]

  @RHF Final Energy:  -578.55684014535450

   => Energetics <=

    Nuclear Repulsion Energy =            860.1598804228117388
    One-Electron Energy =               -2488.3976206953443580
    Two-Electron Energy =                1049.6809001271781199
    Total Energy =                       -578.5568401453544993

Computation Completed

Properties will be evaluated at   0.000000,   0.000000,   0.000000 [a0]

Properties computed using the SCF density matrix

  Nuclear Dipole Moment: [e a0]
     X:     6.1145      Y:     2.7319      Z:    -1.2301

  Electronic Dipole Moment: [e a0]
     X:    -5.8832      Y:    -2.7160      Z:     1.3449

  Dipole Moment: [e a0]
     X:     0.2313      Y:     0.0159      Z:     0.1148     Total:     0.2587

  Dipole Moment: [D]
     X:     0.5879      Y:     0.0404      Z:     0.2917     Total:     0.6576

*** tstop() called on ds3 at Tue Apr 28 14:02:32 2020
Module time:
	user time   =     413.47 seconds =       6.89 minutes
	system time =     165.85 seconds =       2.76 minutes
	total time  =        702 seconds =      11.70 minutes
Total time:
	user time   =     413.47 seconds =       6.89 minutes
	system time =     165.85 seconds =       2.76 minutes
	total time  =        702 seconds =      11.70 minutes
                                     G D M A

                                 by Anthony Stone

                           version 2.2.06, 22 June 2011

               Distributed Multipoles from Gaussian wavefunctions

Starting at 14:2:32 on 28 Apr 2020

Using SCF density matrix from file ./SSI/SSI-042PHE-085PHE-1-dimer.test.22285.fchk

                         Distributed Multipole Analysis

Standard DMA

Positions and radii in angstrom
Multipole moments in atomic units, ea_0^k for rank k

C          x =  3.485281  y =  0.353217  z =  3.008947 angstrom
           Maximum rank =  0   Radius =  0.650 angstrom
                   Q00  =  -0.205006

C          x =  0.664281  y = -1.817783  z =  1.597947 angstrom
           Maximum rank =  0   Radius =  0.650 angstrom
                   Q00  =  -0.063770

C          x =  1.342281  y = -0.800783  z =  2.280947 angstrom
           Maximum rank =  0   Radius =  0.650 angstrom
                   Q00  =  -0.005770

C          x =  1.387281  y = -2.760783  z =  0.871947 angstrom
           Maximum rank =  0   Radius =  0.650 angstrom
                   Q00  =  -0.091037

C          x =  2.742281  y = -0.729783  z =  2.258947 angstrom
           Maximum rank =  0   Radius =  0.650 angstrom
                   Q00  =  -0.100879

C          x =  2.785281  y = -2.689783  z =  0.836947 angstrom
           Maximum rank =  0   Radius =  0.650 angstrom
                   Q00  =  -0.063138

C          x =  3.454281  y = -1.676783  z =  1.534947 angstrom
           Maximum rank =  0   Radius =  0.650 angstrom
                   Q00  =  -0.087556

H          x = -0.414719  y = -1.858783  z =  1.628947 angstrom
           Maximum rank =  0   Radius =  0.325 angstrom
                   Q00  =   0.069988

H          x =  0.771281  y = -0.059783  z =  2.820947 angstrom
           Maximum rank =  0   Radius =  0.325 angstrom
                   Q00  =   0.059601

H          x =  0.872281  y = -3.540783  z =  0.327947 angstrom
           Maximum rank =  0   Radius =  0.325 angstrom
                   Q00  =   0.062184

H          x =  3.348281  y = -3.420783  z =  0.273947 angstrom
           Maximum rank =  0   Radius =  0.325 angstrom
                   Q00  =   0.066519

H          x =  2.846281  y =  1.236217  z =  3.034947 angstrom
           Maximum rank =  0   Radius =  0.325 angstrom
                   Q00  =   0.096349

H          x =  4.377281  y =  0.634217  z =  2.450947 angstrom
           Maximum rank =  0   Radius =  0.325 angstrom
                   Q00  =   0.098841

H          x =  4.535281  y = -1.634783  z =  1.505947 angstrom
           Maximum rank =  0   Radius =  0.325 angstrom
                   Q00  =   0.057424

H          x =  3.760101  y =  0.085517  z =  4.039877 angstrom
           Maximum rank =  0   Radius =  0.325 angstrom
                   Q00  =   0.107245

C          x = -0.121719  y =  0.415217  z = -1.444053 angstrom
           Maximum rank =  0   Radius =  0.650 angstrom
                   Q00  =  -0.017776

C          x =  0.692281  y =  1.053217  z = -2.572053 angstrom
           Maximum rank =  0   Radius =  0.650 angstrom
                   Q00  =  -0.241283

C          x = -1.526719  y =  0.918217  z = -1.388053 angstrom
           Maximum rank =  0   Radius =  0.650 angstrom
                   Q00  =  -0.108240

C          x = -2.576719  y =  0.102217  z = -1.790053 angstrom
           Maximum rank =  0   Radius =  0.650 angstrom
                   Q00  =  -0.084868

C          x = -1.785719  y =  2.224217  z = -0.989053 angstrom
           Maximum rank =  0   Radius =  0.650 angstrom
                   Q00  =  -0.061067

C          x = -3.876719  y =  0.580217  z = -1.769053 angstrom
           Maximum rank =  0   Radius =  0.650 angstrom
                   Q00  =  -0.077406

C          x = -3.084719  y =  2.703217  z = -0.967053 angstrom
           Maximum rank =  0   Radius =  0.650 angstrom
                   Q00  =  -0.065433

C          x = -4.128719  y =  1.881217  z = -1.361053 angstrom
           Maximum rank =  0   Radius =  0.650 angstrom
                   Q00  =  -0.018141

H          x = -0.130719  y = -0.669783  z = -1.567053 angstrom
           Maximum rank =  0   Radius =  0.325 angstrom
                   Q00  =   0.061943

H          x =  0.366281  y =  0.629217  z = -0.491053 angstrom
           Maximum rank =  0   Radius =  0.325 angstrom
                   Q00  =   0.074147

H          x =  0.842281  y =  2.107217  z = -2.334053 angstrom
           Maximum rank =  0   Radius =  0.325 angstrom
                   Q00  =   0.077911

H          x = -2.390719  y = -0.917783  z = -2.094053 angstrom
           Maximum rank =  0   Radius =  0.325 angstrom
                   Q00  =   0.055080

H          x = -0.973719  y =  2.870217  z = -0.687053 angstrom
           Maximum rank =  0   Radius =  0.325 angstrom
                   Q00  =   0.054477

H          x = -4.697719  y = -0.059783  z = -2.064053 angstrom
           Maximum rank =  0   Radius =  0.325 angstrom
                   Q00  =   0.062360

H          x = -3.290719  y =  3.710217  z = -0.633053 angstrom
           Maximum rank =  0   Radius =  0.325 angstrom
                   Q00  =   0.062303

H          x = -5.142719  y =  2.253217  z = -1.337053 angstrom
           Maximum rank =  0   Radius =  0.325 angstrom
                   Q00  =   0.058031

H          x =  0.162581  y =  0.970967  z = -3.532603 angstrom
           Maximum rank =  0   Radius =  0.325 angstrom
                   Q00  =   0.081912

H          x =  1.681451  y =  0.579347  z = -2.655635 angstrom
           Maximum rank =  0   Radius =  0.325 angstrom
                   Q00  =   0.085057

Total multipoles referred to origin at
           x =   0.000000,  y =    0.000000,  z =    0.000000 angstrom
                   Q00  =  -0.000000

Finished at 14:2:32 on 28 Apr 2020

  DMA results are available in the Python driver through the
	  variable('DMA DISTRIBUTED MULTIPOLES')
  and
	  variable('DMA TOTAL MULTIPOLES')
  commands.

    Psi4 stopped on: Tuesday, 28 April 2020 02:02PM
    Psi4 wall time for execution: 0:11:41.84

*** Psi4 exiting successfully. Buy a developer a beer!
