                               Psi4 1.3.2 release

  ==> Input File <==

--------------------------------------------------------------------------
import numpy as np
set {scf_type pk
basis cc-pvdz
d_convergence 10
gdma_switch   0
gdma_limit    0
gdma_origin   [ 0.0,  0.0,  0.0 ]
}
molecule test {
    units Angstrom
    2 1
    --
    2 1
    C               -1.611990069285540     1.825186715550658    -0.068069945077462
    C               -2.471990069285539     0.629186715550659     0.397930054922538
    C               -0.610990069285539     0.223186715550659    -1.648069945077463
    N               -0.613990069285540     1.409186715550659    -1.060069945077462
    N               -1.578990069285540    -0.653813284449342    -1.449069945077462
    N                0.360009930714460    -0.106813284449341    -2.471069945077462
    H               -2.254990069285539     2.602186715550658    -0.482069945077462
    H               -1.077990069285540     2.233186715550658     0.791930054922538
    H               -1.845990069285540    -0.232813284449341     0.647930054922538
    H               -3.360990069285539     0.480186715550659    -0.222069945077462
    H                0.087009930714460     2.083186715550658    -1.335069945077462
    H               -2.514990069285539    -0.295813284449341    -1.386069945077463
    H               -1.487990069285539    -1.569813284449342    -1.865069945077462
    H                1.123009930714461     0.525186715550659    -2.653069945077462
    H                0.411009930714461    -1.031813284449342    -2.867069945077462
    H               -2.767870069285539     0.629186715550659     1.457390054922537
    C                0.964009930714461    -2.549813284449342     0.947930054922538
    C                1.391009930714461    -0.167813284449341     1.331930054922537
    N                1.499009930714460    -1.259813284449341     0.573930054922538
    N                0.703009930714460    -0.195813284449341     2.475930054922538
    N                1.930009930714460     0.989186715550659     0.944930054922538
    H                2.002009930714460    -1.204813284449342    -0.315069945077462
    H                0.318009930714460    -1.071813284449342     2.818930054922538
    H                0.547009930714460     0.661186715550659     3.004930054922538
    H                2.490009930714460     1.005186715550659     0.102930054922538
    H                1.786009930714460     1.830186715550659     1.486930054922537
    H                0.806009930714460    -3.131813284449342     0.037930054922538
    H               -0.008990069285540    -2.461813284449342     1.429930054922538
    H                1.667159930714460    -3.102553284449342     1.588290054922538

}
e, wfn = energy('scf', return_wfn=True)
gdma(wfn)
dmavals = variable('DMA DISTRIBUTED MULTIPOLES')
charges = np.array(dmavals)
print(charges)
np.save('SSI-001ARG-013ARG-1-dimer.npy', np.array(charges))--------------------------------------------------------------------------

*** tstart() called on ds3
*** at Tue Apr 28 01:23:32 2020

   => Loading Basis Set <=

    Name: CC-PVDZ
    Role: ORBITAL
    Keyword: BASIS
    atoms 1-3, 17-18  entry C          line   138 file /theoryfs2/ds/metcalf/miniconda2/envs/tf2gpu/share/psi4/basis/cc-pvdz.gbs
    atoms 4-6, 19-21  entry N          line   168 file /theoryfs2/ds/metcalf/miniconda2/envs/tf2gpu/share/psi4/basis/cc-pvdz.gbs
    atoms 7-16, 22-29 entry H          line    22 file /theoryfs2/ds/metcalf/miniconda2/envs/tf2gpu/share/psi4/basis/cc-pvdz.gbs

         ---------------------------------------------------------
                                   SCF
               by Justin Turney, Rob Parrish, Andy Simmonett
                          and Daniel G. A. Smith
                              RHF Reference
                        1 Threads,    500 MiB Core
         ---------------------------------------------------------

  ==> Geometry <==

    Molecular point group: c1
    Full point group: C1

    Geometry (in Angstrom), charge = 2, multiplicity = 1:

       Center              X                  Y                   Z               Mass
    ------------   -----------------  -----------------  -----------------  -----------------
         C           -1.611990069286     1.825186715551    -0.068069945077    12.000000000000
         C           -2.471990069286     0.629186715551     0.397930054923    12.000000000000
         C           -0.610990069286     0.223186715551    -1.648069945077    12.000000000000
         N           -0.613990069286     1.409186715551    -1.060069945077    14.003074004430
         N           -1.578990069286    -0.653813284449    -1.449069945077    14.003074004430
         N            0.360009930714    -0.106813284449    -2.471069945077    14.003074004430
         H           -2.254990069286     2.602186715551    -0.482069945077     1.007825032230
         H           -1.077990069286     2.233186715551     0.791930054923     1.007825032230
         H           -1.845990069286    -0.232813284449     0.647930054923     1.007825032230
         H           -3.360990069286     0.480186715551    -0.222069945077     1.007825032230
         H            0.087009930714     2.083186715551    -1.335069945077     1.007825032230
         H           -2.514990069286    -0.295813284449    -1.386069945077     1.007825032230
         H           -1.487990069286    -1.569813284449    -1.865069945077     1.007825032230
         H            1.123009930714     0.525186715551    -2.653069945077     1.007825032230
         H            0.411009930714    -1.031813284449    -2.867069945077     1.007825032230
         H           -2.767870069286     0.629186715551     1.457390054923     1.007825032230
         C            0.964009930714    -2.549813284449     0.947930054923    12.000000000000
         C            1.391009930714    -0.167813284449     1.331930054923    12.000000000000
         N            1.499009930714    -1.259813284449     0.573930054923    14.003074004430
         N            0.703009930714    -0.195813284449     2.475930054923    14.003074004430
         N            1.930009930714     0.989186715551     0.944930054923    14.003074004430
         H            2.002009930714    -1.204813284449    -0.315069945077     1.007825032230
         H            0.318009930714    -1.071813284449     2.818930054923     1.007825032230
         H            0.547009930714     0.661186715551     3.004930054923     1.007825032230
         H            2.490009930714     1.005186715551     0.102930054923     1.007825032230
         H            1.786009930714     1.830186715551     1.486930054923     1.007825032230
         H            0.806009930714    -3.131813284449     0.037930054923     1.007825032230
         H           -0.008990069286    -2.461813284449     1.429930054923     1.007825032230
         H            1.667159930714    -3.102553284449     1.588290054923     1.007825032230

  Running in c1 symmetry.

  Rotational constants: A =      0.04028  B =      0.02471  C =      0.02217 [cm^-1]
  Rotational constants: A =   1207.63344  B =    740.79701  C =    664.49894 [MHz]
  Nuclear repulsion =  715.945552839507855

  Charge       = 2
  Multiplicity = 1
  Electrons    = 88
  Nalpha       = 44
  Nbeta        = 44

  ==> Algorithm <==

  SCF Algorithm Type is PK.
  DIIS enabled.
  MOM disabled.
  Fractional occupation disabled.
  Guess Type is SAD.
  Energy threshold   = 1.00e-06
  Density threshold  = 1.00e-10
  Integral threshold = 0.00e+00

  ==> Primary Basis <==

  Basis Set: CC-PVDZ
    Blend: CC-PVDZ
    Number of shells: 120
    Number of basis function: 244
    Number of Cartesian functions: 255
    Spherical Harmonics?: true
    Max angular momentum: 2

  ==> Pre-Iterations <==

   -------------------------------------------------------
    Irrep   Nso     Nmo     Nalpha   Nbeta   Ndocc  Nsocc
   -------------------------------------------------------
     A        244     244       0       0       0       0
   -------------------------------------------------------
    Total     244     244      44      44      44       0
   -------------------------------------------------------

  ==> Integral Setup <==

  Using integral reordering PK algorithm.
  Sizing the integral batches needed.
  Building batch lookup table.
   Calculation information:
      Number of atoms:                  29
      Number of AO shells:             120
      Number of primitives:            332
      Number of atomic orbitals:       255
      Number of basis functions:       244

      Integral cutoff                 1.00e-12
      Number of threads:                 1

	Batch   1 pq = [       0,    9405] index = [             0,44231715] size =     44231715
	Batch   2 pq = [    9405,   13301] index = [      44231715,88464951] size =     44233236
	Batch   3 pq = [   13301,   16290] index = [      88464951,132690195] size =     44225244
	Batch   4 pq = [   16290,   18810] index = [     132690195,176917455] size =     44227260
	Batch   5 pq = [   18810,   21030] index = [     176917455,221140965] size =     44223510
	Batch   6 pq = [   21030,   23037] index = [     221140965,265363203] size =     44222238
	Batch   7 pq = [   23037,   24883] index = [     265363203,309594286] size =     44231083
	Batch   8 pq = [   24883,   26601] index = [     309594286,353819901] size =     44225615
	Batch   9 pq = [   26601,   28214] index = [     353819901,398029005] size =     44209104
	Batch  10 pq = [   28214,   29740] index = [     398029005,442248670] size =     44219665
	Batch  11 pq = [   29740,   29890] index = [     442248670,446720995] size =      4472325
  Task number: 41
  Buffer size: 11059200
  Buffer per thread: 2
  We computed 31185705 shell quartets total.
  Whereas there are 26357430 unique shell quartets.
    18.32 percent of shell quartets recomputed by reordering.

  ==> DiskJK: Disk-Based J/K Matrices <==

    J tasked:                  Yes
    K tasked:                  Yes
    wK tasked:                  No
    Memory [MiB]:              375
    Schwarz Cutoff:          1E-12

    OpenMP threads:              1

  Minimum eigenvalue in the overlap matrix is 2.8571188824E-03.
  Using Symmetric Orthogonalization.

  SCF Guess: Superposition of Atomic Densities via on-the-fly atomic UHF.

  ==> Iterations <==

                        Total Energy        Delta E     RMS |[F,P]|

   @RHF iter SAD:  -526.03601190699828   -5.26036e+02   0.00000e+00
   @RHF iter   1:  -525.76144213774819    2.74570e-01   2.84706e-03 DIIS
   @RHF iter   2:  -526.00382872787543   -2.42387e-01   1.09893e-03 DIIS
   @RHF iter   3:  -526.03742491091191   -3.35962e-02   2.86469e-04 DIIS
   @RHF iter   4:  -526.04098576520448   -3.56085e-03   5.04546e-05 DIIS
   @RHF iter   5:  -526.04110784067598   -1.22075e-04   2.03706e-05 DIIS
   @RHF iter   6:  -526.04112723844787   -1.93978e-05   4.90813e-06 DIIS
   @RHF iter   7:  -526.04112882605511   -1.58761e-06   1.59190e-06 DIIS
   @RHF iter   8:  -526.04112896012055   -1.34065e-07   4.49157e-07 DIIS
   @RHF iter   9:  -526.04112897092955   -1.08090e-08   1.18900e-07 DIIS
   @RHF iter  10:  -526.04112897178118   -8.51628e-10   3.75616e-08 DIIS
   @RHF iter  11:  -526.04112897189862   -1.17439e-10   1.31335e-08 DIIS
   @RHF iter  12:  -526.04112897191385   -1.52340e-11   4.60987e-09 DIIS
   @RHF iter  13:  -526.04112897191658   -2.72848e-12   1.58271e-09 DIIS
   @RHF iter  14:  -526.04112897191681   -2.27374e-13   4.16969e-10 DIIS
   @RHF iter  15:  -526.04112897191203    4.77485e-12   1.15161e-10 DIIS
   @RHF iter  16:  -526.04112897191010    1.93268e-12   3.67737e-11 DIIS
  Energy and wave function converged.

  ==> Post-Iterations <==

    Orbital Energies [Eh]
    ---------------------

    Doubly Occupied:

       1A    -15.907227     2A    -15.905375     3A    -15.903643
       4A    -15.902058     5A    -15.900615     6A    -15.878087
       7A    -11.709382     8A    -11.700001     9A    -11.551349
      10A    -11.548529    11A    -11.487843    12A     -1.661190
      13A     -1.653630    14A     -1.521322    15A     -1.518691
      16A     -1.502411    17A     -1.497941    18A     -1.299095
      19A     -1.254410    20A     -1.181252    21A     -1.148294
      22A     -1.136624    23A     -1.089587    24A     -1.079933
      25A     -1.051488    26A     -1.039202    27A     -0.985297
      28A     -0.974368    29A     -0.967580    30A     -0.965373
      31A     -0.943352    32A     -0.925496    33A     -0.909996
      34A     -0.908413    35A     -0.885561    36A     -0.853253
      37A     -0.831156    38A     -0.816924    39A     -0.797538
      40A     -0.759464    41A     -0.728977    42A     -0.702797
      43A     -0.698333    44A     -0.686718

    Virtual:

      45A     -0.148888    46A     -0.114524    47A     -0.106514
      48A     -0.104357    49A     -0.098549    50A     -0.076852
      51A     -0.074877    52A     -0.053341    53A     -0.041297
      54A     -0.034863    55A     -0.022401    56A     -0.011388
      57A     -0.006081    58A      0.004438    59A      0.012654
      60A      0.021169    61A      0.027094    62A      0.041960
      63A      0.053484    64A      0.082040    65A      0.097172
      66A      0.106325    67A      0.114010    68A      0.158103
      69A      0.179985    70A      0.211824    71A      0.222471
      72A      0.238261    73A      0.245707    74A      0.291563
      75A      0.333089    76A      0.341470    77A      0.359828
      78A      0.374947    79A      0.388359    80A      0.406764
      81A      0.410234    82A      0.419729    83A      0.423045
      84A      0.435003    85A      0.447065    86A      0.458587
      87A      0.467856    88A      0.471860    89A      0.493827
      90A      0.518289    91A      0.539451    92A      0.555592
      93A      0.569244    94A      0.586939    95A      0.587686
      96A      0.597530    97A      0.599119    98A      0.602066
      99A      0.604716   100A      0.623524   101A      0.629892
     102A      0.641587   103A      0.644344   104A      0.664360
     105A      0.667239   106A      0.681380   107A      0.691654
     108A      0.718749   109A      0.726782   110A      0.738777
     111A      0.747340   112A      0.772106   113A      0.777374
     114A      0.789362   115A      0.805214   116A      0.810555
     117A      0.819606   118A      0.830834   119A      0.857209
     120A      0.867901   121A      0.882531   122A      0.921118
     123A      0.954040   124A      0.968770   125A      0.976474
     126A      1.006091   127A      1.014163   128A      1.025440
     129A      1.050374   130A      1.057081   131A      1.068531
     132A      1.081615   133A      1.083615   134A      1.112228
     135A      1.145017   136A      1.167218   137A      1.168274
     138A      1.179395   139A      1.237254   140A      1.278891
     141A      1.283476   142A      1.291957   143A      1.358943
     144A      1.382738   145A      1.386792   146A      1.413148
     147A      1.424873   148A      1.430030   149A      1.451752
     150A      1.455126   151A      1.478591   152A      1.491391
     153A      1.520304   154A      1.532362   155A      1.542314
     156A      1.554453   157A      1.559455   158A      1.578526
     159A      1.585040   160A      1.595363   161A      1.621740
     162A      1.631920   163A      1.640934   164A      1.644381
     165A      1.652023   166A      1.659220   167A      1.667395
     168A      1.679224   169A      1.686775   170A      1.688882
     171A      1.703691   172A      1.708745   173A      1.724554
     174A      1.743965   175A      1.757954   176A      1.764548
     177A      1.775676   178A      1.797827   179A      1.822172
     180A      1.840974   181A      1.875343   182A      1.890411
     183A      1.902967   184A      1.925982   185A      1.936469
     186A      1.961511   187A      1.972579   188A      2.003923
     189A      2.008816   190A      2.021154   191A      2.045289
     192A      2.060803   193A      2.067089   194A      2.105967
     195A      2.118198   196A      2.144487   197A      2.150391
     198A      2.165355   199A      2.180685   200A      2.190225
     201A      2.206827   202A      2.222104   203A      2.236044
     204A      2.244533   205A      2.258035   206A      2.272901
     207A      2.285680   208A      2.320102   209A      2.336010
     210A      2.349724   211A      2.380630   212A      2.411459
     213A      2.428998   214A      2.472724   215A      2.479205
     216A      2.491884   217A      2.506122   218A      2.514832
     219A      2.533874   220A      2.582233   221A      2.596492
     222A      2.611813   223A      2.622830   224A      2.636625
     225A      2.664056   226A      2.682725   227A      2.693345
     228A      2.712954   229A      2.722799   230A      2.736899
     231A      2.755093   232A      2.774975   233A      2.808337
     234A      2.827711   235A      2.931243   236A      2.946463
     237A      2.981357   238A      2.997484   239A      3.018903
     240A      3.052804   241A      3.420352   242A      3.468950
     243A      3.494241   244A      3.510216

    Final Occupation by Irrep:
              A
    DOCC [    44 ]

  @RHF Final Energy:  -526.04112897191010

   => Energetics <=

    Nuclear Repulsion Energy =            715.9455528395078545
    One-Electron Energy =               -2107.2338124869866078
    Two-Electron Energy =                 865.2471306755686555
    Total Energy =                       -526.0411289719100978

Computation Completed

Properties will be evaluated at   0.000000,   0.000000,   0.000000 [a0]

Properties computed using the SCF density matrix

  Nuclear Dipole Moment: [e a0]
     X:    -3.8339      Y:    -1.9255      Z:     2.1043

  Electronic Dipole Moment: [e a0]
     X:     4.7643      Y:     1.8588      Z:    -2.5409

  Dipole Moment: [e a0]
     X:     0.9304      Y:    -0.0667      Z:    -0.4366     Total:     1.0299

  Dipole Moment: [D]
     X:     2.3648      Y:    -0.1696      Z:    -1.1098     Total:     2.6178

*** tstop() called on ds3 at Tue Apr 28 01:27:42 2020
Module time:
	user time   =     198.77 seconds =       3.31 minutes
	system time =      59.79 seconds =       1.00 minutes
	total time  =        250 seconds =       4.17 minutes
Total time:
	user time   =     198.77 seconds =       3.31 minutes
	system time =      59.79 seconds =       1.00 minutes
	total time  =        250 seconds =       4.17 minutes
                                     G D M A

                                 by Anthony Stone

                           version 2.2.06, 22 June 2011

               Distributed Multipoles from Gaussian wavefunctions

Starting at 1:27:43 on 28 Apr 2020

Using SCF density matrix from file ./SSI/SSI-001ARG-013ARG-1-dimer.test.8284.fchk

                         Distributed Multipole Analysis

Standard DMA

Positions and radii in angstrom
Multipole moments in atomic units, ea_0^k for rank k

C          x = -1.611990  y =  1.825187  z = -0.068070 angstrom
           Maximum rank =  0   Radius =  0.650 angstrom
                   Q00  =   0.011377

C          x = -2.471990  y =  0.629187  z =  0.397930 angstrom
           Maximum rank =  0   Radius =  0.650 angstrom
                   Q00  =  -0.273093

C          x = -0.610990  y =  0.223187  z = -1.648070 angstrom
           Maximum rank =  0   Radius =  0.650 angstrom
                   Q00  =   1.058457

N          x = -0.613990  y =  1.409187  z = -1.060070 angstrom
           Maximum rank =  0   Radius =  0.650 angstrom
                   Q00  =  -0.502264

N          x = -1.578990  y = -0.653813  z = -1.449070 angstrom
           Maximum rank =  0   Radius =  0.650 angstrom
                   Q00  =  -0.511017

N          x =  0.360010  y = -0.106813  z = -2.471070 angstrom
           Maximum rank =  0   Radius =  0.650 angstrom
                   Q00  =  -0.599429

H          x = -2.254990  y =  2.602187  z = -0.482070 angstrom
           Maximum rank =  0   Radius =  0.325 angstrom
                   Q00  =   0.136968

H          x = -1.077990  y =  2.233187  z =  0.791930 angstrom
           Maximum rank =  0   Radius =  0.325 angstrom
                   Q00  =   0.089283

H          x = -1.845990  y = -0.232813  z =  0.647930 angstrom
           Maximum rank =  0   Radius =  0.325 angstrom
                   Q00  =   0.061949

H          x = -3.360990  y =  0.480187  z = -0.222070 angstrom
           Maximum rank =  0   Radius =  0.325 angstrom
                   Q00  =   0.089887

H          x =  0.087010  y =  2.083187  z = -1.335070 angstrom
           Maximum rank =  0   Radius =  0.325 angstrom
                   Q00  =   0.237203

H          x = -2.514990  y = -0.295813  z = -1.386070 angstrom
           Maximum rank =  0   Radius =  0.325 angstrom
                   Q00  =   0.279954

H          x = -1.487990  y = -1.569813  z = -1.865070 angstrom
           Maximum rank =  0   Radius =  0.325 angstrom
                   Q00  =   0.245616

H          x =  1.123010  y =  0.525187  z = -2.653070 angstrom
           Maximum rank =  0   Radius =  0.325 angstrom
                   Q00  =   0.258337

H          x =  0.411010  y = -1.031813  z = -2.867070 angstrom
           Maximum rank =  0   Radius =  0.325 angstrom
                   Q00  =   0.272523

H          x = -2.767870  y =  0.629187  z =  1.457390 angstrom
           Maximum rank =  0   Radius =  0.325 angstrom
                   Q00  =   0.144867

C          x =  0.964010  y = -2.549813  z =  0.947930 angstrom
           Maximum rank =  0   Radius =  0.650 angstrom
                   Q00  =  -0.142365

C          x =  1.391010  y = -0.167813  z =  1.331930 angstrom
           Maximum rank =  0   Radius =  0.650 angstrom
                   Q00  =   1.056229

N          x =  1.499010  y = -1.259813  z =  0.573930 angstrom
           Maximum rank =  0   Radius =  0.650 angstrom
                   Q00  =  -0.479648

N          x =  0.703010  y = -0.195813  z =  2.475930 angstrom
           Maximum rank =  0   Radius =  0.650 angstrom
                   Q00  =  -0.597662

N          x =  1.930010  y =  0.989187  z =  0.944930 angstrom
           Maximum rank =  0   Radius =  0.650 angstrom
                   Q00  =  -0.598472

H          x =  2.002010  y = -1.204813  z = -0.315070 angstrom
           Maximum rank =  0   Radius =  0.325 angstrom
                   Q00  =   0.236949

H          x =  0.318010  y = -1.071813  z =  2.818930 angstrom
           Maximum rank =  0   Radius =  0.325 angstrom
                   Q00  =   0.286831

H          x =  0.547010  y =  0.661187  z =  3.004930 angstrom
           Maximum rank =  0   Radius =  0.325 angstrom
                   Q00  =   0.282587

H          x =  2.490010  y =  1.005187  z =  0.102930 angstrom
           Maximum rank =  0   Radius =  0.325 angstrom
                   Q00  =   0.260422

H          x =  1.786010  y =  1.830187  z =  1.486930 angstrom
           Maximum rank =  0   Radius =  0.325 angstrom
                   Q00  =   0.281678

H          x =  0.806010  y = -3.131813  z =  0.037930 angstrom
           Maximum rank =  0   Radius =  0.325 angstrom
                   Q00  =   0.153165

H          x = -0.008990  y = -2.461813  z =  1.429930 angstrom
           Maximum rank =  0   Radius =  0.325 angstrom
                   Q00  =   0.110956

H          x =  1.667160  y = -3.102553  z =  1.588290 angstrom
           Maximum rank =  0   Radius =  0.325 angstrom
                   Q00  =   0.148710

Total multipoles referred to origin at
           x =   0.000000,  y =    0.000000,  z =    0.000000 angstrom
                   Q00  =   2.000000

Finished at 1:27:43 on 28 Apr 2020

  DMA results are available in the Python driver through the
	  variable('DMA DISTRIBUTED MULTIPOLES')
  and
	  variable('DMA TOTAL MULTIPOLES')
  commands.

    Psi4 stopped on: Tuesday, 28 April 2020 01:27AM
    Psi4 wall time for execution: 0:04:10.91

*** Psi4 exiting successfully. Buy a developer a beer!
