                               Psi4 1.3.2 release

  ==> Input File <==

--------------------------------------------------------------------------
import numpy as np
set {scf_type pk
basis cc-pvdz
d_convergence 10
gdma_switch   0
gdma_limit    0
gdma_origin   [ 0.0,  0.0,  0.0 ]
}
molecule test {
    units Angstrom
    0 1
    --
    0 1
    C               -0.135627388875815     0.288366954073741    -1.926310710431395
    C                0.317372611124185    -1.166633045926258    -2.032310710431395
    H               -0.890627388875815     0.394366954073741    -1.147310710431395
    H                0.720372611124185     0.917366954073742    -1.682310710431395
    H               -0.542627388875815     0.626366954073742    -2.878310710431395
    H                0.943372611124185    -1.273633045926258    -2.919310710431395
    H               -0.548527388875815    -1.841623045926258    -2.100240710431395
    H                0.915492611124185    -1.419333045926259    -1.144400710431395
    C                0.638372611124185     0.398366954073741     1.772689289568605
    C               -0.825627388875815     0.478366954073741     2.185689289568605
    H                1.283372611124185     0.623366954073741     2.622689289568605
    H                0.866372611124185    -0.608633045926258     1.433689289568605
    H                0.838372611124185     1.104366954073742     0.967689289568605
    H               -1.455627388875815     0.370366954073741     1.302689289568605
    H               -1.006317388875815     1.456666954073742     2.655039289568605
    H               -1.058027388875815    -0.331403045926259     2.892979289568605

}
e, wfn = energy('scf', return_wfn=True)
gdma(wfn)
dmavals = variable('DMA DISTRIBUTED MULTIPOLES')
charges = np.array(dmavals)
print(charges)
np.save('SSI-079THR-089LEU-1-dimer.npy', np.array(charges))--------------------------------------------------------------------------

*** tstart() called on ds3
*** at Mon Apr 27 22:35:35 2020

   => Loading Basis Set <=

    Name: CC-PVDZ
    Role: ORBITAL
    Keyword: BASIS
    atoms 1-2, 9-10  entry C          line   138 file /theoryfs2/ds/metcalf/miniconda2/envs/tf2gpu/share/psi4/basis/cc-pvdz.gbs
    atoms 3-8, 11-16 entry H          line    22 file /theoryfs2/ds/metcalf/miniconda2/envs/tf2gpu/share/psi4/basis/cc-pvdz.gbs

         ---------------------------------------------------------
                                   SCF
               by Justin Turney, Rob Parrish, Andy Simmonett
                          and Daniel G. A. Smith
                              RHF Reference
                        1 Threads,    500 MiB Core
         ---------------------------------------------------------

  ==> Geometry <==

    Molecular point group: c1
    Full point group: C1

    Geometry (in Angstrom), charge = 0, multiplicity = 1:

       Center              X                  Y                   Z               Mass
    ------------   -----------------  -----------------  -----------------  -----------------
         C           -0.135627388876     0.288366954074    -1.926310710431    12.000000000000
         C            0.317372611124    -1.166633045926    -2.032310710431    12.000000000000
         H           -0.890627388876     0.394366954074    -1.147310710431     1.007825032230
         H            0.720372611124     0.917366954074    -1.682310710431     1.007825032230
         H           -0.542627388876     0.626366954074    -2.878310710431     1.007825032230
         H            0.943372611124    -1.273633045926    -2.919310710431     1.007825032230
         H           -0.548527388876    -1.841623045926    -2.100240710431     1.007825032230
         H            0.915492611124    -1.419333045926    -1.144400710431     1.007825032230
         C            0.638372611124     0.398366954074     1.772689289569    12.000000000000
         C           -0.825627388876     0.478366954074     2.185689289569    12.000000000000
         H            1.283372611124     0.623366954074     2.622689289569     1.007825032230
         H            0.866372611124    -0.608633045926     1.433689289569     1.007825032230
         H            0.838372611124     1.104366954074     0.967689289569     1.007825032230
         H           -1.455627388876     0.370366954074     1.302689289569     1.007825032230
         H           -1.006317388876     1.456666954074     2.655039289569     1.007825032230
         H           -1.058027388876    -0.331403045926     2.892979289569     1.007825032230

  Running in c1 symmetry.

  Rotational constants: A =      0.36557  B =      0.06110  C =      0.05910 [cm^-1]
  Rotational constants: A =  10959.60739  B =   1831.79428  C =   1771.73099 [MHz]
  Nuclear repulsion =  125.637385436263841

  Charge       = 0
  Multiplicity = 1
  Electrons    = 36
  Nalpha       = 18
  Nbeta        = 18

  ==> Algorithm <==

  SCF Algorithm Type is PK.
  DIIS enabled.
  MOM disabled.
  Fractional occupation disabled.
  Guess Type is SAD.
  Energy threshold   = 1.00e-06
  Density threshold  = 1.00e-10
  Integral threshold = 0.00e+00

  ==> Primary Basis <==

  Basis Set: CC-PVDZ
    Blend: CC-PVDZ
    Number of shells: 60
    Number of basis function: 116
    Number of Cartesian functions: 120
    Spherical Harmonics?: true
    Max angular momentum: 2

  ==> Pre-Iterations <==

   -------------------------------------------------------
    Irrep   Nso     Nmo     Nalpha   Nbeta   Ndocc  Nsocc
   -------------------------------------------------------
     A        116     116       0       0       0       0
   -------------------------------------------------------
    Total     116     116      18      18      18       0
   -------------------------------------------------------

  ==> Integral Setup <==

  Using integral reordering PK algorithm.
  Sizing the integral batches needed.
  Building batch lookup table.
   Calculation information:
      Number of atoms:                  16
      Number of AO shells:              60
      Number of primitives:            148
      Number of atomic orbitals:       120
      Number of basis functions:       116

      Integral cutoff                 1.00e-12
      Number of threads:                 1

	Batch   1 pq = [       0,    6786] index = [             0,23028291] size =     23028291
  Task number: 3
  Buffer size: 11059200
  Buffer per thread: 2
  We computed 1577908 shell quartets total.
  Whereas there are 1675365 unique shell quartets.

  ==> DiskJK: Disk-Based J/K Matrices <==

    J tasked:                  Yes
    K tasked:                  Yes
    wK tasked:                  No
    Memory [MiB]:              375
    Schwarz Cutoff:          1E-12

    OpenMP threads:              1

  Minimum eigenvalue in the overlap matrix is 7.6194072845E-03.
  Using Symmetric Orthogonalization.

  SCF Guess: Superposition of Atomic Densities via on-the-fly atomic UHF.

  ==> Iterations <==

                        Total Energy        Delta E     RMS |[F,P]|

   @RHF iter SAD:  -157.36587796997739   -1.57366e+02   0.00000e+00
   @RHF iter   1:  -158.30627273716664   -9.40395e-01   4.23023e-03 DIIS
   @RHF iter   2:  -158.44036843237598   -1.34096e-01   1.81203e-03 DIIS
   @RHF iter   3:  -158.46416154919615   -2.37931e-02   3.50306e-04 DIIS
   @RHF iter   4:  -158.46598856224918   -1.82701e-03   3.83481e-05 DIIS
   @RHF iter   5:  -158.46601162802142   -2.30658e-05   6.30008e-06 DIIS
   @RHF iter   6:  -158.46601223600274   -6.07981e-07   7.58198e-07 DIIS
   @RHF iter   7:  -158.46601224355192   -7.54918e-09   1.80557e-07 DIIS
   @RHF iter   8:  -158.46601224385111   -2.99195e-10   4.03744e-08 DIIS
   @RHF iter   9:  -158.46601224387072   -1.96110e-11   9.68651e-09 DIIS
   @RHF iter  10:  -158.46601224387206   -1.33582e-12   2.12621e-09 DIIS
   @RHF iter  11:  -158.46601224387251   -4.54747e-13   3.98887e-10 DIIS
   @RHF iter  12:  -158.46601224387274   -2.27374e-13   9.25473e-11 DIIS
  Energy and wave function converged.

  ==> Post-Iterations <==

    Orbital Energies [Eh]
    ---------------------

    Doubly Occupied:

       1A    -11.219411     2A    -11.219167     3A    -11.216765
       4A    -11.215641     5A     -1.021504     6A     -1.017846
       7A     -0.836305     8A     -0.835638     9A     -0.607538
      10A     -0.600389    11A     -0.598842    12A     -0.591399
      13A     -0.500867    14A     -0.498396    15A     -0.490085
      16A     -0.489531    17A     -0.483039    18A     -0.480838

    Virtual:

      19A      0.167199    20A      0.206694    21A      0.219466
      22A      0.224875    23A      0.243543    24A      0.259265
      25A      0.264511    26A      0.273645    27A      0.283848
      28A      0.312240    29A      0.335251    30A      0.371611
      31A      0.392952    32A      0.416552    33A      0.559142
      34A      0.593653    35A      0.599679    36A      0.606709
      37A      0.613133    38A      0.638170    39A      0.678270
      40A      0.684128    41A      0.691579    42A      0.795653
      43A      0.841688    44A      0.851456    45A      0.866033
      46A      0.886873    47A      0.894053    48A      0.901498
      49A      0.906153    50A      0.916887    51A      0.922272
      52A      0.932526    53A      0.953756    54A      0.970443
      55A      0.985438    56A      1.009340    57A      1.122153
      58A      1.124475    59A      1.137999    60A      1.143876
      61A      1.223978    62A      1.275026    63A      1.473751
      64A      1.480922    65A      1.486186    66A      1.488983
      67A      1.545520    68A      1.600296    69A      1.678149
      70A      1.680370    71A      1.694486    72A      1.702386
      73A      1.852061    74A      1.858059    75A      1.867879
      76A      1.884893    77A      1.895442    78A      1.904997
      79A      1.938273    80A      1.944246    81A      1.947923
      82A      1.950134    83A      1.953529    84A      1.955417
      85A      1.961042    86A      1.963253    87A      1.975124
      88A      2.035741    89A      2.110426    90A      2.120468
      91A      2.128522    92A      2.148989    93A      2.288773
      94A      2.291705    95A      2.309876    96A      2.321767
      97A      2.447123    98A      2.450389    99A      2.456306
     100A      2.463447   101A      2.566200   102A      2.575492
     103A      2.578606   104A      2.588494   105A      2.768110
     106A      2.769686   107A      2.792565   108A      2.799159
     109A      2.840746   110A      2.848998   111A      2.849822
     112A      2.854765   113A      2.942335   114A      2.952608
     115A      2.965909   116A      2.991599

    Final Occupation by Irrep:
              A
    DOCC [    18 ]

  @RHF Final Energy:  -158.46601224387274

   => Energetics <=

    Nuclear Repulsion Energy =            125.6373854362638411
    One-Electron Energy =                -460.3603925911061197
    Two-Electron Energy =                 176.2569949109695244
    Total Energy =                       -158.4660122438727399

Computation Completed

Properties will be evaluated at   0.000000,   0.000000,   0.000000 [a0]

Properties computed using the SCF density matrix

  Nuclear Dipole Moment: [e a0]
     X:     0.0615      Y:     0.0171      Z:     0.0027

  Electronic Dipole Moment: [e a0]
     X:    -0.0486      Y:    -0.0108      Z:    -0.0115

  Dipole Moment: [e a0]
     X:     0.0129      Y:     0.0063      Z:    -0.0088     Total:     0.0168

  Dipole Moment: [D]
     X:     0.0327      Y:     0.0159      Z:    -0.0224     Total:     0.0427

*** tstop() called on ds3 at Mon Apr 27 22:35:47 2020
Module time:
	user time   =       9.14 seconds =       0.15 minutes
	system time =       3.01 seconds =       0.05 minutes
	total time  =         12 seconds =       0.20 minutes
Total time:
	user time   =       9.14 seconds =       0.15 minutes
	system time =       3.01 seconds =       0.05 minutes
	total time  =         12 seconds =       0.20 minutes
                                     G D M A

                                 by Anthony Stone

                           version 2.2.06, 22 June 2011

               Distributed Multipoles from Gaussian wavefunctions

Starting at 22:35:47 on 27 Apr 2020

Using SCF density matrix from file ./SSI/SSI-079THR-089LEU-1-dimer.test.31384.fchk

                         Distributed Multipole Analysis

Standard DMA

Positions and radii in angstrom
Multipole moments in atomic units, ea_0^k for rank k

C          x = -0.135627  y =  0.288367  z = -1.926311 angstrom
           Maximum rank =  0   Radius =  0.650 angstrom
                   Q00  =  -0.237635

C          x =  0.317373  y = -1.166633  z = -2.032311 angstrom
           Maximum rank =  0   Radius =  0.650 angstrom
                   Q00  =  -0.236380

H          x = -0.890627  y =  0.394367  z = -1.147311 angstrom
           Maximum rank =  0   Radius =  0.325 angstrom
                   Q00  =   0.080055

H          x =  0.720373  y =  0.917367  z = -1.682311 angstrom
           Maximum rank =  0   Radius =  0.325 angstrom
                   Q00  =   0.078802

H          x = -0.542627  y =  0.626367  z = -2.878311 angstrom
           Maximum rank =  0   Radius =  0.325 angstrom
                   Q00  =   0.078534

H          x =  0.943373  y = -1.273633  z = -2.919311 angstrom
           Maximum rank =  0   Radius =  0.325 angstrom
                   Q00  =   0.079274

H          x = -0.548527  y = -1.841623  z = -2.100241 angstrom
           Maximum rank =  0   Radius =  0.325 angstrom
                   Q00  =   0.079185

H          x =  0.915493  y = -1.419333  z = -1.144401 angstrom
           Maximum rank =  0   Radius =  0.325 angstrom
                   Q00  =   0.078642

C          x =  0.638373  y =  0.398367  z =  1.772689 angstrom
           Maximum rank =  0   Radius =  0.650 angstrom
                   Q00  =  -0.243248

C          x = -0.825627  y =  0.478367  z =  2.185689 angstrom
           Maximum rank =  0   Radius =  0.650 angstrom
                   Q00  =  -0.229323

H          x =  1.283373  y =  0.623367  z =  2.622689 angstrom
           Maximum rank =  0   Radius =  0.325 angstrom
                   Q00  =   0.078414

H          x =  0.866373  y = -0.608633  z =  1.433689 angstrom
           Maximum rank =  0   Radius =  0.325 angstrom
                   Q00  =   0.077954

H          x =  0.838373  y =  1.104367  z =  0.967689 angstrom
           Maximum rank =  0   Radius =  0.325 angstrom
                   Q00  =   0.081148

H          x = -1.455627  y =  0.370367  z =  1.302689 angstrom
           Maximum rank =  0   Radius =  0.325 angstrom
                   Q00  =   0.079035

H          x = -1.006317  y =  1.456667  z =  2.655039 angstrom
           Maximum rank =  0   Radius =  0.325 angstrom
                   Q00  =   0.077390

H          x = -1.058027  y = -0.331403  z =  2.892979 angstrom
           Maximum rank =  0   Radius =  0.325 angstrom
                   Q00  =   0.078154

Total multipoles referred to origin at
           x =   0.000000,  y =    0.000000,  z =    0.000000 angstrom
                   Q00  =  -0.000000

Finished at 22:35:47 on 27 Apr 2020

  DMA results are available in the Python driver through the
	  variable('DMA DISTRIBUTED MULTIPOLES')
  and
	  variable('DMA TOTAL MULTIPOLES')
  commands.

    Psi4 stopped on: Monday, 27 April 2020 10:35PM
    Psi4 wall time for execution: 0:00:12.11

*** Psi4 exiting successfully. Buy a developer a beer!
