                               Psi4 1.3.2 release

  ==> Input File <==

--------------------------------------------------------------------------
import numpy as np
set {scf_type pk
basis cc-pvdz
d_convergence 10
gdma_switch   0
gdma_limit    0
gdma_origin   [ 0.0,  0.0,  0.0 ]
}
molecule test {
    units Angstrom
    0 1
    --
    0 1
    C                1.404704470517663     1.071364024455435    -0.904424371674706
    C                2.767704470517664     0.821364024455435    -0.262424371674706
    H                1.085704470517663     0.193364024455435    -1.468424371674706
    H                0.682704470517663     1.285364024455435    -0.117424371674706
    H                1.432704470517663     1.941364024455435    -1.559424371674706
    H                3.055704470517663     1.718364024455435     0.283575628325294
    H                3.540237470517663     0.570523024455435    -1.004224371674706
    H                2.688973470517663    -0.013894975544565     0.449015628325294
    C               -1.666295529482337    -0.330635975544565     0.743575628325294
    C               -2.499295529482337    -1.567635975544565     0.426575628325294
    H               -0.993295529482337    -0.515635975544565     1.582575628325294
    H               -1.087295529482337    -0.071635975544565    -0.140424371674706
    H               -2.305295529482337     0.522364024455435     0.975575628325294
    H               -3.251295529482336    -1.261635975544565    -0.303424371674706
    H               -3.032435529482337    -1.945784975544565     1.311315628325294
    H               -1.897590529482337    -2.356744975544565    -0.048034371674706

}
e, wfn = energy('scf', return_wfn=True)
gdma(wfn)
dmavals = variable('DMA DISTRIBUTED MULTIPOLES')
charges = np.array(dmavals)
print(charges)
np.save('SSI-023VAL-041ILE-1-dimer.npy', np.array(charges))--------------------------------------------------------------------------

*** tstart() called on ds3
*** at Tue Apr 28 11:26:26 2020

   => Loading Basis Set <=

    Name: CC-PVDZ
    Role: ORBITAL
    Keyword: BASIS
    atoms 1-2, 9-10  entry C          line   138 file /theoryfs2/ds/metcalf/miniconda2/envs/tf2gpu/share/psi4/basis/cc-pvdz.gbs
    atoms 3-8, 11-16 entry H          line    22 file /theoryfs2/ds/metcalf/miniconda2/envs/tf2gpu/share/psi4/basis/cc-pvdz.gbs

         ---------------------------------------------------------
                                   SCF
               by Justin Turney, Rob Parrish, Andy Simmonett
                          and Daniel G. A. Smith
                              RHF Reference
                        1 Threads,    500 MiB Core
         ---------------------------------------------------------

  ==> Geometry <==

    Molecular point group: c1
    Full point group: C1

    Geometry (in Angstrom), charge = 0, multiplicity = 1:

       Center              X                  Y                   Z               Mass
    ------------   -----------------  -----------------  -----------------  -----------------
         C            1.404704470518     1.071364024455    -0.904424371675    12.000000000000
         C            2.767704470518     0.821364024455    -0.262424371675    12.000000000000
         H            1.085704470518     0.193364024455    -1.468424371675     1.007825032230
         H            0.682704470518     1.285364024455    -0.117424371675     1.007825032230
         H            1.432704470518     1.941364024455    -1.559424371675     1.007825032230
         H            3.055704470518     1.718364024455     0.283575628325     1.007825032230
         H            3.540237470518     0.570523024455    -1.004224371675     1.007825032230
         H            2.688973470518    -0.013894975545     0.449015628325     1.007825032230
         C           -1.666295529482    -0.330635975545     0.743575628325    12.000000000000
         C           -2.499295529482    -1.567635975545     0.426575628325    12.000000000000
         H           -0.993295529482    -0.515635975545     1.582575628325     1.007825032230
         H           -1.087295529482    -0.071635975545    -0.140424371675     1.007825032230
         H           -2.305295529482     0.522364024455     0.975575628325     1.007825032230
         H           -3.251295529482    -1.261635975545    -0.303424371675     1.007825032230
         H           -3.032435529482    -1.945784975545     1.311315628325     1.007825032230
         H           -1.897590529482    -2.356744975545    -0.048034371675     1.007825032230

  Running in c1 symmetry.

  Rotational constants: A =      0.52984  B =      0.04507  C =      0.04463 [cm^-1]
  Rotational constants: A =  15884.27083  B =   1351.22517  C =   1337.82402 [MHz]
  Nuclear repulsion =  121.336018423746424

  Charge       = 0
  Multiplicity = 1
  Electrons    = 36
  Nalpha       = 18
  Nbeta        = 18

  ==> Algorithm <==

  SCF Algorithm Type is PK.
  DIIS enabled.
  MOM disabled.
  Fractional occupation disabled.
  Guess Type is SAD.
  Energy threshold   = 1.00e-06
  Density threshold  = 1.00e-10
  Integral threshold = 0.00e+00

  ==> Primary Basis <==

  Basis Set: CC-PVDZ
    Blend: CC-PVDZ
    Number of shells: 60
    Number of basis function: 116
    Number of Cartesian functions: 120
    Spherical Harmonics?: true
    Max angular momentum: 2

  ==> Pre-Iterations <==

   -------------------------------------------------------
    Irrep   Nso     Nmo     Nalpha   Nbeta   Ndocc  Nsocc
   -------------------------------------------------------
     A        116     116       0       0       0       0
   -------------------------------------------------------
    Total     116     116      18      18      18       0
   -------------------------------------------------------

  ==> Integral Setup <==

  Using integral reordering PK algorithm.
  Sizing the integral batches needed.
  Building batch lookup table.
   Calculation information:
      Number of atoms:                  16
      Number of AO shells:              60
      Number of primitives:            148
      Number of atomic orbitals:       120
      Number of basis functions:       116

      Integral cutoff                 1.00e-12
      Number of threads:                 1

	Batch   1 pq = [       0,    6786] index = [             0,23028291] size =     23028291
  Task number: 3
  Buffer size: 11059200
  Buffer per thread: 2
  We computed 1402763 shell quartets total.
  Whereas there are 1675365 unique shell quartets.

  ==> DiskJK: Disk-Based J/K Matrices <==

    J tasked:                  Yes
    K tasked:                  Yes
    wK tasked:                  No
    Memory [MiB]:              375
    Schwarz Cutoff:          1E-12

    OpenMP threads:              1

  Minimum eigenvalue in the overlap matrix is 6.7663572709E-03.
  Using Symmetric Orthogonalization.

  SCF Guess: Superposition of Atomic Densities via on-the-fly atomic UHF.

  ==> Iterations <==

                        Total Energy        Delta E     RMS |[F,P]|

   @RHF iter SAD:  -157.36298915276970   -1.57363e+02   0.00000e+00
   @RHF iter   1:  -158.30616552618520   -9.43176e-01   4.21504e-03 DIIS
   @RHF iter   2:  -158.43960032510009   -1.33435e-01   1.79914e-03 DIIS
   @RHF iter   3:  -158.46308975817729   -2.34894e-02   3.50808e-04 DIIS
   @RHF iter   4:  -158.46494014015420   -1.85038e-03   3.94829e-05 DIIS
   @RHF iter   5:  -158.46496485701607   -2.47169e-05   6.88813e-06 DIIS
   @RHF iter   6:  -158.46496554124153   -6.84225e-07   1.34829e-06 DIIS
   @RHF iter   7:  -158.46496555862893   -1.73874e-08   3.31755e-07 DIIS
   @RHF iter   8:  -158.46496555971626   -1.08733e-09   4.53740e-08 DIIS
   @RHF iter   9:  -158.46496555975227   -3.60103e-11   9.31888e-09 DIIS
   @RHF iter  10:  -158.46496555975352   -1.25056e-12   2.46651e-09 DIIS
   @RHF iter  11:  -158.46496555975386   -3.41061e-13   7.00850e-10 DIIS
   @RHF iter  12:  -158.46496555975355    3.12639e-13   1.67718e-10 DIIS
   @RHF iter  13:  -158.46496555975389   -3.41061e-13   2.55452e-11 DIIS
  Energy and wave function converged.

  ==> Post-Iterations <==

    Orbital Energies [Eh]
    ---------------------

    Doubly Occupied:

       1A    -11.219033     2A    -11.218624     3A    -11.216343
       4A    -11.215457     5A     -1.019735     6A     -1.017197
       7A     -0.839843     8A     -0.833682     9A     -0.602203
      10A     -0.600504    11A     -0.596032    12A     -0.591787
      13A     -0.507286    14A     -0.499941    15A     -0.490349
      16A     -0.487404    17A     -0.481156    18A     -0.474846

    Virtual:

      19A      0.174375    20A      0.195656    21A      0.226953
      22A      0.232651    23A      0.244495    24A      0.257521
      25A      0.264215    26A      0.279919    27A      0.282660
      28A      0.292076    29A      0.299544    30A      0.322989
      31A      0.396687    32A      0.419137    33A      0.577618
      34A      0.595133    35A      0.602560    36A      0.606212
      37A      0.611459    38A      0.633385    39A      0.669916
      40A      0.681257    41A      0.691036    42A      0.799970
      43A      0.850612    44A      0.861058    45A      0.883119
      46A      0.890613    47A      0.891421    48A      0.896340
      49A      0.897769    50A      0.904913    51A      0.909838
      52A      0.915306    53A      0.931664    54A      0.948114
      55A      0.977923    56A      0.995368    57A      1.119572
      58A      1.123321    59A      1.132316    60A      1.177082
      61A      1.232412    62A      1.275327    63A      1.465541
      64A      1.467766    65A      1.472222    66A      1.486676
      67A      1.560579    68A      1.596117    69A      1.680945
      70A      1.684332    71A      1.693425    72A      1.700624
      73A      1.857027    74A      1.859359    75A      1.864789
      76A      1.886655    77A      1.889096    78A      1.910700
      79A      1.932446    80A      1.940297    81A      1.943422
      82A      1.950345    83A      1.951713    84A      1.963192
      85A      1.967924    86A      1.975638    87A      1.990868
      88A      2.010846    89A      2.095881    90A      2.099867
      91A      2.112125    92A      2.135705    93A      2.302121
      94A      2.307859    95A      2.314592    96A      2.319104
      97A      2.440207    98A      2.452027    99A      2.459280
     100A      2.489758   101A      2.556210   102A      2.560044
     103A      2.574641   104A      2.585585   105A      2.755648
     106A      2.761533   107A      2.779020   108A      2.796818
     109A      2.844951   110A      2.847282   111A      2.865939
     112A      2.870740   113A      2.937882   114A      2.946454
     115A      2.963789   116A      2.987868

    Final Occupation by Irrep:
              A
    DOCC [    18 ]

  @RHF Final Energy:  -158.46496555975389

   => Energetics <=

    Nuclear Repulsion Energy =            121.3360184237464239
    One-Electron Energy =                -451.7791238814411372
    Two-Electron Energy =                 171.9781398979408493
    Total Energy =                       -158.4649655597538924

Computation Completed

Properties will be evaluated at   0.000000,   0.000000,   0.000000 [a0]

Properties computed using the SCF density matrix

  Nuclear Dipole Moment: [e a0]
     X:    -0.0761      Y:     0.0619      Z:    -0.0369

  Electronic Dipole Moment: [e a0]
     X:     0.0737      Y:    -0.0316      Z:     0.0235

  Dipole Moment: [e a0]
     X:    -0.0024      Y:     0.0303      Z:    -0.0133     Total:     0.0332

  Dipole Moment: [D]
     X:    -0.0060      Y:     0.0769      Z:    -0.0339     Total:     0.0843

*** tstop() called on ds3 at Tue Apr 28 11:26:37 2020
Module time:
	user time   =       7.43 seconds =       0.12 minutes
	system time =       3.17 seconds =       0.05 minutes
	total time  =         11 seconds =       0.18 minutes
Total time:
	user time   =       7.43 seconds =       0.12 minutes
	system time =       3.17 seconds =       0.05 minutes
	total time  =         11 seconds =       0.18 minutes
                                     G D M A

                                 by Anthony Stone

                           version 2.2.06, 22 June 2011

               Distributed Multipoles from Gaussian wavefunctions

Starting at 11:26:37 on 28 Apr 2020

Using SCF density matrix from file ./SSI/SSI-023VAL-041ILE-1-dimer.test.16843.fchk

                         Distributed Multipole Analysis

Standard DMA

Positions and radii in angstrom
Multipole moments in atomic units, ea_0^k for rank k

C          x =  1.404704  y =  1.071364  z = -0.904424 angstrom
           Maximum rank =  0   Radius =  0.650 angstrom
                   Q00  =  -0.242134

C          x =  2.767704  y =  0.821364  z = -0.262424 angstrom
           Maximum rank =  0   Radius =  0.650 angstrom
                   Q00  =  -0.230422

H          x =  1.085704  y =  0.193364  z = -1.468424 angstrom
           Maximum rank =  0   Radius =  0.325 angstrom
                   Q00  =   0.077018

H          x =  0.682704  y =  1.285364  z = -0.117424 angstrom
           Maximum rank =  0   Radius =  0.325 angstrom
                   Q00  =   0.081931

H          x =  1.432704  y =  1.941364  z = -1.559424 angstrom
           Maximum rank =  0   Radius =  0.325 angstrom
                   Q00  =   0.079222

H          x =  3.055704  y =  1.718364  z =  0.283576 angstrom
           Maximum rank =  0   Radius =  0.325 angstrom
                   Q00  =   0.078697

H          x =  3.540237  y =  0.570523  z = -1.004224 angstrom
           Maximum rank =  0   Radius =  0.325 angstrom
                   Q00  =   0.079646

H          x =  2.688973  y = -0.013895  z =  0.449016 angstrom
           Maximum rank =  0   Radius =  0.325 angstrom
                   Q00  =   0.076460

C          x = -1.666296  y = -0.330636  z =  0.743576 angstrom
           Maximum rank =  0   Radius =  0.650 angstrom
                   Q00  =  -0.238194

C          x = -2.499296  y = -1.567636  z =  0.426576 angstrom
           Maximum rank =  0   Radius =  0.650 angstrom
                   Q00  =  -0.235469

H          x = -0.993296  y = -0.515636  z =  1.582576 angstrom
           Maximum rank =  0   Radius =  0.325 angstrom
                   Q00  =   0.076801

H          x = -1.087296  y = -0.071636  z = -0.140424 angstrom
           Maximum rank =  0   Radius =  0.325 angstrom
                   Q00  =   0.083702

H          x = -2.305296  y =  0.522364  z =  0.975576 angstrom
           Maximum rank =  0   Radius =  0.325 angstrom
                   Q00  =   0.078575

H          x = -3.251296  y = -1.261636  z = -0.303424 angstrom
           Maximum rank =  0   Radius =  0.325 angstrom
                   Q00  =   0.074233

H          x = -3.032436  y = -1.945785  z =  1.311316 angstrom
           Maximum rank =  0   Radius =  0.325 angstrom
                   Q00  =   0.080141

H          x = -1.897591  y = -2.356745  z = -0.048034 angstrom
           Maximum rank =  0   Radius =  0.325 angstrom
                   Q00  =   0.079792

Total multipoles referred to origin at
           x =   0.000000,  y =    0.000000,  z =    0.000000 angstrom
                   Q00  =  -0.000000

Finished at 11:26:37 on 28 Apr 2020

  DMA results are available in the Python driver through the
	  variable('DMA DISTRIBUTED MULTIPOLES')
  and
	  variable('DMA TOTAL MULTIPOLES')
  commands.

    Psi4 stopped on: Tuesday, 28 April 2020 11:26AM
    Psi4 wall time for execution: 0:00:10.50

*** Psi4 exiting successfully. Buy a developer a beer!
