                               Psi4 1.3.2 release

  ==> Input File <==

--------------------------------------------------------------------------
import numpy as np
set {scf_type pk
basis cc-pvdz
d_convergence 10
gdma_switch   0
gdma_limit    0
gdma_origin   [ 0.0,  0.0,  0.0 ]
}
molecule test {
    units Angstrom
    0 1
    --
    0 1
    C               -1.133527678713904     2.219180767408031     1.479034752795971
    C               -0.095527678713904     1.298180767408032     0.905034752795970
    O               -0.420527678713904     0.341180767408032     0.204034752795970
    N                1.164472321286096     1.628180767408032     1.121034752795971
    H               -1.323527678713904     3.011180767408032     0.756034752795970
    H               -0.743527678713903     2.655180767408031     2.397034752795971
    H                1.901472321286096     1.039180767408032     0.761034752795970
    H                1.386472321286096     2.460180767408032     1.645034752795971
    H               -2.056127678713904     1.699680767408032     1.777224752795971
    C               -0.460527678713904    -2.345819232591968    -1.613965247204029
    C                0.861472321286096    -3.072819232591968    -2.044965247204029
    H               -0.582527678713904    -1.410819232591968    -2.163965247204030
    H               -1.321527678713903    -2.980819232591968    -1.811965247204030
    H               -0.427527678713904    -2.119819232591968    -0.557965247204029
    H                0.814472321286096    -3.310819232591968    -3.111965247204030
    H                1.739182321286096    -2.437579232591968    -1.854965247204029
    H                0.967832321286097    -4.004669232591969    -1.470215247204030

}
e, wfn = energy('scf', return_wfn=True)
gdma(wfn)
dmavals = variable('DMA DISTRIBUTED MULTIPOLES')
charges = np.array(dmavals)
print(charges)
np.save('SSI-038ASN-199LEU-1-dimer.npy', np.array(charges))--------------------------------------------------------------------------

*** tstart() called on ds3
*** at Tue Apr 28 14:39:09 2020

   => Loading Basis Set <=

    Name: CC-PVDZ
    Role: ORBITAL
    Keyword: BASIS
    atoms 1-2, 10-11 entry C          line   138 file /theoryfs2/ds/metcalf/miniconda2/envs/tf2gpu/share/psi4/basis/cc-pvdz.gbs
    atoms 3          entry O          line   198 file /theoryfs2/ds/metcalf/miniconda2/envs/tf2gpu/share/psi4/basis/cc-pvdz.gbs
    atoms 4          entry N          line   168 file /theoryfs2/ds/metcalf/miniconda2/envs/tf2gpu/share/psi4/basis/cc-pvdz.gbs
    atoms 5-9, 12-17 entry H          line    22 file /theoryfs2/ds/metcalf/miniconda2/envs/tf2gpu/share/psi4/basis/cc-pvdz.gbs

         ---------------------------------------------------------
                                   SCF
               by Justin Turney, Rob Parrish, Andy Simmonett
                          and Daniel G. A. Smith
                              RHF Reference
                        1 Threads,    500 MiB Core
         ---------------------------------------------------------

  ==> Geometry <==

    Molecular point group: c1
    Full point group: C1

    Geometry (in Angstrom), charge = 0, multiplicity = 1:

       Center              X                  Y                   Z               Mass
    ------------   -----------------  -----------------  -----------------  -----------------
         C           -1.133527678714     2.219180767408     1.479034752796    12.000000000000
         C           -0.095527678714     1.298180767408     0.905034752796    12.000000000000
         O           -0.420527678714     0.341180767408     0.204034752796    15.994914619570
         N            1.164472321286     1.628180767408     1.121034752796    14.003074004430
         H           -1.323527678714     3.011180767408     0.756034752796     1.007825032230
         H           -0.743527678714     2.655180767408     2.397034752796     1.007825032230
         H            1.901472321286     1.039180767408     0.761034752796     1.007825032230
         H            1.386472321286     2.460180767408     1.645034752796     1.007825032230
         H           -2.056127678714     1.699680767408     1.777224752796     1.007825032230
         C           -0.460527678714    -2.345819232592    -1.613965247204    12.000000000000
         C            0.861472321286    -3.072819232592    -2.044965247204    12.000000000000
         H           -0.582527678714    -1.410819232592    -2.163965247204     1.007825032230
         H           -1.321527678714    -2.980819232592    -1.811965247204     1.007825032230
         H           -0.427527678714    -2.119819232592    -0.557965247204     1.007825032230
         H            0.814472321286    -3.310819232592    -3.111965247204     1.007825032230
         H            1.739182321286    -2.437579232592    -1.854965247204     1.007825032230
         H            0.967832321286    -4.004669232592    -1.470215247204     1.007825032230

  Running in c1 symmetry.

  Rotational constants: A =      0.24403  B =      0.03072  C =      0.02772 [cm^-1]
  Rotational constants: A =   7315.87409  B =    920.95276  C =    831.05314 [MHz]
  Nuclear repulsion =  226.628222192741305

  Charge       = 0
  Multiplicity = 1
  Electrons    = 50
  Nalpha       = 25
  Nbeta        = 25

  ==> Algorithm <==

  SCF Algorithm Type is PK.
  DIIS enabled.
  MOM disabled.
  Fractional occupation disabled.
  Guess Type is SAD.
  Energy threshold   = 1.00e-06
  Density threshold  = 1.00e-10
  Integral threshold = 0.00e+00

  ==> Primary Basis <==

  Basis Set: CC-PVDZ
    Blend: CC-PVDZ
    Number of shells: 69
    Number of basis function: 139
    Number of Cartesian functions: 145
    Spherical Harmonics?: true
    Max angular momentum: 2

  ==> Pre-Iterations <==

   -------------------------------------------------------
    Irrep   Nso     Nmo     Nalpha   Nbeta   Ndocc  Nsocc
   -------------------------------------------------------
     A        139     139       0       0       0       0
   -------------------------------------------------------
    Total     139     139      25      25      25       0
   -------------------------------------------------------

  ==> Integral Setup <==

  Using integral reordering PK algorithm.
  Sizing the integral batches needed.
  Building batch lookup table.
   Calculation information:
      Number of atoms:                  17
      Number of AO shells:              69
      Number of primitives:            187
      Number of atomic orbitals:       145
      Number of basis functions:       139

      Integral cutoff                 1.00e-12
      Number of threads:                 1

	Batch   1 pq = [       0,    9730] index = [             0,47341315] size =     47341315
  Task number: 5
  Buffer size: 11059200
  Buffer per thread: 2
  We computed 2080637 shell quartets total.
  Whereas there are 2917320 unique shell quartets.

  ==> DiskJK: Disk-Based J/K Matrices <==

    J tasked:                  Yes
    K tasked:                  Yes
    wK tasked:                  No
    Memory [MiB]:              375
    Schwarz Cutoff:          1E-12

    OpenMP threads:              1

  Minimum eigenvalue in the overlap matrix is 4.5009656490E-03.
  Using Symmetric Orthogonalization.

  SCF Guess: Superposition of Atomic Densities via on-the-fly atomic UHF.

  ==> Iterations <==

                        Total Energy        Delta E     RMS |[F,P]|

   @RHF iter SAD:  -285.89670867223134   -2.85897e+02   0.00000e+00
   @RHF iter   1:  -286.99745497884027   -1.10075e+00   4.60181e-03 DIIS
   @RHF iter   2:  -287.17139015637019   -1.73935e-01   2.58345e-03 DIIS
   @RHF iter   3:  -287.22081303693579   -4.94229e-02   5.46154e-04 DIIS
   @RHF iter   4:  -287.22419428116700   -3.38124e-03   2.17331e-04 DIIS
   @RHF iter   5:  -287.22478959353913   -5.95312e-04   3.34520e-05 DIIS
   @RHF iter   6:  -287.22481820228722   -2.86087e-05   1.50605e-05 DIIS
   @RHF iter   7:  -287.22482270616939   -4.50388e-06   6.03778e-06 DIIS
   @RHF iter   8:  -287.22482371850606   -1.01234e-06   2.10797e-06 DIIS
   @RHF iter   9:  -287.22482384959153   -1.31085e-07   5.06863e-07 DIIS
   @RHF iter  10:  -287.22482385527894   -5.68741e-09   1.63295e-07 DIIS
   @RHF iter  11:  -287.22482385587585   -5.96913e-10   3.69854e-08 DIIS
   @RHF iter  12:  -287.22482385590996   -3.41061e-11   8.27946e-09 DIIS
   @RHF iter  13:  -287.22482385590916    7.95808e-13   1.62780e-09 DIIS
   @RHF iter  14:  -287.22482385590979   -6.25278e-13   6.48434e-10 DIIS
   @RHF iter  15:  -287.22482385591047   -6.82121e-13   2.02929e-10 DIIS
   @RHF iter  16:  -287.22482385591013    3.41061e-13   5.22773e-11 DIIS
  Energy and wave function converged.

  ==> Post-Iterations <==

    Orbital Energies [Eh]
    ---------------------

    Doubly Occupied:

       1A    -20.503745     2A    -15.592149     3A    -11.348031
       4A    -11.242839     5A    -11.203823     6A    -11.189322
       7A     -1.368763     8A     -1.222164     9A     -1.005050
      10A     -0.984384    11A     -0.817017    12A     -0.803576
      13A     -0.731193    14A     -0.657489    15A     -0.621041
      16A     -0.576383    17A     -0.569133    18A     -0.565718
      19A     -0.553198    20A     -0.526345    21A     -0.469889
      22A     -0.465025    23A     -0.463177    24A     -0.410506
      25A     -0.405701

    Virtual:

      26A      0.162528    27A      0.195774    28A      0.201819
      29A      0.217300    30A      0.226923    31A      0.260594
      32A      0.265552    33A      0.276180    34A      0.280964
      35A      0.285750    36A      0.306375    37A      0.321742
      38A      0.382250    39A      0.407543    40A      0.469053
      41A      0.552751    42A      0.613566    43A      0.617728
      44A      0.629726    45A      0.642357    46A      0.651152
      47A      0.690525    48A      0.706397    49A      0.716739
      50A      0.725828    51A      0.738660    52A      0.745175
      53A      0.832624    54A      0.846507    55A      0.863437
      56A      0.881275    57A      0.908295    58A      0.910181
      59A      0.912032    60A      0.923382    61A      0.929291
      62A      0.931850    63A      0.951193    64A      0.994954
      65A      0.998456    66A      1.010771    67A      1.052881
      68A      1.121056    69A      1.129616    70A      1.143828
      71A      1.247435    72A      1.256901    73A      1.326172
      74A      1.351261    75A      1.385918    76A      1.411671
      77A      1.428056    78A      1.465750    79A      1.471220
      80A      1.494431    81A      1.507596    82A      1.589859
      83A      1.642240    84A      1.651380    85A      1.699561
      86A      1.722159    87A      1.738169    88A      1.820184
      89A      1.845973    90A      1.874416    91A      1.882344
      92A      1.892070    93A      1.896734    94A      1.905207
      95A      1.933681    96A      1.954382    97A      1.961684
      98A      1.965311    99A      1.970035   100A      1.978124
     101A      1.981649   102A      2.010107   103A      2.039407
     104A      2.072579   105A      2.117594   106A      2.129491
     107A      2.183588   108A      2.210108   109A      2.268450
     110A      2.309414   111A      2.337533   112A      2.404914
     113A      2.451018   114A      2.469343   115A      2.476396
     116A      2.486056   117A      2.536297   118A      2.564480
     119A      2.577523   120A      2.586851   121A      2.620631
     122A      2.735177   123A      2.756355   124A      2.774271
     125A      2.799657   126A      2.820227   127A      2.850512
     128A      2.865805   129A      2.873666   130A      2.965207
     131A      2.976879   132A      2.980425   133A      3.091050
     134A      3.137455   135A      3.277023   136A      3.484320
     137A      3.562439   138A      3.869798   139A      3.939675

    Final Occupation by Irrep:
              A
    DOCC [    25 ]

  @RHF Final Energy:  -287.22482385591013

   => Energetics <=

    Nuclear Repulsion Energy =            226.6282221927413048
    One-Electron Energy =                -839.1147720738108546
    Two-Electron Energy =                 325.2617260251594189
    Total Energy =                       -287.2248238559101310

Computation Completed

Properties will be evaluated at   0.000000,   0.000000,   0.000000 [a0]

Properties computed using the SCF density matrix

  Nuclear Dipole Moment: [e a0]
     X:     0.3271      Y:    -5.0646      Z:    -3.4097

  Electronic Dipole Moment: [e a0]
     X:     0.3830      Y:     6.4968      Z:     4.4084

  Dipole Moment: [e a0]
     X:     0.7100      Y:     1.4322      Z:     0.9988     Total:     1.8849

  Dipole Moment: [D]
     X:     1.8047      Y:     3.6402      Z:     2.5386     Total:     4.7909

*** tstop() called on ds3 at Tue Apr 28 14:39:30 2020
Module time:
	user time   =      14.00 seconds =       0.23 minutes
	system time =       8.10 seconds =       0.13 minutes
	total time  =         21 seconds =       0.35 minutes
Total time:
	user time   =      14.00 seconds =       0.23 minutes
	system time =       8.10 seconds =       0.13 minutes
	total time  =         21 seconds =       0.35 minutes
                                     G D M A

                                 by Anthony Stone

                           version 2.2.06, 22 June 2011

               Distributed Multipoles from Gaussian wavefunctions

Starting at 14:39:30 on 28 Apr 2020

Using SCF density matrix from file ./SSI/SSI-038ASN-199LEU-1-dimer.test.6692.fchk

                         Distributed Multipole Analysis

Standard DMA

Positions and radii in angstrom
Multipole moments in atomic units, ea_0^k for rank k

C          x = -1.133528  y =  2.219181  z =  1.479035 angstrom
           Maximum rank =  0   Radius =  0.650 angstrom
                   Q00  =  -0.259922

C          x = -0.095528  y =  1.298181  z =  0.905035 angstrom
           Maximum rank =  0   Radius =  0.650 angstrom
                   Q00  =   0.824176

O          x = -0.420528  y =  0.341181  z =  0.204035 angstrom
           Maximum rank =  0   Radius =  0.650 angstrom
                   Q00  =  -0.795343

N          x =  1.164472  y =  1.628181  z =  1.121035 angstrom
           Maximum rank =  0   Radius =  0.650 angstrom
                   Q00  =  -0.526198

H          x = -1.323528  y =  3.011181  z =  0.756035 angstrom
           Maximum rank =  0   Radius =  0.325 angstrom
                   Q00  =   0.130336

H          x = -0.743528  y =  2.655181  z =  2.397035 angstrom
           Maximum rank =  0   Radius =  0.325 angstrom
                   Q00  =   0.073474

H          x =  1.901472  y =  1.039181  z =  0.761035 angstrom
           Maximum rank =  0   Radius =  0.325 angstrom
                   Q00  =   0.223757

H          x =  1.386472  y =  2.460181  z =  1.645035 angstrom
           Maximum rank =  0   Radius =  0.325 angstrom
                   Q00  =   0.204276

H          x = -2.056128  y =  1.699681  z =  1.777225 angstrom
           Maximum rank =  0   Radius =  0.325 angstrom
                   Q00  =   0.132173

C          x = -0.460528  y = -2.345819  z = -1.613965 angstrom
           Maximum rank =  0   Radius =  0.650 angstrom
                   Q00  =  -0.228267

C          x =  0.861472  y = -3.072819  z = -2.044965 angstrom
           Maximum rank =  0   Radius =  0.650 angstrom
                   Q00  =  -0.254414

H          x = -0.582528  y = -1.410819  z = -2.163965 angstrom
           Maximum rank =  0   Radius =  0.325 angstrom
                   Q00  =   0.086179

H          x = -1.321528  y = -2.980819  z = -1.811965 angstrom
           Maximum rank =  0   Radius =  0.325 angstrom
                   Q00  =   0.065199

H          x = -0.427528  y = -2.119819  z = -0.557965 angstrom
           Maximum rank =  0   Radius =  0.325 angstrom
                   Q00  =   0.102011

H          x =  0.814472  y = -3.310819  z = -3.111965 angstrom
           Maximum rank =  0   Radius =  0.325 angstrom
                   Q00  =   0.073873

H          x =  1.739182  y = -2.437579  z = -1.854965 angstrom
           Maximum rank =  0   Radius =  0.325 angstrom
                   Q00  =   0.075202

H          x =  0.967832  y = -4.004669  z = -1.470215 angstrom
           Maximum rank =  0   Radius =  0.325 angstrom
                   Q00  =   0.073490

Total multipoles referred to origin at
           x =   0.000000,  y =    0.000000,  z =    0.000000 angstrom
                   Q00  =  -0.000000

Finished at 14:39:30 on 28 Apr 2020

  DMA results are available in the Python driver through the
	  variable('DMA DISTRIBUTED MULTIPOLES')
  and
	  variable('DMA TOTAL MULTIPOLES')
  commands.

    Psi4 stopped on: Tuesday, 28 April 2020 02:39PM
    Psi4 wall time for execution: 0:00:21.09

*** Psi4 exiting successfully. Buy a developer a beer!
