                               Psi4 1.3.2 release

  ==> Input File <==

--------------------------------------------------------------------------
import numpy as np
set {scf_type pk
basis cc-pvdz
d_convergence 10
gdma_switch   0
gdma_limit    0
gdma_origin   [ 0.0,  0.0,  0.0 ]
}
molecule test {
    units Angstrom
    0 1
    --
    0 1
    C               -1.305878704684461    -1.029193812416465     1.013601815285807
    C               -2.103878704684461    -1.650193812416465    -0.132398184714193
    H               -0.239878704684461    -1.159193812416464     0.836601815285807
    H               -1.534878704684461     0.035806187583535     1.086601815285807
    H               -1.557878704684461    -1.487193812416465     1.967601815285807
    H               -3.160878704684462    -1.588193812416465     0.116601815285807
    H               -1.827535704684461    -2.705582812416464    -0.273069184714193
    H               -1.936860704684461    -1.083627812416464    -1.060357184714193
    C                1.008121295315539     1.405806187583535    -0.740398184714193
    C                2.405121295315539     1.269806187583535    -0.146398184714193
    H                0.964121295315539     0.922806187583536    -1.718398184714193
    H                0.284121295315539     0.946806187583536    -0.074398184714193
    H                0.731121295315539     2.454806187583535    -0.849398184714193
    H                2.429121295315539     1.736806187583535     0.832601815285807
    H                3.148990295315539     1.763326187583536    -0.789123184714193
    H                2.658938295315539     0.208386187583535    -0.008673184714193

}
e, wfn = energy('scf', return_wfn=True)
gdma(wfn)
dmavals = variable('DMA DISTRIBUTED MULTIPOLES')
charges = np.array(dmavals)
print(charges)
np.save('SSI-146VAL-161VAL-2-dimer.npy', np.array(charges))--------------------------------------------------------------------------

*** tstart() called on ds3
*** at Tue Apr 28 09:15:15 2020

   => Loading Basis Set <=

    Name: CC-PVDZ
    Role: ORBITAL
    Keyword: BASIS
    atoms 1-2, 9-10  entry C          line   138 file /theoryfs2/ds/metcalf/miniconda2/envs/tf2gpu/share/psi4/basis/cc-pvdz.gbs
    atoms 3-8, 11-16 entry H          line    22 file /theoryfs2/ds/metcalf/miniconda2/envs/tf2gpu/share/psi4/basis/cc-pvdz.gbs

         ---------------------------------------------------------
                                   SCF
               by Justin Turney, Rob Parrish, Andy Simmonett
                          and Daniel G. A. Smith
                              RHF Reference
                        1 Threads,    500 MiB Core
         ---------------------------------------------------------

  ==> Geometry <==

    Molecular point group: c1
    Full point group: C1

    Geometry (in Angstrom), charge = 0, multiplicity = 1:

       Center              X                  Y                   Z               Mass
    ------------   -----------------  -----------------  -----------------  -----------------
         C           -1.305878704684    -1.029193812416     1.013601815286    12.000000000000
         C           -2.103878704684    -1.650193812416    -0.132398184714    12.000000000000
         H           -0.239878704684    -1.159193812416     0.836601815286     1.007825032230
         H           -1.534878704684     0.035806187584     1.086601815286     1.007825032230
         H           -1.557878704684    -1.487193812416     1.967601815286     1.007825032230
         H           -3.160878704684    -1.588193812416     0.116601815286     1.007825032230
         H           -1.827535704684    -2.705582812416    -0.273069184714     1.007825032230
         H           -1.936860704684    -1.083627812416    -1.060357184714     1.007825032230
         C            1.008121295316     1.405806187584    -0.740398184714    12.000000000000
         C            2.405121295316     1.269806187584    -0.146398184714    12.000000000000
         H            0.964121295316     0.922806187584    -1.718398184714     1.007825032230
         H            0.284121295316     0.946806187584    -0.074398184714     1.007825032230
         H            0.731121295316     2.454806187584    -0.849398184714     1.007825032230
         H            2.429121295316     1.736806187584     0.832601815286     1.007825032230
         H            3.148990295316     1.763326187584    -0.789123184714     1.007825032230
         H            2.658938295316     0.208386187584    -0.008673184714     1.007825032230

  Running in c1 symmetry.

  Rotational constants: A =      0.43833  B =      0.05214  C =      0.04968 [cm^-1]
  Rotational constants: A =  13140.76430  B =   1563.17819  C =   1489.48801 [MHz]
  Nuclear repulsion =  123.125365109210392

  Charge       = 0
  Multiplicity = 1
  Electrons    = 36
  Nalpha       = 18
  Nbeta        = 18

  ==> Algorithm <==

  SCF Algorithm Type is PK.
  DIIS enabled.
  MOM disabled.
  Fractional occupation disabled.
  Guess Type is SAD.
  Energy threshold   = 1.00e-06
  Density threshold  = 1.00e-10
  Integral threshold = 0.00e+00

  ==> Primary Basis <==

  Basis Set: CC-PVDZ
    Blend: CC-PVDZ
    Number of shells: 60
    Number of basis function: 116
    Number of Cartesian functions: 120
    Spherical Harmonics?: true
    Max angular momentum: 2

  ==> Pre-Iterations <==

   -------------------------------------------------------
    Irrep   Nso     Nmo     Nalpha   Nbeta   Ndocc  Nsocc
   -------------------------------------------------------
     A        116     116       0       0       0       0
   -------------------------------------------------------
    Total     116     116      18      18      18       0
   -------------------------------------------------------

  ==> Integral Setup <==

  Using integral reordering PK algorithm.
  Sizing the integral batches needed.
  Building batch lookup table.
   Calculation information:
      Number of atoms:                  16
      Number of AO shells:              60
      Number of primitives:            148
      Number of atomic orbitals:       120
      Number of basis functions:       116

      Integral cutoff                 1.00e-12
      Number of threads:                 1

	Batch   1 pq = [       0,    6786] index = [             0,23028291] size =     23028291
  Task number: 3
  Buffer size: 11059200
  Buffer per thread: 2
  We computed 1476338 shell quartets total.
  Whereas there are 1675365 unique shell quartets.

  ==> DiskJK: Disk-Based J/K Matrices <==

    J tasked:                  Yes
    K tasked:                  Yes
    wK tasked:                  No
    Memory [MiB]:              375
    Schwarz Cutoff:          1E-12

    OpenMP threads:              1

  Minimum eigenvalue in the overlap matrix is 7.5294757286E-03.
  Using Symmetric Orthogonalization.

  SCF Guess: Superposition of Atomic Densities via on-the-fly atomic UHF.

  ==> Iterations <==

                        Total Energy        Delta E     RMS |[F,P]|

   @RHF iter SAD:  -157.36756848383064   -1.57368e+02   0.00000e+00
   @RHF iter   1:  -158.30736785241402   -9.39799e-01   4.21652e-03 DIIS
   @RHF iter   2:  -158.44101276381278   -1.33645e-01   1.79571e-03 DIIS
   @RHF iter   3:  -158.46441639491769   -2.34036e-02   3.50068e-04 DIIS
   @RHF iter   4:  -158.46625712956600   -1.84073e-03   3.88101e-05 DIIS
   @RHF iter   5:  -158.46628090506684   -2.37755e-05   6.27151e-06 DIIS
   @RHF iter   6:  -158.46628150002329   -5.94956e-07   9.16260e-07 DIIS
   @RHF iter   7:  -158.46628150894310   -8.91981e-09   2.86285e-07 DIIS
   @RHF iter   8:  -158.46628150962638   -6.83286e-10   4.00638e-08 DIIS
   @RHF iter   9:  -158.46628150965191   -2.55227e-11   8.11611e-09 DIIS
   @RHF iter  10:  -158.46628150965321   -1.30740e-12   2.08437e-09 DIIS
   @RHF iter  11:  -158.46628150965287    3.41061e-13   4.03349e-10 DIIS
   @RHF iter  12:  -158.46628150965307   -1.98952e-13   1.11286e-10 DIIS
   @RHF iter  13:  -158.46628150965321   -1.42109e-13   2.67316e-11 DIIS
  Energy and wave function converged.

  ==> Post-Iterations <==

    Orbital Energies [Eh]
    ---------------------

    Doubly Occupied:

       1A    -11.219784     2A    -11.217963     3A    -11.217371
       4A    -11.214460     5A     -1.020440     6A     -1.017329
       7A     -0.839749     8A     -0.835359     9A     -0.605367
      10A     -0.600234    11A     -0.596346    12A     -0.590867
      13A     -0.503573    14A     -0.500845    15A     -0.491954
      16A     -0.487593    17A     -0.483633    18A     -0.477274

    Virtual:

      19A      0.170427    20A      0.198756    21A      0.224355
      22A      0.234402    23A      0.246210    24A      0.258697
      25A      0.263081    26A      0.275057    27A      0.278879
      28A      0.293780    29A      0.315932    30A      0.343324
      31A      0.394284    32A      0.399733    33A      0.577987
      34A      0.596697    35A      0.600789    36A      0.605761
      37A      0.618239    38A      0.627957    39A      0.677400
      40A      0.684636    41A      0.691136    42A      0.809854
      43A      0.842397    44A      0.848406    45A      0.880431
      46A      0.885519    47A      0.893093    48A      0.894913
      49A      0.899149    50A      0.903113    51A      0.917409
      52A      0.930977    53A      0.944146    54A      0.950052
      55A      0.975966    56A      1.019212    57A      1.120843
      58A      1.126707    59A      1.131643    60A      1.163264
      61A      1.235177    62A      1.320873    63A      1.471559
      64A      1.473915    65A      1.477499    66A      1.484913
      67A      1.558097    68A      1.580597    69A      1.681114
      70A      1.686655    71A      1.695957    72A      1.711705
      73A      1.851740    74A      1.861389    75A      1.875095
      76A      1.886928    77A      1.891821    78A      1.913076
      79A      1.937687    80A      1.943959    81A      1.945815
      82A      1.951672    83A      1.952535    84A      1.958118
      85A      1.960087    86A      1.971843    87A      1.973787
      88A      2.014965    89A      2.089743    90A      2.105214
      91A      2.108210    92A      2.132889    93A      2.295162
      94A      2.306798    95A      2.318886    96A      2.323567
      97A      2.447655    98A      2.459378    99A      2.462684
     100A      2.480885   101A      2.556422   102A      2.564683
     103A      2.578093   104A      2.581957   105A      2.757080
     106A      2.768268   107A      2.788593   108A      2.797714
     109A      2.852521   110A      2.855735   111A      2.859307
     112A      2.878175   113A      2.936626   114A      2.957826
     115A      2.982609   116A      2.998804

    Final Occupation by Irrep:
              A
    DOCC [    18 ]

  @RHF Final Energy:  -158.46628150965321

   => Energetics <=

    Nuclear Repulsion Energy =            123.1253651092103922
    One-Electron Energy =                -455.3430119928422073
    Two-Electron Energy =                 173.7513653739785866
    Total Energy =                       -158.4662815096532142

Computation Completed

Properties will be evaluated at   0.000000,   0.000000,   0.000000 [a0]

Properties computed using the SCF density matrix

  Nuclear Dipole Moment: [e a0]
     X:    -0.0389      Y:     0.0421      Z:     0.0624

  Electronic Dipole Moment: [e a0]
     X:     0.0047      Y:    -0.0487      Z:    -0.0325

  Dipole Moment: [e a0]
     X:    -0.0342      Y:    -0.0066      Z:     0.0299     Total:     0.0460

  Dipole Moment: [D]
     X:    -0.0870      Y:    -0.0166      Z:     0.0761     Total:     0.1168

*** tstop() called on ds3 at Tue Apr 28 09:15:27 2020
Module time:
	user time   =       8.86 seconds =       0.15 minutes
	system time =       3.53 seconds =       0.06 minutes
	total time  =         12 seconds =       0.20 minutes
Total time:
	user time   =       8.86 seconds =       0.15 minutes
	system time =       3.53 seconds =       0.06 minutes
	total time  =         12 seconds =       0.20 minutes
                                     G D M A

                                 by Anthony Stone

                           version 2.2.06, 22 June 2011

               Distributed Multipoles from Gaussian wavefunctions

Starting at 9:15:27 on 28 Apr 2020

Using SCF density matrix from file ./SSI/SSI-146VAL-161VAL-2-dimer.test.9841.fchk

                         Distributed Multipole Analysis

Standard DMA

Positions and radii in angstrom
Multipole moments in atomic units, ea_0^k for rank k

C          x = -1.305879  y = -1.029194  z =  1.013602 angstrom
           Maximum rank =  0   Radius =  0.650 angstrom
                   Q00  =  -0.246735

C          x = -2.103879  y = -1.650194  z = -0.132398 angstrom
           Maximum rank =  0   Radius =  0.650 angstrom
                   Q00  =  -0.228336

H          x = -0.239879  y = -1.159194  z =  0.836602 angstrom
           Maximum rank =  0   Radius =  0.325 angstrom
                   Q00  =   0.078309

H          x = -1.534879  y =  0.035806  z =  1.086602 angstrom
           Maximum rank =  0   Radius =  0.325 angstrom
                   Q00  =   0.077872

H          x = -1.557879  y = -1.487194  z =  1.967602 angstrom
           Maximum rank =  0   Radius =  0.325 angstrom
                   Q00  =   0.079932

H          x = -3.160879  y = -1.588194  z =  0.116602 angstrom
           Maximum rank =  0   Radius =  0.325 angstrom
                   Q00  =   0.077971

H          x = -1.827536  y = -2.705583  z = -0.273069 angstrom
           Maximum rank =  0   Radius =  0.325 angstrom
                   Q00  =   0.079693

H          x = -1.936861  y = -1.083628  z = -1.060357 angstrom
           Maximum rank =  0   Radius =  0.325 angstrom
                   Q00  =   0.080295

C          x =  1.008121  y =  1.405806  z = -0.740398 angstrom
           Maximum rank =  0   Radius =  0.650 angstrom
                   Q00  =  -0.246774

C          x =  2.405121  y =  1.269806  z = -0.146398 angstrom
           Maximum rank =  0   Radius =  0.650 angstrom
                   Q00  =  -0.233267

H          x =  0.964121  y =  0.922806  z = -1.718398 angstrom
           Maximum rank =  0   Radius =  0.325 angstrom
                   Q00  =   0.077370

H          x =  0.284121  y =  0.946806  z = -0.074398 angstrom
           Maximum rank =  0   Radius =  0.325 angstrom
                   Q00  =   0.091522

H          x =  0.731121  y =  2.454806  z = -0.849398 angstrom
           Maximum rank =  0   Radius =  0.325 angstrom
                   Q00  =   0.077790

H          x =  2.429121  y =  1.736806  z =  0.832602 angstrom
           Maximum rank =  0   Radius =  0.325 angstrom
                   Q00  =   0.078557

H          x =  3.148990  y =  1.763326  z = -0.789123 angstrom
           Maximum rank =  0   Radius =  0.325 angstrom
                   Q00  =   0.079104

H          x =  2.658938  y =  0.208386  z = -0.008673 angstrom
           Maximum rank =  0   Radius =  0.325 angstrom
                   Q00  =   0.076696

Total multipoles referred to origin at
           x =   0.000000,  y =    0.000000,  z =    0.000000 angstrom
                   Q00  =  -0.000000

Finished at 9:15:27 on 28 Apr 2020

  DMA results are available in the Python driver through the
	  variable('DMA DISTRIBUTED MULTIPOLES')
  and
	  variable('DMA TOTAL MULTIPOLES')
  commands.

    Psi4 stopped on: Tuesday, 28 April 2020 09:15AM
    Psi4 wall time for execution: 0:00:12.25

*** Psi4 exiting successfully. Buy a developer a beer!
