                               Psi4 1.3.2 release

  ==> Input File <==

--------------------------------------------------------------------------
import numpy as np
set {scf_type pk
basis cc-pvdz
d_convergence 10
gdma_switch   0
gdma_limit    0
gdma_origin   [ 0.0,  0.0,  0.0 ]
}
molecule test {
    units Angstrom
    -1 1
    --
    -1 1
    C               -0.776076790431882     1.029261507922240    -2.404000096766981
    C                0.160923209568118     0.662261507922240    -1.221000096766981
    O                0.461923209568118    -0.539738492077760    -1.034000096766981
    O                0.669923209568118     1.563261507922240    -0.534000096766981
    H               -0.317076790431882     1.750261507922240    -3.062000096766981
    H               -1.656076790431882     1.508261507922240    -1.976000096766981
    H               -1.122820790431882     0.157081507922240    -2.977650096766980
    C               -0.417076790431882    -1.878738492077760     2.680999903233019
    O               -0.089076790431882    -0.676738492077760     2.070999903233019
    H                0.319923209568118    -0.114738492077760     2.735999903233020
    H               -1.102076790431882    -1.694738492077760     3.509999903233019
    H               -0.892475790431882    -2.557978492077760     1.958069903233019
    H                0.511683209568118    -2.322728492077760     3.068659903233019

}
e, wfn = energy('scf', return_wfn=True)
gdma(wfn)
dmavals = variable('DMA DISTRIBUTED MULTIPOLES')
charges = np.array(dmavals)
print(charges)
np.save('SSI-006ASP-010THR-1-dimer.npy', np.array(charges))--------------------------------------------------------------------------

*** tstart() called on ds3
*** at Tue Apr 28 12:02:47 2020

   => Loading Basis Set <=

    Name: CC-PVDZ
    Role: ORBITAL
    Keyword: BASIS
    atoms 1-2, 8     entry C          line   138 file /theoryfs2/ds/metcalf/miniconda2/envs/tf2gpu/share/psi4/basis/cc-pvdz.gbs
    atoms 3-4, 9     entry O          line   198 file /theoryfs2/ds/metcalf/miniconda2/envs/tf2gpu/share/psi4/basis/cc-pvdz.gbs
    atoms 5-7, 10-13 entry H          line    22 file /theoryfs2/ds/metcalf/miniconda2/envs/tf2gpu/share/psi4/basis/cc-pvdz.gbs

         ---------------------------------------------------------
                                   SCF
               by Justin Turney, Rob Parrish, Andy Simmonett
                          and Daniel G. A. Smith
                              RHF Reference
                        1 Threads,    500 MiB Core
         ---------------------------------------------------------

  ==> Geometry <==

    Molecular point group: c1
    Full point group: C1

    Geometry (in Angstrom), charge = -1, multiplicity = 1:

       Center              X                  Y                   Z               Mass
    ------------   -----------------  -----------------  -----------------  -----------------
         C           -0.776076790432     1.029261507922    -2.404000096767    12.000000000000
         C            0.160923209568     0.662261507922    -1.221000096767    12.000000000000
         O            0.461923209568    -0.539738492078    -1.034000096767    15.994914619570
         O            0.669923209568     1.563261507922    -0.534000096767    15.994914619570
         H           -0.317076790432     1.750261507922    -3.062000096767     1.007825032230
         H           -1.656076790432     1.508261507922    -1.976000096767     1.007825032230
         H           -1.122820790432     0.157081507922    -2.977650096767     1.007825032230
         C           -0.417076790432    -1.878738492078     2.680999903233    12.000000000000
         O           -0.089076790432    -0.676738492078     2.070999903233    15.994914619570
         H            0.319923209568    -0.114738492078     2.735999903233     1.007825032230
         H           -1.102076790432    -1.694738492078     3.509999903233     1.007825032230
         H           -0.892475790432    -2.557978492078     1.958069903233     1.007825032230
         H            0.511683209568    -2.322728492078     3.068659903233     1.007825032230

  Running in c1 symmetry.

  Rotational constants: A =      0.23521  B =      0.03935  C =      0.03698 [cm^-1]
  Rotational constants: A =   7051.46423  B =   1179.54459  C =   1108.50317 [MHz]
  Nuclear repulsion =  221.979839125695122

  Charge       = -1
  Multiplicity = 1
  Electrons    = 50
  Nalpha       = 25
  Nbeta        = 25

  ==> Algorithm <==

  SCF Algorithm Type is PK.
  DIIS enabled.
  MOM disabled.
  Fractional occupation disabled.
  Guess Type is SAD.
  Energy threshold   = 1.00e-06
  Density threshold  = 1.00e-10
  Integral threshold = 0.00e+00

  ==> Primary Basis <==

  Basis Set: CC-PVDZ
    Blend: CC-PVDZ
    Number of shells: 57
    Number of basis function: 119
    Number of Cartesian functions: 125
    Spherical Harmonics?: true
    Max angular momentum: 2

  ==> Pre-Iterations <==

   -------------------------------------------------------
    Irrep   Nso     Nmo     Nalpha   Nbeta   Ndocc  Nsocc
   -------------------------------------------------------
     A        119     119       0       0       0       0
   -------------------------------------------------------
    Total     119     119      25      25      25       0
   -------------------------------------------------------

  ==> Integral Setup <==

  Using integral reordering PK algorithm.
  Sizing the integral batches needed.
  Building batch lookup table.
   Calculation information:
      Number of atoms:                  13
      Number of AO shells:              57
      Number of primitives:            167
      Number of atomic orbitals:       125
      Number of basis functions:       119

      Integral cutoff                 1.00e-12
      Number of threads:                 1

	Batch   1 pq = [       0,    7140] index = [             0,25493370] size =     25493370
  Task number: 3
  Buffer size: 11059200
  Buffer per thread: 2
  We computed 994234 shell quartets total.
  Whereas there are 1367031 unique shell quartets.

  ==> DiskJK: Disk-Based J/K Matrices <==

    J tasked:                  Yes
    K tasked:                  Yes
    wK tasked:                  No
    Memory [MiB]:              375
    Schwarz Cutoff:          1E-12

    OpenMP threads:              1

  Minimum eigenvalue in the overlap matrix is 5.9097241575E-03.
  Using Symmetric Orthogonalization.

  SCF Guess: Superposition of Atomic Densities via on-the-fly atomic UHF.

  ==> Iterations <==

                        Total Energy        Delta E     RMS |[F,P]|

   @RHF iter SAD:  -340.60030652848388   -3.40600e+02   0.00000e+00
   @RHF iter   1:  -342.00904403438443   -1.40874e+00   6.30776e-03 DIIS
   @RHF iter   2:  -342.20032994217547   -1.91286e-01   3.69313e-03 DIIS
   @RHF iter   3:  -342.26721516973402   -6.68852e-02   4.89615e-04 DIIS
   @RHF iter   4:  -342.26945408462660   -2.23891e-03   1.73884e-04 DIIS
   @RHF iter   5:  -342.26976415443949   -3.10070e-04   3.71696e-05 DIIS
   @RHF iter   6:  -342.26977714785835   -1.29934e-05   1.34286e-05 DIIS
   @RHF iter   7:  -342.26977866258227   -1.51472e-06   3.83662e-06 DIIS
   @RHF iter   8:  -342.26977881993804   -1.57356e-07   1.22784e-06 DIIS
   @RHF iter   9:  -342.26977883633703   -1.63990e-08   4.47871e-07 DIIS
   @RHF iter  10:  -342.26977883970102   -3.36399e-09   1.33741e-07 DIIS
   @RHF iter  11:  -342.26977884013922   -4.38206e-10   4.53998e-08 DIIS
   @RHF iter  12:  -342.26977884019021   -5.09885e-11   1.79044e-08 DIIS
   @RHF iter  13:  -342.26977884020084   -1.06297e-11   5.21347e-09 DIIS
   @RHF iter  14:  -342.26977884020084    0.00000e+00   1.40327e-09 DIIS
   @RHF iter  15:  -342.26977884020062    2.27374e-13   4.70640e-10 DIIS
   @RHF iter  16:  -342.26977884020164   -1.02318e-12   1.73391e-10 DIIS
   @RHF iter  17:  -342.26977884020084    7.95808e-13   5.54226e-11 DIIS
  Energy and wave function converged.

  ==> Post-Iterations <==

    Orbital Energies [Eh]
    ---------------------

    Doubly Occupied:

       1A    -20.407250     2A    -20.235847     3A    -20.232363
       4A    -11.153587     5A    -11.097145     6A    -11.039337
       7A     -1.222871     8A     -1.128390     9A     -1.009911
      10A     -0.792973    11A     -0.780361    12A     -0.553412
      13A     -0.496548    14A     -0.480724    15A     -0.463481
      16A     -0.396344    17A     -0.388500    18A     -0.382706
      19A     -0.356387    20A     -0.324577    21A     -0.302478
      22A     -0.285622    23A     -0.161940    24A     -0.145638
      25A     -0.135514

    Virtual:

      26A      0.298280    27A      0.350171    28A      0.363236
      29A      0.370019    30A      0.387333    31A      0.411208
      32A      0.424621    33A      0.488498    34A      0.502325
      35A      0.582568    36A      0.711749    37A      0.719263
      38A      0.757780    39A      0.760726    40A      0.826379
      41A      0.868300    42A      0.898453    43A      0.921754
      44A      0.961744    45A      0.972228    46A      0.975697
      47A      1.015287    48A      1.030813    49A      1.049676
      50A      1.053374    51A      1.070439    52A      1.089522
      53A      1.152201    54A      1.242279    55A      1.259970
      56A      1.275204    57A      1.290586    58A      1.338071
      59A      1.357037    60A      1.419240    61A      1.454291
      62A      1.467135    63A      1.525848    64A      1.578075
      65A      1.584406    66A      1.606585    67A      1.644325
      68A      1.671753    69A      1.700992    70A      1.753628
      71A      1.765927    72A      1.783646    73A      1.804998
      74A      1.857413    75A      1.866753    76A      1.971296
      77A      2.014779    78A      2.048386    79A      2.058956
      80A      2.086976    81A      2.090355    82A      2.121343
      83A      2.133431    84A      2.163707    85A      2.237439
      86A      2.275666    87A      2.305768    88A      2.335641
      89A      2.424387    90A      2.437684    91A      2.482756
      92A      2.486234    93A      2.499886    94A      2.592287
      95A      2.649601    96A      2.653253    97A      2.735400
      98A      2.818255    99A      2.866652   100A      2.873375
     101A      2.886656   102A      2.932246   103A      2.990626
     104A      3.005540   105A      3.266965   106A      3.307078
     107A      3.315326   108A      3.383963   109A      3.458374
     110A      3.545438   111A      3.621545   112A      3.671521
     113A      3.757811   114A      3.779643   115A      3.842759
     116A      4.084791   117A      4.098132   118A      4.221087
     119A      4.241938

    Final Occupation by Irrep:
              A
    DOCC [    25 ]

  @RHF Final Energy:  -342.26977884020084

   => Energetics <=

    Nuclear Repulsion Energy =            221.9798391256951220
    One-Electron Energy =                -920.5514219606764073
    Two-Electron Energy =                 356.3018039947804709
    Total Energy =                       -342.2697788402008428

Computation Completed

Properties will be evaluated at   0.000000,   0.000000,   0.000000 [a0]

Properties computed using the SCF density matrix

  Nuclear Dipole Moment: [e a0]
     X:    -3.9876      Y:    -3.0682      Z:     3.0558

  Electronic Dipole Moment: [e a0]
     X:     2.9497      Y:     2.1432      Z:    -1.2114

  Dipole Moment: [e a0]
     X:    -1.0379      Y:    -0.9250      Z:     1.8445     Total:     2.3097

  Dipole Moment: [D]
     X:    -2.6380      Y:    -2.3511      Z:     4.6882     Total:     5.8707

*** tstop() called on ds3 at Tue Apr 28 12:03:00 2020
Module time:
	user time   =       9.03 seconds =       0.15 minutes
	system time =       4.23 seconds =       0.07 minutes
	total time  =         13 seconds =       0.22 minutes
Total time:
	user time   =       9.03 seconds =       0.15 minutes
	system time =       4.23 seconds =       0.07 minutes
	total time  =         13 seconds =       0.22 minutes
                                     G D M A

                                 by Anthony Stone

                           version 2.2.06, 22 June 2011

               Distributed Multipoles from Gaussian wavefunctions

Starting at 12:3:0 on 28 Apr 2020

Using SCF density matrix from file ./SSI/SSI-006ASP-010THR-1-dimer.test.31987.fchk

                         Distributed Multipole Analysis

Standard DMA

Positions and radii in angstrom
Multipole moments in atomic units, ea_0^k for rank k

C          x = -0.776077  y =  1.029262  z = -2.404000 angstrom
           Maximum rank =  0   Radius =  0.650 angstrom
                   Q00  =  -0.283236

C          x =  0.160923  y =  0.662262  z = -1.221000 angstrom
           Maximum rank =  0   Radius =  0.650 angstrom
                   Q00  =   0.966313

O          x =  0.461923  y = -0.539738  z = -1.034000 angstrom
           Maximum rank =  0   Radius =  0.650 angstrom
                   Q00  =  -0.925280

O          x =  0.669923  y =  1.563262  z = -0.534000 angstrom
           Maximum rank =  0   Radius =  0.650 angstrom
                   Q00  =  -0.924903

H          x = -0.317077  y =  1.750262  z = -3.062000 angstrom
           Maximum rank =  0   Radius =  0.325 angstrom
                   Q00  =   0.064642

H          x = -1.656077  y =  1.508262  z = -1.976000 angstrom
           Maximum rank =  0   Radius =  0.325 angstrom
                   Q00  =   0.058248

H          x = -1.122821  y =  0.157082  z = -2.977650 angstrom
           Maximum rank =  0   Radius =  0.325 angstrom
                   Q00  =   0.046755

C          x = -0.417077  y = -1.878738  z =  2.681000 angstrom
           Maximum rank =  0   Radius =  0.650 angstrom
                   Q00  =  -0.002279

O          x = -0.089077  y = -0.676738  z =  2.071000 angstrom
           Maximum rank =  0   Radius =  0.650 angstrom
                   Q00  =  -0.511136

H          x =  0.319923  y = -0.114738  z =  2.736000 angstrom
           Maximum rank =  0   Radius =  0.325 angstrom
                   Q00  =   0.357180

H          x = -1.102077  y = -1.694738  z =  3.510000 angstrom
           Maximum rank =  0   Radius =  0.325 angstrom
                   Q00  =   0.015460

H          x = -0.892476  y = -2.557978  z =  1.958070 angstrom
           Maximum rank =  0   Radius =  0.325 angstrom
                   Q00  =   0.108496

H          x =  0.511683  y = -2.322728  z =  3.068660 angstrom
           Maximum rank =  0   Radius =  0.325 angstrom
                   Q00  =   0.029738

Total multipoles referred to origin at
           x =   0.000000,  y =    0.000000,  z =    0.000000 angstrom
                   Q00  =  -1.000000

Finished at 12:3:0 on 28 Apr 2020

  DMA results are available in the Python driver through the
	  variable('DMA DISTRIBUTED MULTIPOLES')
  and
	  variable('DMA TOTAL MULTIPOLES')
  commands.

    Psi4 stopped on: Tuesday, 28 April 2020 12:03PM
    Psi4 wall time for execution: 0:00:13.00

*** Psi4 exiting successfully. Buy a developer a beer!
