                               Psi4 1.3.2 release

  ==> Input File <==

--------------------------------------------------------------------------
import numpy as np
set {scf_type pk
basis cc-pvdz
d_convergence 10
gdma_switch   0
gdma_limit    0
gdma_origin   [ 0.0,  0.0,  0.0 ]
}
molecule test {
    units Angstrom
    0 1
    --
    0 1
    C                1.372132566370277    -3.394320718770995    -0.934045028050238
    C                1.713132566370278    -4.876320718770995    -0.846045028050238
    H                0.619132566370277    -3.133320718770995    -0.194045028050238
    H                2.270132566370278    -2.810320718770995    -0.727045028050238
    H                1.019132566370277    -3.153320718770995    -1.935045028050238
    H                1.998132566370278    -5.098320718770994     0.176954971949762
    H                2.582132566370277    -5.038320718770994    -1.483045028050238
    H                0.898862566370278    -5.554040718770994    -1.142145028050238
    C               -0.615867433629723     3.698679281229005    -0.333045028050238
    C               -0.410867433629722    -0.434320718770995     0.769954971949762
    C               -1.046867433629722     0.470679281229005     1.597954971949762
    C                0.150132566370278    -0.001320718770995    -0.422045028050238
    C               -1.119867433629722     1.812679281229005     1.234954971949762
    C                0.078132566370278     1.345679281229005    -0.784045028050238
    C               -0.562867433629722     2.252679281229005     0.038954971949762
    H               -0.351867433629722    -1.475320718770995     1.054954971949762
    H               -1.486867433629723     0.138679281229005     2.528954971949762
    H                0.651132566370278    -0.702320718770995    -1.073045028050238
    H               -1.616867433629722     2.515679281229005     1.888954971949762
    H                0.521132566370277     1.673679281229005    -1.714045028050238
    H                0.212132566370278     3.942679281229005    -0.990045028050238
    H               -0.484867433629722     4.283679281229005     0.577954971949762
    H               -1.559027433629722     4.002969281229005    -0.810395028050238

}
e, wfn = energy('scf', return_wfn=True)
gdma(wfn)
dmavals = variable('DMA DISTRIBUTED MULTIPOLES')
charges = np.array(dmavals)
print(charges)
np.save('SSI-017ILE-030PHE-1-dimer.npy', np.array(charges))--------------------------------------------------------------------------

*** tstart() called on ds3
*** at Tue Apr 28 14:40:23 2020

   => Loading Basis Set <=

    Name: CC-PVDZ
    Role: ORBITAL
    Keyword: BASIS
    atoms 1-2, 9-15  entry C          line   138 file /theoryfs2/ds/metcalf/miniconda2/envs/tf2gpu/share/psi4/basis/cc-pvdz.gbs
    atoms 3-8, 16-23 entry H          line    22 file /theoryfs2/ds/metcalf/miniconda2/envs/tf2gpu/share/psi4/basis/cc-pvdz.gbs

         ---------------------------------------------------------
                                   SCF
               by Justin Turney, Rob Parrish, Andy Simmonett
                          and Daniel G. A. Smith
                              RHF Reference
                        1 Threads,    500 MiB Core
         ---------------------------------------------------------

  ==> Geometry <==

    Molecular point group: c1
    Full point group: C1

    Geometry (in Angstrom), charge = 0, multiplicity = 1:

       Center              X                  Y                   Z               Mass
    ------------   -----------------  -----------------  -----------------  -----------------
         C            1.372132566370    -3.394320718771    -0.934045028050    12.000000000000
         C            1.713132566370    -4.876320718771    -0.846045028050    12.000000000000
         H            0.619132566370    -3.133320718771    -0.194045028050     1.007825032230
         H            2.270132566370    -2.810320718771    -0.727045028050     1.007825032230
         H            1.019132566370    -3.153320718771    -1.935045028050     1.007825032230
         H            1.998132566370    -5.098320718771     0.176954971950     1.007825032230
         H            2.582132566370    -5.038320718771    -1.483045028050     1.007825032230
         H            0.898862566370    -5.554040718771    -1.142145028050     1.007825032230
         C           -0.615867433630     3.698679281229    -0.333045028050    12.000000000000
         C           -0.410867433630    -0.434320718771     0.769954971950    12.000000000000
         C           -1.046867433630     0.470679281229     1.597954971950    12.000000000000
         C            0.150132566370    -0.001320718771    -0.422045028050    12.000000000000
         C           -1.119867433630     1.812679281229     1.234954971950    12.000000000000
         C            0.078132566370     1.345679281229    -0.784045028050    12.000000000000
         C           -0.562867433630     2.252679281229     0.038954971950    12.000000000000
         H           -0.351867433630    -1.475320718771     1.054954971950     1.007825032230
         H           -1.486867433630     0.138679281229     2.528954971950     1.007825032230
         H            0.651132566370    -0.702320718771    -1.073045028050     1.007825032230
         H           -1.616867433630     2.515679281229     1.888954971950     1.007825032230
         H            0.521132566370     1.673679281229    -1.714045028050     1.007825032230
         H            0.212132566370     3.942679281229    -0.990045028050     1.007825032230
         H           -0.484867433630     4.283679281229     0.577954971950     1.007825032230
         H           -1.559027433630     4.002969281229    -0.810395028050     1.007825032230

  Running in c1 symmetry.

  Rotational constants: A =      0.13511  B =      0.01682  C =      0.01509 [cm^-1]
  Rotational constants: A =   4050.37291  B =    504.11730  C =    452.39365 [MHz]
  Nuclear repulsion =  396.825594820877768

  Charge       = 0
  Multiplicity = 1
  Electrons    = 68
  Nalpha       = 34
  Nbeta        = 34

  ==> Algorithm <==

  SCF Algorithm Type is PK.
  DIIS enabled.
  MOM disabled.
  Fractional occupation disabled.
  Guess Type is SAD.
  Energy threshold   = 1.00e-06
  Density threshold  = 1.00e-10
  Integral threshold = 0.00e+00

  ==> Primary Basis <==

  Basis Set: CC-PVDZ
    Blend: CC-PVDZ
    Number of shells: 96
    Number of basis function: 196
    Number of Cartesian functions: 205
    Spherical Harmonics?: true
    Max angular momentum: 2

  ==> Pre-Iterations <==

   -------------------------------------------------------
    Irrep   Nso     Nmo     Nalpha   Nbeta   Ndocc  Nsocc
   -------------------------------------------------------
     A        196     196       0       0       0       0
   -------------------------------------------------------
    Total     196     196      34      34      34       0
   -------------------------------------------------------

  ==> Integral Setup <==

  Using integral reordering PK algorithm.
  Sizing the integral batches needed.
  Building batch lookup table.
   Calculation information:
      Number of atoms:                  23
      Number of AO shells:              96
      Number of primitives:            268
      Number of atomic orbitals:       205
      Number of basis functions:       196

      Integral cutoff                 1.00e-12
      Number of threads:                 1

	Batch   1 pq = [       0,    9405] index = [             0,44231715] size =     44231715
	Batch   2 pq = [    9405,   13301] index = [      44231715,88464951] size =     44233236
	Batch   3 pq = [   13301,   16290] index = [      88464951,132690195] size =     44225244
	Batch   4 pq = [   16290,   18810] index = [     132690195,176917455] size =     44227260
	Batch   5 pq = [   18810,   19306] index = [     176917455,186370471] size =      9453016
  Task number: 17
  Buffer size: 11059200
  Buffer per thread: 2
  We computed 8061840 shell quartets total.
  Whereas there are 10841496 unique shell quartets.

  ==> DiskJK: Disk-Based J/K Matrices <==

    J tasked:                  Yes
    K tasked:                  Yes
    wK tasked:                  No
    Memory [MiB]:              375
    Schwarz Cutoff:          1E-12

    OpenMP threads:              1

  Minimum eigenvalue in the overlap matrix is 2.9633291112E-04.
  Using Symmetric Orthogonalization.

  SCF Guess: Superposition of Atomic Densities via on-the-fly atomic UHF.

  ==> Iterations <==

                        Total Energy        Delta E     RMS |[F,P]|

   @RHF iter SAD:  -347.97458920568749   -3.47975e+02   0.00000e+00
   @RHF iter   1:  -348.76308555737592   -7.88496e-01   2.91768e-03 DIIS
   @RHF iter   2:  -348.95815260124283   -1.95067e-01   1.21177e-03 DIIS
   @RHF iter   3:  -348.98885275748876   -3.07002e-02   2.62556e-04 DIIS
   @RHF iter   4:  -348.99136925201617   -2.51649e-03   5.87571e-05 DIIS
   @RHF iter   5:  -348.99145613918904   -8.68872e-05   1.97582e-05 DIIS
   @RHF iter   6:  -348.99146570013221   -9.56094e-06   5.08475e-06 DIIS
   @RHF iter   7:  -348.99146645272123   -7.52589e-07   1.23044e-06 DIIS
   @RHF iter   8:  -348.99146650563665   -5.29154e-08   3.11806e-07 DIIS
   @RHF iter   9:  -348.99146651221974   -6.58309e-09   1.28111e-07 DIIS
   @RHF iter  10:  -348.99146651367073   -1.45099e-09   6.11938e-08 DIIS
   @RHF iter  11:  -348.99146651418175   -5.11022e-10   2.22539e-08 DIIS
   @RHF iter  12:  -348.99146651424974   -6.79847e-11   9.14574e-09 DIIS
   @RHF iter  13:  -348.99146651425724   -7.50333e-12   3.67883e-09 DIIS
   @RHF iter  14:  -348.99146651425747   -2.27374e-13   9.40236e-10 DIIS
   @RHF iter  15:  -348.99146651425542    2.04636e-12   2.93893e-10 DIIS
   @RHF iter  16:  -348.99146651425548   -5.68434e-14   6.33878e-11 DIIS
  Energy and wave function converged.

  ==> Post-Iterations <==

    Orbital Energies [Eh]
    ---------------------

    Doubly Occupied:

       1A    -11.236241     2A    -11.232921     3A    -11.232224
       4A    -11.228003     5A    -11.227576     6A    -11.227314
       7A    -11.226161     8A    -11.219092     9A    -11.218339
      10A     -1.154014    11A     -1.046640    12A     -1.023079
      13A     -1.009588    14A     -0.931120    15A     -0.840667
      16A     -0.824683    17A     -0.793623    18A     -0.690733
      19A     -0.631705    20A     -0.628297    21A     -0.604097
      22A     -0.599975    23A     -0.580688    24A     -0.576530
      25A     -0.563383    26A     -0.533662    27A     -0.505461
      28A     -0.489492    29A     -0.487121    30A     -0.485768
      31A     -0.482482    32A     -0.478750    33A     -0.330132
      34A     -0.322207

    Virtual:

      35A      0.136937    36A      0.145064    37A      0.177766
      38A      0.191319    39A      0.207831    40A      0.215386
      41A      0.235178    42A      0.241365    43A      0.251131
      44A      0.257738    45A      0.272018    46A      0.280001
      47A      0.284548    48A      0.287537    49A      0.319309
      50A      0.353438    51A      0.370927    52A      0.373913
      53A      0.409781    54A      0.462164    55A      0.480143
      56A      0.488235    57A      0.493455    58A      0.565965
      59A      0.590454    60A      0.598155    61A      0.604030
      62A      0.637309    63A      0.666516    64A      0.671535
      65A      0.674103    66A      0.699269    67A      0.703190
      68A      0.715633    69A      0.733898    70A      0.742772
      71A      0.745547    72A      0.749717    73A      0.759870
      74A      0.774858    75A      0.783788    76A      0.794872
      77A      0.840264    78A      0.849162    79A      0.868898
      80A      0.873229    81A      0.880518    82A      0.889675
      83A      0.891701    84A      0.897318    85A      0.898996
      86A      0.912949    87A      0.920974    88A      0.925986
      89A      0.933857    90A      0.943038    91A      0.946995
      92A      0.971715    93A      0.987948    94A      1.007316
      95A      1.029573    96A      1.048576    97A      1.120729
      98A      1.126142    99A      1.139732   100A      1.147653
     101A      1.158250   102A      1.180748   103A      1.205256
     104A      1.238123   105A      1.253353   106A      1.260812
     107A      1.286716   108A      1.291792   109A      1.310387
     110A      1.316616   111A      1.329246   112A      1.344327
     113A      1.413655   114A      1.466534   115A      1.485674
     116A      1.517482   117A      1.529299   118A      1.561507
     119A      1.593917   120A      1.624088   121A      1.678974
     122A      1.681433   123A      1.694072   124A      1.704986
     125A      1.737644   126A      1.753729   127A      1.762282
     128A      1.793561   129A      1.815285   130A      1.856594
     131A      1.860856   132A      1.879371   133A      1.888214
     134A      1.891512   135A      1.903320   136A      1.913889
     137A      1.918901   138A      1.922568   139A      1.941513
     140A      1.947522   141A      1.950057   142A      1.955077
     143A      1.968628   144A      1.976743   145A      1.982355
     146A      1.996225   147A      2.005043   148A      2.031371
     149A      2.042756   150A      2.066118   151A      2.078100
     152A      2.091712   153A      2.114827   154A      2.133148
     155A      2.158163   156A      2.170113   157A      2.181099
     158A      2.206354   159A      2.218729   160A      2.258407
     161A      2.279004   162A      2.301087   163A      2.304192
     164A      2.305326   165A      2.323305   166A      2.338400
     167A      2.397991   168A      2.457569   169A      2.468293
     170A      2.474824   171A      2.484842   172A      2.510319
     173A      2.552690   174A      2.557985   175A      2.593708
     176A      2.630210   177A      2.742522   178A      2.764277
     179A      2.769807   180A      2.778298   181A      2.790221
     182A      2.807733   183A      2.825136   184A      2.852795
     185A      2.859834   186A      2.865036   187A      2.884298
     188A      2.949827   189A      2.970706   190A      2.992941
     191A      3.027978   192A      3.035168   193A      3.169768
     194A      3.217641   195A      3.313416   196A      3.988168

    Final Occupation by Irrep:
              A
    DOCC [    34 ]

  @RHF Final Energy:  -348.99146651425548

   => Energetics <=

    Nuclear Repulsion Energy =            396.8255948208777681
    One-Electron Energy =               -1256.3105867974343255
    Two-Electron Energy =                 510.4935254623010792
    Total Energy =                       -348.9914665142554782

Computation Completed

Properties will be evaluated at   0.000000,   0.000000,   0.000000 [a0]

Properties computed using the SCF density matrix

  Nuclear Dipole Moment: [e a0]
     X:     4.9427      Y:    -9.7571      Z:    -3.6009

  Electronic Dipole Moment: [e a0]
     X:    -4.9169      Y:     9.8485      Z:     3.5713

  Dipole Moment: [e a0]
     X:     0.0258      Y:     0.0914      Z:    -0.0296     Total:     0.0995

  Dipole Moment: [D]
     X:     0.0657      Y:     0.2324      Z:    -0.0752     Total:     0.2529

*** tstop() called on ds3 at Tue Apr 28 14:42:36 2020
Module time:
	user time   =      58.79 seconds =       0.98 minutes
	system time =      25.64 seconds =       0.43 minutes
	total time  =        133 seconds =       2.22 minutes
Total time:
	user time   =      58.79 seconds =       0.98 minutes
	system time =      25.64 seconds =       0.43 minutes
	total time  =        133 seconds =       2.22 minutes
                                     G D M A

                                 by Anthony Stone

                           version 2.2.06, 22 June 2011

               Distributed Multipoles from Gaussian wavefunctions

Starting at 14:42:36 on 28 Apr 2020

Using SCF density matrix from file ./SSI/SSI-017ILE-030PHE-1-dimer.test.7462.fchk

                         Distributed Multipole Analysis

Standard DMA

Positions and radii in angstrom
Multipole moments in atomic units, ea_0^k for rank k

C          x =  1.372133  y = -3.394321  z = -0.934045 angstrom
           Maximum rank =  0   Radius =  0.650 angstrom
                   Q00  =  -0.246678

C          x =  1.713133  y = -4.876321  z = -0.846045 angstrom
           Maximum rank =  0   Radius =  0.650 angstrom
                   Q00  =  -0.229779

H          x =  0.619133  y = -3.133321  z = -0.194045 angstrom
           Maximum rank =  0   Radius =  0.325 angstrom
                   Q00  =   0.078985

H          x =  2.270133  y = -2.810321  z = -0.727045 angstrom
           Maximum rank =  0   Radius =  0.325 angstrom
                   Q00  =   0.079295

H          x =  1.019133  y = -3.153321  z = -1.935045 angstrom
           Maximum rank =  0   Radius =  0.325 angstrom
                   Q00  =   0.078245

H          x =  1.998133  y = -5.098321  z =  0.176955 angstrom
           Maximum rank =  0   Radius =  0.325 angstrom
                   Q00  =   0.079922

H          x =  2.582133  y = -5.038321  z = -1.483045 angstrom
           Maximum rank =  0   Radius =  0.325 angstrom
                   Q00  =   0.078119

H          x =  0.898863  y = -5.554041  z = -1.142145 angstrom
           Maximum rank =  0   Radius =  0.325 angstrom
                   Q00  =   0.083359

C          x = -0.615867  y =  3.698679  z = -0.333045 angstrom
           Maximum rank =  0   Radius =  0.650 angstrom
                   Q00  =  -0.198474

C          x = -0.410867  y = -0.434321  z =  0.769955 angstrom
           Maximum rank =  0   Radius =  0.650 angstrom
                   Q00  =  -0.088856

C          x = -1.046867  y =  0.470679  z =  1.597955 angstrom
           Maximum rank =  0   Radius =  0.650 angstrom
                   Q00  =  -0.064730

C          x =  0.150133  y = -0.001321  z = -0.422045 angstrom
           Maximum rank =  0   Radius =  0.650 angstrom
                   Q00  =  -0.070952

C          x = -1.119867  y =  1.812679  z =  1.234955 angstrom
           Maximum rank =  0   Radius =  0.650 angstrom
                   Q00  =   0.002189

C          x =  0.078133  y =  1.345679  z = -0.784045 angstrom
           Maximum rank =  0   Radius =  0.650 angstrom
                   Q00  =  -0.077373

C          x = -0.562867  y =  2.252679  z =  0.038955 angstrom
           Maximum rank =  0   Radius =  0.650 angstrom
                   Q00  =  -0.098611

H          x = -0.351867  y = -1.475321  z =  1.054955 angstrom
           Maximum rank =  0   Radius =  0.325 angstrom
                   Q00  =   0.056373

H          x = -1.486867  y =  0.138679  z =  2.528955 angstrom
           Maximum rank =  0   Radius =  0.325 angstrom
                   Q00  =   0.063066

H          x =  0.651133  y = -0.702321  z = -1.073045 angstrom
           Maximum rank =  0   Radius =  0.325 angstrom
                   Q00  =   0.067608

H          x = -1.616867  y =  2.515679  z =  1.888955 angstrom
           Maximum rank =  0   Radius =  0.325 angstrom
                   Q00  =   0.055133

H          x =  0.521133  y =  1.673679  z = -1.714045 angstrom
           Maximum rank =  0   Radius =  0.325 angstrom
                   Q00  =   0.055379

H          x =  0.212133  y =  3.942679  z = -0.990045 angstrom
           Maximum rank =  0   Radius =  0.325 angstrom
                   Q00  =   0.098267

H          x = -0.484867  y =  4.283679  z =  0.577955 angstrom
           Maximum rank =  0   Radius =  0.325 angstrom
                   Q00  =   0.095559

H          x = -1.559027  y =  4.002969  z = -0.810395 angstrom
           Maximum rank =  0   Radius =  0.325 angstrom
                   Q00  =   0.103955

Total multipoles referred to origin at
           x =   0.000000,  y =    0.000000,  z =    0.000000 angstrom
                   Q00  =  -0.000000

Finished at 14:42:36 on 28 Apr 2020

  DMA results are available in the Python driver through the
	  variable('DMA DISTRIBUTED MULTIPOLES')
  and
	  variable('DMA TOTAL MULTIPOLES')
  commands.

    Psi4 stopped on: Tuesday, 28 April 2020 02:42PM
    Psi4 wall time for execution: 0:02:12.82

*** Psi4 exiting successfully. Buy a developer a beer!
