                               Psi4 1.3.2 release

  ==> Input File <==

--------------------------------------------------------------------------
import numpy as np
set {scf_type pk
basis cc-pvdz
d_convergence 10
gdma_switch   0
gdma_limit    0
gdma_origin   [ 0.0,  0.0,  0.0 ]
}
molecule test {
    units Angstrom
    1 1
    --
    1 1
    C                3.138293285289474     1.419564087348401     2.565719792977691
    C                2.492293285289474     2.724564087348401     3.021719792977691
    N                2.923293285289474     0.309564087348402     3.539719792977690
    H                2.703293285289474     1.134564087348402     1.601719792977691
    H                4.208293285289474     1.589564087348402     2.403719792977691
    H                3.201293285289474     3.281564087348401     3.637719792977691
    H                1.606293285289474     2.507564087348401     3.622719792977691
    H                1.942293285289474     0.124564087348402     3.698719792977691
    H                3.349293285289474    -0.548435912651599     3.208719792977691
    H                3.347293285289474     0.524564087348402     4.434719792977690
    H                2.181483285289474     3.332474087348401     2.159249792977691
    C               -1.882706714710526     1.407564087348401    -3.160280207022309
    C               -1.041706714710526    -0.053435912651598    -1.166280207022310
    C               -1.590706714710526     0.119564087348402    -2.482280207022309
    C               -0.924706714710526    -1.446435912651598    -0.940280207022309
    C               -1.769706714710526    -1.125435912651598    -2.990280207022309
    C               -0.158706714710526     0.300564087348402     1.041719792977691
    C               -0.050706714710526    -1.081435912651598     1.234719792977691
    C               -0.649706714710526     0.824564087348402    -0.148280207022309
    C               -0.431706714710526    -1.970435912651598     0.247719792977691
    N               -1.375706714710526    -2.068435912651598    -2.072280207022309
    H                0.131293285289474     0.973564087348401     1.837719792977691
    H                0.326293285289474    -1.464435912651598     2.175719792977691
    H               -0.711706714710526     1.891564087348402    -0.287280207022309
    H               -0.353706714710526    -3.039435912651598     0.391719792977691
    H               -2.231706714710526     1.230564087348402    -4.174280207022310
    H               -0.937706714710526     1.943564087348401    -3.200280207022309
    H               -2.156706714710526    -1.338435912651599    -3.982280207022309
    H               -1.341706714710526    -3.078435912651599    -2.242280207022310
    H               -2.596686714710525     2.047264087348402    -2.620830207022309

}
e, wfn = energy('scf', return_wfn=True)
gdma(wfn)
dmavals = variable('DMA DISTRIBUTED MULTIPOLES')
charges = np.array(dmavals)
print(charges)
np.save('SSI-059LYS-075TRP-1-dimer.npy', np.array(charges))--------------------------------------------------------------------------

*** tstart() called on ds3
*** at Tue Apr 28 03:31:27 2020

   => Loading Basis Set <=

    Name: CC-PVDZ
    Role: ORBITAL
    Keyword: BASIS
    atoms 1-2, 12-20  entry C          line   138 file /theoryfs2/ds/metcalf/miniconda2/envs/tf2gpu/share/psi4/basis/cc-pvdz.gbs
    atoms 3, 21       entry N          line   168 file /theoryfs2/ds/metcalf/miniconda2/envs/tf2gpu/share/psi4/basis/cc-pvdz.gbs
    atoms 4-11, 22-30 entry H          line    22 file /theoryfs2/ds/metcalf/miniconda2/envs/tf2gpu/share/psi4/basis/cc-pvdz.gbs

         ---------------------------------------------------------
                                   SCF
               by Justin Turney, Rob Parrish, Andy Simmonett
                          and Daniel G. A. Smith
                              RHF Reference
                        1 Threads,    500 MiB Core
         ---------------------------------------------------------

  ==> Geometry <==

    Molecular point group: c1
    Full point group: C1

    Geometry (in Angstrom), charge = 1, multiplicity = 1:

       Center              X                  Y                   Z               Mass
    ------------   -----------------  -----------------  -----------------  -----------------
         C            3.138293285289     1.419564087348     2.565719792978    12.000000000000
         C            2.492293285289     2.724564087348     3.021719792978    12.000000000000
         N            2.923293285289     0.309564087348     3.539719792978    14.003074004430
         H            2.703293285289     1.134564087348     1.601719792978     1.007825032230
         H            4.208293285289     1.589564087348     2.403719792978     1.007825032230
         H            3.201293285289     3.281564087348     3.637719792978     1.007825032230
         H            1.606293285289     2.507564087348     3.622719792978     1.007825032230
         H            1.942293285289     0.124564087348     3.698719792978     1.007825032230
         H            3.349293285289    -0.548435912652     3.208719792978     1.007825032230
         H            3.347293285289     0.524564087348     4.434719792978     1.007825032230
         H            2.181483285289     3.332474087348     2.159249792978     1.007825032230
         C           -1.882706714711     1.407564087348    -3.160280207022    12.000000000000
         C           -1.041706714711    -0.053435912652    -1.166280207022    12.000000000000
         C           -1.590706714711     0.119564087348    -2.482280207022    12.000000000000
         C           -0.924706714711    -1.446435912652    -0.940280207022    12.000000000000
         C           -1.769706714711    -1.125435912652    -2.990280207022    12.000000000000
         C           -0.158706714711     0.300564087348     1.041719792978    12.000000000000
         C           -0.050706714711    -1.081435912652     1.234719792978    12.000000000000
         C           -0.649706714711     0.824564087348    -0.148280207022    12.000000000000
         C           -0.431706714711    -1.970435912652     0.247719792978    12.000000000000
         N           -1.375706714711    -2.068435912652    -2.072280207022    14.003074004430
         H            0.131293285289     0.973564087348     1.837719792978     1.007825032230
         H            0.326293285289    -1.464435912652     2.175719792978     1.007825032230
         H           -0.711706714711     1.891564087348    -0.287280207022     1.007825032230
         H           -0.353706714711    -3.039435912652     0.391719792978     1.007825032230
         H           -2.231706714711     1.230564087348    -4.174280207022     1.007825032230
         H           -0.937706714711     1.943564087348    -3.200280207022     1.007825032230
         H           -2.156706714711    -1.338435912652    -3.982280207022     1.007825032230
         H           -1.341706714711    -3.078435912652    -2.242280207022     1.007825032230
         H           -2.596686714711     2.047264087348    -2.620830207022     1.007825032230

  Running in c1 symmetry.

  Rotational constants: A =      0.04949  B =      0.01065  C =      0.00917 [cm^-1]
  Rotational constants: A =   1483.56946  B =    319.41602  C =    274.95510 [MHz]
  Nuclear repulsion =  745.741448269551938

  Charge       = 1
  Multiplicity = 1
  Electrons    = 96
  Nalpha       = 48
  Nbeta        = 48

  ==> Algorithm <==

  SCF Algorithm Type is PK.
  DIIS enabled.
  MOM disabled.
  Fractional occupation disabled.
  Guess Type is SAD.
  Energy threshold   = 1.00e-06
  Density threshold  = 1.00e-10
  Integral threshold = 0.00e+00

  ==> Primary Basis <==

  Basis Set: CC-PVDZ
    Blend: CC-PVDZ
    Number of shells: 129
    Number of basis function: 267
    Number of Cartesian functions: 280
    Spherical Harmonics?: true
    Max angular momentum: 2

  ==> Pre-Iterations <==

   -------------------------------------------------------
    Irrep   Nso     Nmo     Nalpha   Nbeta   Ndocc  Nsocc
   -------------------------------------------------------
     A        267     267       0       0       0       0
   -------------------------------------------------------
    Total     267     267      48      48      48       0
   -------------------------------------------------------

  ==> Integral Setup <==

  Using integral reordering PK algorithm.
  Sizing the integral batches needed.
  Building batch lookup table.
   Calculation information:
      Number of atoms:                  30
      Number of AO shells:             129
      Number of primitives:            371
      Number of atomic orbitals:       280
      Number of basis functions:       267

      Integral cutoff                 1.00e-12
      Number of threads:                 1

	Batch   1 pq = [       0,    9405] index = [             0,44231715] size =     44231715
	Batch   2 pq = [    9405,   13301] index = [      44231715,88464951] size =     44233236
	Batch   3 pq = [   13301,   16290] index = [      88464951,132690195] size =     44225244
	Batch   4 pq = [   16290,   18810] index = [     132690195,176917455] size =     44227260
	Batch   5 pq = [   18810,   21030] index = [     176917455,221140965] size =     44223510
	Batch   6 pq = [   21030,   23037] index = [     221140965,265363203] size =     44222238
	Batch   7 pq = [   23037,   24883] index = [     265363203,309594286] size =     44231083
	Batch   8 pq = [   24883,   26601] index = [     309594286,353819901] size =     44225615
	Batch   9 pq = [   26601,   28214] index = [     353819901,398029005] size =     44209104
	Batch  10 pq = [   28214,   29740] index = [     398029005,442248670] size =     44219665
	Batch  11 pq = [   29740,   31191] index = [     442248670,486454836] size =     44206166
	Batch  12 pq = [   31191,   32578] index = [     486454836,530679331] size =     44224495
	Batch  13 pq = [   32578,   33908] index = [     530679331,574893186] size =     44213855
	Batch  14 pq = [   33908,   35188] index = [     574893186,619115266] size =     44222080
	Batch  15 pq = [   35188,   35778] index = [     619115266,640050531] size =     20935265
  Task number: 58
  Buffer size: 11059200
  Buffer per thread: 2
  We computed 31316324 shell quartets total.
  Whereas there are 35158305 unique shell quartets.

  ==> DiskJK: Disk-Based J/K Matrices <==

    J tasked:                  Yes
    K tasked:                  Yes
    wK tasked:                  No
    Memory [MiB]:              375
    Schwarz Cutoff:          1E-12

    OpenMP threads:              1

  Minimum eigenvalue in the overlap matrix is 2.3471568725E-04.
  Using Symmetric Orthogonalization.

  SCF Guess: Superposition of Atomic Densities via on-the-fly atomic UHF.

  ==> Iterations <==

                        Total Energy        Delta E     RMS |[F,P]|

   @RHF iter SAD:  -534.91442056301150   -5.34914e+02   0.00000e+00
   @RHF iter   1:  -534.87690535106981    3.75152e-02   2.41136e-03 DIIS
   @RHF iter   2:  -535.12773797396062   -2.50833e-01   1.00493e-03 DIIS
   @RHF iter   3:  -535.16604731383791   -3.83093e-02   3.09304e-04 DIIS
   @RHF iter   4:  -535.17054480057925   -4.49749e-03   1.27387e-04 DIIS
   @RHF iter   5:  -535.17119527687055   -6.50476e-04   1.96406e-05 DIIS
   @RHF iter   6:  -535.17122825000490   -3.29731e-05   8.23319e-06 DIIS
   @RHF iter   7:  -535.17123374373261   -5.49373e-06   3.46162e-06 DIIS
   @RHF iter   8:  -535.17123531840241   -1.57467e-06   1.30711e-06 DIIS
   @RHF iter   9:  -535.17123563321911   -3.14817e-07   6.02905e-07 DIIS
   @RHF iter  10:  -535.17123569952616   -6.63071e-08   2.80932e-07 DIIS
   @RHF iter  11:  -535.17123571589411   -1.63679e-08   1.01274e-07 DIIS
   @RHF iter  12:  -535.17123571793616   -2.04204e-09   3.91466e-08 DIIS
   @RHF iter  13:  -535.17123571814727   -2.11116e-10   1.71053e-08 DIIS
   @RHF iter  14:  -535.17123571817604   -2.87628e-11   5.76436e-09 DIIS
   @RHF iter  15:  -535.17123571818217   -6.13909e-12   2.30062e-09 DIIS
   @RHF iter  16:  -535.17123571818081    1.36424e-12   1.08298e-09 DIIS
   @RHF iter  17:  -535.17123571818263   -1.81899e-12   4.66186e-10 DIIS
   @RHF iter  18:  -535.17123571819297   -1.03455e-11   1.91089e-10 DIIS
   @RHF iter  19:  -535.17123571819047    2.50111e-12   5.82191e-11 DIIS
  Energy and wave function converged.

  ==> Post-Iterations <==

    Orbital Energies [Eh]
    ---------------------

    Doubly Occupied:

       1A    -15.897522     2A    -15.687377     3A    -11.471600
       4A    -11.398547     5A    -11.357797     6A    -11.347270
       7A    -11.337328     8A    -11.332025     9A    -11.330497
      10A    -11.330200    11A    -11.314563    12A    -11.299129
      13A    -11.298417    14A     -1.517023    15A     -1.383066
      16A     -1.230551    17A     -1.212132    18A     -1.162533
      19A     -1.096716    20A     -1.084533    21A     -1.049148
      22A     -1.013315    23A     -0.973970    24A     -0.960535
      25A     -0.936984    26A     -0.901707    27A     -0.853972
      28A     -0.843509    29A     -0.809373    30A     -0.790527
      31A     -0.757487    32A     -0.744957    33A     -0.715007
      34A     -0.697982    35A     -0.694501    36A     -0.690123
      37A     -0.676953    38A     -0.675224    39A     -0.654061
      40A     -0.632935    41A     -0.627802    42A     -0.620058
      43A     -0.590549    44A     -0.564258    45A     -0.563546
      46A     -0.464358    47A     -0.394325    48A     -0.366209

    Virtual:

      49A     -0.042586    50A      0.021008    51A      0.023749
      52A      0.032930    53A      0.038127    54A      0.063488
      55A      0.077059    56A      0.093714    57A      0.103384
      58A      0.107047    59A      0.117007    60A      0.126727
      61A      0.140572    62A      0.149478    63A      0.151169
      64A      0.159136    65A      0.168829    66A      0.192512
      67A      0.208883    68A      0.211801    69A      0.215068
      70A      0.222707    71A      0.286268    72A      0.297396
      73A      0.322143    74A      0.323788    75A      0.338117
      76A      0.366103    77A      0.387435    78A      0.396499
      79A      0.401594    80A      0.419557    81A      0.431975
      82A      0.444907    83A      0.468777    84A      0.491229
      85A      0.513020    86A      0.528444    87A      0.550116
      88A      0.554508    89A      0.572178    90A      0.588555
      91A      0.599263    92A      0.605003    93A      0.612856
      94A      0.621613    95A      0.630767    96A      0.642823
      97A      0.646435    98A      0.651931    99A      0.654093
     100A      0.659563   101A      0.667270   102A      0.672582
     103A      0.680905   104A      0.690722   105A      0.701179
     106A      0.701946   107A      0.716291   108A      0.723956
     109A      0.728700   110A      0.744692   111A      0.757156
     112A      0.768867   113A      0.776979   114A      0.784536
     115A      0.788763   116A      0.795754   117A      0.807282
     118A      0.813131   119A      0.822026   120A      0.832454
     121A      0.845254   122A      0.865746   123A      0.868158
     124A      0.879094   125A      0.880201   126A      0.887453
     127A      0.911114   128A      0.926749   129A      0.930525
     130A      0.943222   131A      0.977709   132A      0.981802
     133A      0.998729   134A      1.031018   135A      1.035072
     136A      1.039255   137A      1.047311   138A      1.075475
     139A      1.094733   140A      1.114130   141A      1.135842
     142A      1.138999   143A      1.147432   144A      1.158860
     145A      1.177393   146A      1.202169   147A      1.209023
     148A      1.211346   149A      1.232906   150A      1.237990
     151A      1.266026   152A      1.274783   153A      1.288705
     154A      1.304627   155A      1.325274   156A      1.356452
     157A      1.412475   158A      1.432980   159A      1.469397
     160A      1.479049   161A      1.484850   162A      1.500564
     163A      1.504929   164A      1.519634   165A      1.545550
     166A      1.561718   167A      1.574373   168A      1.595148
     169A      1.614148   170A      1.618755   171A      1.639221
     172A      1.655136   173A      1.662697   174A      1.675515
     175A      1.684846   176A      1.696899   177A      1.715684
     178A      1.723086   179A      1.730264   180A      1.741714
     181A      1.746195   182A      1.760757   183A      1.778780
     184A      1.786651   185A      1.794663   186A      1.800072
     187A      1.803231   188A      1.825924   189A      1.830222
     190A      1.834862   191A      1.842152   192A      1.848100
     193A      1.869081   194A      1.882023   195A      1.889283
     196A      1.909720   197A      1.919871   198A      1.924224
     199A      1.937177   200A      1.949040   201A      1.972851
     202A      1.980322   203A      1.989052   204A      1.994302
     205A      2.008125   206A      2.008728   207A      2.016456
     208A      2.023791   209A      2.032499   210A      2.045121
     211A      2.059968   212A      2.068997   213A      2.077062
     214A      2.092671   215A      2.122829   216A      2.136082
     217A      2.142358   218A      2.158781   219A      2.172207
     220A      2.207067   221A      2.214185   222A      2.225190
     223A      2.246085   224A      2.252744   225A      2.262524
     226A      2.304498   227A      2.345629   228A      2.351912
     229A      2.360388   230A      2.386165   231A      2.407191
     232A      2.430519   233A      2.445239   234A      2.497578
     235A      2.516543   236A      2.520546   237A      2.557880
     238A      2.562443   239A      2.570329   240A      2.584868
     241A      2.601087   242A      2.617428   243A      2.626537
     244A      2.670865   245A      2.691440   246A      2.699010
     247A      2.701938   248A      2.709654   249A      2.734053
     250A      2.750201   251A      2.792966   252A      2.796634
     253A      2.806531   254A      2.829295   255A      2.839947
     256A      2.882538   257A      2.954462   258A      2.956479
     259A      2.987152   260A      3.026384   261A      3.109116
     262A      3.112690   263A      3.125052   264A      3.221889
     265A      3.295110   266A      3.648205   267A      3.855364

    Final Occupation by Irrep:
              A
    DOCC [    48 ]

  @RHF Final Energy:  -535.17123571819047

   => Energetics <=

    Nuclear Repulsion Energy =            745.7414482695519382
    One-Electron Energy =               -2191.1209737772301196
    Two-Electron Energy =                 910.2082897894877078
    Total Energy =                       -535.1712357181904736

Computation Completed

Properties will be evaluated at   0.000000,   0.000000,   0.000000 [a0]

Properties computed using the SCF density matrix

  Nuclear Dipole Moment: [e a0]
     X:    11.8706      Y:    10.4225      Z:    11.8690

  Electronic Dipole Moment: [e a0]
     X:    -7.0709      Y:   -10.0447      Z:    -6.9473

  Dipole Moment: [e a0]
     X:     4.7997      Y:     0.3778      Z:     4.9217     Total:     6.8849

  Dipole Moment: [D]
     X:    12.1996      Y:     0.9601      Z:    12.5096     Total:    17.4998

*** tstop() called on ds3 at Tue Apr 28 03:37:24 2020
Module time:
	user time   =     252.76 seconds =       4.21 minutes
	system time =     105.68 seconds =       1.76 minutes
	total time  =        357 seconds =       5.95 minutes
Total time:
	user time   =     252.76 seconds =       4.21 minutes
	system time =     105.68 seconds =       1.76 minutes
	total time  =        357 seconds =       5.95 minutes
                                     G D M A

                                 by Anthony Stone

                           version 2.2.06, 22 June 2011

               Distributed Multipoles from Gaussian wavefunctions

Starting at 3:37:24 on 28 Apr 2020

Using SCF density matrix from file ./SSI/SSI-059LYS-075TRP-1-dimer.test.16184.fchk

                         Distributed Multipole Analysis

Standard DMA

Positions and radii in angstrom
Multipole moments in atomic units, ea_0^k for rank k

C          x =  3.138293  y =  1.419564  z =  2.565720 angstrom
           Maximum rank =  0   Radius =  0.650 angstrom
                   Q00  =  -0.043030

C          x =  2.492293  y =  2.724564  z =  3.021720 angstrom
           Maximum rank =  0   Radius =  0.650 angstrom
                   Q00  =  -0.231863

N          x =  2.923293  y =  0.309564  z =  3.539720 angstrom
           Maximum rank =  0   Radius =  0.650 angstrom
                   Q00  =  -0.142424

H          x =  2.703293  y =  1.134564  z =  1.601720 angstrom
           Maximum rank =  0   Radius =  0.325 angstrom
                   Q00  =   0.140186

H          x =  4.208293  y =  1.589564  z =  2.403720 angstrom
           Maximum rank =  0   Radius =  0.325 angstrom
                   Q00  =   0.135016

H          x =  3.201293  y =  3.281564  z =  3.637720 angstrom
           Maximum rank =  0   Radius =  0.325 angstrom
                   Q00  =   0.122650

H          x =  1.606293  y =  2.507564  z =  3.622720 angstrom
           Maximum rank =  0   Radius =  0.325 angstrom
                   Q00  =   0.090829

H          x =  1.942293  y =  0.124564  z =  3.698720 angstrom
           Maximum rank =  0   Radius =  0.325 angstrom
                   Q00  =   0.265050

H          x =  3.349293  y = -0.548436  z =  3.208720 angstrom
           Maximum rank =  0   Radius =  0.325 angstrom
                   Q00  =   0.259374

H          x =  3.347293  y =  0.524564  z =  4.434720 angstrom
           Maximum rank =  0   Radius =  0.325 angstrom
                   Q00  =   0.251302

H          x =  2.181483  y =  3.332474  z =  2.159250 angstrom
           Maximum rank =  0   Radius =  0.325 angstrom
                   Q00  =   0.153825

C          x = -1.882707  y =  1.407564  z = -3.160280 angstrom
           Maximum rank =  0   Radius =  0.650 angstrom
                   Q00  =  -0.198988

C          x = -1.041707  y = -0.053436  z = -1.166280 angstrom
           Maximum rank =  0   Radius =  0.650 angstrom
                   Q00  =  -0.051124

C          x = -1.590707  y =  0.119564  z = -2.482280 angstrom
           Maximum rank =  0   Radius =  0.650 angstrom
                   Q00  =  -0.123553

C          x = -0.924707  y = -1.446436  z = -0.940280 angstrom
           Maximum rank =  0   Radius =  0.650 angstrom
                   Q00  =   0.321195

C          x = -1.769707  y = -1.125436  z = -2.990280 angstrom
           Maximum rank =  0   Radius =  0.650 angstrom
                   Q00  =   0.090947

C          x = -0.158707  y =  0.300564  z =  1.041720 angstrom
           Maximum rank =  0   Radius =  0.650 angstrom
                   Q00  =  -0.127224

C          x = -0.050707  y = -1.081436  z =  1.234720 angstrom
           Maximum rank =  0   Radius =  0.650 angstrom
                   Q00  =  -0.096589

C          x = -0.649707  y =  0.824564  z = -0.148280 angstrom
           Maximum rank =  0   Radius =  0.650 angstrom
                   Q00  =  -0.084878

C          x = -0.431707  y = -1.970436  z =  0.247720 angstrom
           Maximum rank =  0   Radius =  0.650 angstrom
                   Q00  =  -0.102490

N          x = -1.375707  y = -2.068436  z = -2.072280 angstrom
           Maximum rank =  0   Radius =  0.650 angstrom
                   Q00  =  -0.508647

H          x =  0.131293  y =  0.973564  z =  1.837720 angstrom
           Maximum rank =  0   Radius =  0.325 angstrom
                   Q00  =   0.014652

H          x =  0.326293  y = -1.464436  z =  2.175720 angstrom
           Maximum rank =  0   Radius =  0.325 angstrom
                   Q00  =   0.025109

H          x = -0.711707  y =  1.891564  z = -0.287280 angstrom
           Maximum rank =  0   Radius =  0.325 angstrom
                   Q00  =   0.084001

H          x = -0.353707  y = -3.039436  z =  0.391720 angstrom
           Maximum rank =  0   Radius =  0.325 angstrom
                   Q00  =   0.090588

H          x = -2.231707  y =  1.230564  z = -4.174280 angstrom
           Maximum rank =  0   Radius =  0.325 angstrom
                   Q00  =   0.120324

H          x = -0.937707  y =  1.943564  z = -3.200280 angstrom
           Maximum rank =  0   Radius =  0.325 angstrom
                   Q00  =   0.092440

H          x = -2.156707  y = -1.338436  z = -3.982280 angstrom
           Maximum rank =  0   Radius =  0.325 angstrom
                   Q00  =   0.118556

H          x = -1.341707  y = -3.078436  z = -2.242280 angstrom
           Maximum rank =  0   Radius =  0.325 angstrom
                   Q00  =   0.231799

H          x = -2.596687  y =  2.047264  z = -2.620830 angstrom
           Maximum rank =  0   Radius =  0.325 angstrom
                   Q00  =   0.102966

Total multipoles referred to origin at
           x =   0.000000,  y =    0.000000,  z =    0.000000 angstrom
                   Q00  =   1.000000

Finished at 3:37:24 on 28 Apr 2020

  DMA results are available in the Python driver through the
	  variable('DMA DISTRIBUTED MULTIPOLES')
  and
	  variable('DMA TOTAL MULTIPOLES')
  commands.

    Psi4 stopped on: Tuesday, 28 April 2020 03:37AM
    Psi4 wall time for execution: 0:05:56.98

*** Psi4 exiting successfully. Buy a developer a beer!
