                               Psi4 1.3.2 release

  ==> Input File <==

--------------------------------------------------------------------------
import numpy as np
set {scf_type pk
basis cc-pvdz
d_convergence 10
gdma_switch   0
gdma_limit    0
gdma_origin   [ 0.0,  0.0,  0.0 ]
}
molecule test {
    units Angstrom
    0 1
    --
    0 1
    C                1.659091261150842    -0.381865338327052     0.307243948132788
    C                2.812091261150842     0.545134661672948     0.740243948132788
    H                1.460091261150842    -0.275865338327052    -0.759756051867212
    H                1.914091261150842    -1.420865338327052     0.514243948132788
    H                0.752091261150842    -0.156865338327052     0.870243948132788
    H                2.862091261150841     0.517134661672948     1.830243948132787
    H                2.626351261150841     1.584984661672948     0.433307948132788
    H                3.779371261150842     0.211494661672948     0.336436948132788
    C               -2.182908738849159    -0.518865338327052     0.091243948132788
    C               -2.289908738849158     0.359134661672948    -1.143756051867213
    H               -3.129908738849158    -1.029865338327052     0.270243948132788
    H               -1.396908738849158    -1.260865338327052    -0.049756051867212
    H               -1.934908738849158     0.092134661672948     0.959243948132788
    H               -1.325908738849158     0.831134661672948    -1.304756051867213
    H               -3.070892738849158     1.122774661672948    -1.013712051867212
    H               -2.516092738849158    -0.257465338327052    -2.026162051867212

}
e, wfn = energy('scf', return_wfn=True)
gdma(wfn)
dmavals = variable('DMA DISTRIBUTED MULTIPOLES')
charges = np.array(dmavals)
print(charges)
np.save('SSI-013ILE-017LEU-1-dimer.npy', np.array(charges))--------------------------------------------------------------------------

*** tstart() called on ds3
*** at Mon Apr 27 13:45:20 2020

   => Loading Basis Set <=

    Name: CC-PVDZ
    Role: ORBITAL
    Keyword: BASIS
    atoms 1-2, 9-10  entry C          line   138 file /theoryfs2/ds/metcalf/miniconda2/envs/tf2gpu/share/psi4/basis/cc-pvdz.gbs
    atoms 3-8, 11-16 entry H          line    22 file /theoryfs2/ds/metcalf/miniconda2/envs/tf2gpu/share/psi4/basis/cc-pvdz.gbs

         ---------------------------------------------------------
                                   SCF
               by Justin Turney, Rob Parrish, Andy Simmonett
                          and Daniel G. A. Smith
                              RHF Reference
                        1 Threads,    500 MiB Core
         ---------------------------------------------------------

  ==> Geometry <==

    Molecular point group: c1
    Full point group: C1

    Geometry (in Angstrom), charge = 0, multiplicity = 1:

       Center              X                  Y                   Z               Mass
    ------------   -----------------  -----------------  -----------------  -----------------
         C            1.659091261151    -0.381865338327     0.307243948133    12.000000000000
         C            2.812091261151     0.545134661673     0.740243948133    12.000000000000
         H            1.460091261151    -0.275865338327    -0.759756051867     1.007825032230
         H            1.914091261151    -1.420865338327     0.514243948133     1.007825032230
         H            0.752091261151    -0.156865338327     0.870243948133     1.007825032230
         H            2.862091261151     0.517134661673     1.830243948133     1.007825032230
         H            2.626351261151     1.584984661673     0.433307948133     1.007825032230
         H            3.779371261151     0.211494661673     0.336436948133     1.007825032230
         C           -2.182908738849    -0.518865338327     0.091243948133    12.000000000000
         C           -2.289908738849     0.359134661673    -1.143756051867    12.000000000000
         H           -3.129908738849    -1.029865338327     0.270243948133     1.007825032230
         H           -1.396908738849    -1.260865338327    -0.049756051867     1.007825032230
         H           -1.934908738849     0.092134661673     0.959243948133     1.007825032230
         H           -1.325908738849     0.831134661673    -1.304756051867     1.007825032230
         H           -3.070892738849     1.122774661673    -1.013712051867     1.007825032230
         H           -2.516092738849    -0.257465338327    -2.026162051867     1.007825032230

  Running in c1 symmetry.

  Rotational constants: A =      0.46326  B =      0.04841  C =      0.04645 [cm^-1]
  Rotational constants: A =  13888.32198  B =   1451.20417  C =   1392.42440 [MHz]
  Nuclear repulsion =  121.861739011897853

  Charge       = 0
  Multiplicity = 1
  Electrons    = 36
  Nalpha       = 18
  Nbeta        = 18

  ==> Algorithm <==

  SCF Algorithm Type is PK.
  DIIS enabled.
  MOM disabled.
  Fractional occupation disabled.
  Guess Type is SAD.
  Energy threshold   = 1.00e-06
  Density threshold  = 1.00e-10
  Integral threshold = 0.00e+00

  ==> Primary Basis <==

  Basis Set: CC-PVDZ
    Blend: CC-PVDZ
    Number of shells: 60
    Number of basis function: 116
    Number of Cartesian functions: 120
    Spherical Harmonics?: true
    Max angular momentum: 2

  ==> Pre-Iterations <==

   -------------------------------------------------------
    Irrep   Nso     Nmo     Nalpha   Nbeta   Ndocc  Nsocc
   -------------------------------------------------------
     A        116     116       0       0       0       0
   -------------------------------------------------------
    Total     116     116      18      18      18       0
   -------------------------------------------------------

  ==> Integral Setup <==

  Using integral reordering PK algorithm.
  Sizing the integral batches needed.
  Building batch lookup table.
   Calculation information:
      Number of atoms:                  16
      Number of AO shells:              60
      Number of primitives:            148
      Number of atomic orbitals:       120
      Number of basis functions:       116

      Integral cutoff                 1.00e-12
      Number of threads:                 1

	Batch   1 pq = [       0,    6786] index = [             0,23028291] size =     23028291
  Task number: 3
  Buffer size: 11059200
  Buffer per thread: 2
  We computed 1433385 shell quartets total.
  Whereas there are 1675365 unique shell quartets.

  ==> DiskJK: Disk-Based J/K Matrices <==

    J tasked:                  Yes
    K tasked:                  Yes
    wK tasked:                  No
    Memory [MiB]:              375
    Schwarz Cutoff:          1E-12

    OpenMP threads:              1

  Minimum eigenvalue in the overlap matrix is 7.3548327232E-03.
  Using Symmetric Orthogonalization.

  SCF Guess: Superposition of Atomic Densities via on-the-fly atomic UHF.

  ==> Iterations <==

                        Total Energy        Delta E     RMS |[F,P]|

   @RHF iter SAD:  -157.33651785857950   -1.57337e+02   0.00000e+00
   @RHF iter   1:  -158.30848407075140   -9.71966e-01   4.20731e-03 DIIS
   @RHF iter   2:  -158.44153404325107   -1.33050e-01   1.79710e-03 DIIS
   @RHF iter   3:  -158.46496594067685   -2.34319e-02   3.49271e-04 DIIS
   @RHF iter   4:  -158.46679846449661   -1.83252e-03   3.87146e-05 DIIS
   @RHF iter   5:  -158.46682208283690   -2.36183e-05   6.35348e-06 DIIS
   @RHF iter   6:  -158.46682269028111   -6.07444e-07   9.63152e-07 DIIS
   @RHF iter   7:  -158.46682269985627   -9.57516e-09   3.05428e-07 DIIS
   @RHF iter   8:  -158.46682270065438   -7.98110e-10   4.05711e-08 DIIS
   @RHF iter   9:  -158.46682270067919   -2.48122e-11   8.38300e-09 DIIS
   @RHF iter  10:  -158.46682270068027   -1.08002e-12   2.41950e-09 DIIS
   @RHF iter  11:  -158.46682270068038   -1.13687e-13   7.01368e-10 DIIS
   @RHF iter  12:  -158.46682270068015    2.27374e-13   1.47571e-10 DIIS
   @RHF iter  13:  -158.46682270068035   -1.98952e-13   2.26482e-11 DIIS
  Energy and wave function converged.

  ==> Post-Iterations <==

    Orbital Energies [Eh]
    ---------------------

    Doubly Occupied:

       1A    -11.221060     2A    -11.218489     3A    -11.217649
       4A    -11.215627     5A     -1.020839     6A     -1.014654
       7A     -0.839846     8A     -0.834659     9A     -0.602792
      10A     -0.598379    11A     -0.596818    12A     -0.592025
      13A     -0.504306    14A     -0.498777    15A     -0.488224
      16A     -0.486234    17A     -0.484569    18A     -0.481722

    Virtual:

      19A      0.170261    20A      0.197621    21A      0.225470
      22A      0.229933    23A      0.242444    24A      0.259110
      25A      0.264439    26A      0.274403    27A      0.283209
      28A      0.287116    29A      0.312550    30A      0.326578
      31A      0.393279    32A      0.411437    33A      0.578450
      34A      0.592170    35A      0.598263    36A      0.602757
      37A      0.605625    38A      0.638402    39A      0.679183
      40A      0.682214    41A      0.700991    42A      0.773574
      43A      0.844480    44A      0.855450    45A      0.882849
      46A      0.886979    47A      0.889878    48A      0.896187
      49A      0.900526    50A      0.906290    51A      0.916703
      52A      0.921119    53A      0.935729    54A      0.964003
      55A      0.979304    56A      0.995678    57A      1.118526
      58A      1.129385    59A      1.133100    60A      1.145391
      61A      1.241317    62A      1.242865    63A      1.460254
      64A      1.470155    65A      1.476429    66A      1.491868
      67A      1.565440    68A      1.585280    69A      1.681058
      70A      1.684499    71A      1.694238    72A      1.697138
      73A      1.854431    74A      1.862261    75A      1.869511
      76A      1.872646    77A      1.903391    78A      1.908938
      79A      1.924949    80A      1.941830    81A      1.944691
      82A      1.946576    83A      1.947826    84A      1.953549
      85A      1.958849    86A      1.969501    87A      1.983400
      88A      2.022742    89A      2.088111    90A      2.111804
      91A      2.115341    92A      2.129232    93A      2.296438
      94A      2.305287    95A      2.317356    96A      2.318671
      97A      2.439038    98A      2.447135    99A      2.464193
     100A      2.472981   101A      2.552531   102A      2.565604
     103A      2.574244   104A      2.579687   105A      2.756995
     106A      2.763759   107A      2.785175   108A      2.796476
     109A      2.846490   110A      2.850593   111A      2.860266
     112A      2.863456   113A      2.940192   114A      2.945429
     115A      2.959525   116A      2.978013

    Final Occupation by Irrep:
              A
    DOCC [    18 ]

  @RHF Final Energy:  -158.46682270068035

   => Energetics <=

    Nuclear Repulsion Energy =            121.8617390118978534
    One-Electron Energy =                -452.8237882305008384
    Two-Electron Energy =                 172.4952265179226458
    Total Energy =                       -158.4668227006803534

Computation Completed

Properties will be evaluated at   0.000000,   0.000000,   0.000000 [a0]

Properties computed using the SCF density matrix

  Nuclear Dipole Moment: [e a0]
     X:     0.0182      Y:    -0.0395      Z:     0.0561

  Electronic Dipole Moment: [e a0]
     X:    -0.0139      Y:     0.0260      Z:    -0.0423

  Dipole Moment: [e a0]
     X:     0.0044      Y:    -0.0135      Z:     0.0138     Total:     0.0198

  Dipole Moment: [D]
     X:     0.0112      Y:    -0.0343      Z:     0.0351     Total:     0.0503

*** tstop() called on ds3 at Mon Apr 27 13:45:31 2020
Module time:
	user time   =       7.84 seconds =       0.13 minutes
	system time =       3.05 seconds =       0.05 minutes
	total time  =         11 seconds =       0.18 minutes
Total time:
	user time   =       7.84 seconds =       0.13 minutes
	system time =       3.05 seconds =       0.05 minutes
	total time  =         11 seconds =       0.18 minutes
                                     G D M A

                                 by Anthony Stone

                           version 2.2.06, 22 June 2011

               Distributed Multipoles from Gaussian wavefunctions

Starting at 13:45:31 on 27 Apr 2020

Using SCF density matrix from file ./SSI/SSI-013ILE-017LEU-1-dimer.test.7750.fchk

                         Distributed Multipole Analysis

Standard DMA

Positions and radii in angstrom
Multipole moments in atomic units, ea_0^k for rank k

C          x =  1.659091  y = -0.381865  z =  0.307244 angstrom
           Maximum rank =  0   Radius =  0.650 angstrom
                   Q00  =  -0.246297

C          x =  2.812091  y =  0.545135  z =  0.740244 angstrom
           Maximum rank =  0   Radius =  0.650 angstrom
                   Q00  =  -0.239014

H          x =  1.460091  y = -0.275865  z = -0.759756 angstrom
           Maximum rank =  0   Radius =  0.325 angstrom
                   Q00  =   0.079520

H          x =  1.914091  y = -1.420865  z =  0.514244 angstrom
           Maximum rank =  0   Radius =  0.325 angstrom
                   Q00  =   0.080573

H          x =  0.752091  y = -0.156865  z =  0.870244 angstrom
           Maximum rank =  0   Radius =  0.325 angstrom
                   Q00  =   0.083863

H          x =  2.862091  y =  0.517135  z =  1.830244 angstrom
           Maximum rank =  0   Radius =  0.325 angstrom
                   Q00  =   0.078174

H          x =  2.626351  y =  1.584985  z =  0.433308 angstrom
           Maximum rank =  0   Radius =  0.325 angstrom
                   Q00  =   0.080968

H          x =  3.779371  y =  0.211495  z =  0.336437 angstrom
           Maximum rank =  0   Radius =  0.325 angstrom
                   Q00  =   0.082112

C          x = -2.182909  y = -0.518865  z =  0.091244 angstrom
           Maximum rank =  0   Radius =  0.650 angstrom
                   Q00  =  -0.236593

C          x = -2.289909  y =  0.359135  z = -1.143756 angstrom
           Maximum rank =  0   Radius =  0.650 angstrom
                   Q00  =  -0.231781

H          x = -3.129909  y = -1.029865  z =  0.270244 angstrom
           Maximum rank =  0   Radius =  0.325 angstrom
                   Q00  =   0.077122

H          x = -1.396909  y = -1.260865  z = -0.049756 angstrom
           Maximum rank =  0   Radius =  0.325 angstrom
                   Q00  =   0.080974

H          x = -1.934909  y =  0.092135  z =  0.959244 angstrom
           Maximum rank =  0   Radius =  0.325 angstrom
                   Q00  =   0.076871

H          x = -1.325909  y =  0.831135  z = -1.304756 angstrom
           Maximum rank =  0   Radius =  0.325 angstrom
                   Q00  =   0.078416

H          x = -3.070893  y =  1.122775  z = -1.013712 angstrom
           Maximum rank =  0   Radius =  0.325 angstrom
                   Q00  =   0.078520

H          x = -2.516093  y = -0.257465  z = -2.026162 angstrom
           Maximum rank =  0   Radius =  0.325 angstrom
                   Q00  =   0.076573

Total multipoles referred to origin at
           x =   0.000000,  y =    0.000000,  z =    0.000000 angstrom
                   Q00  =  -0.000000

Finished at 13:45:31 on 27 Apr 2020

  DMA results are available in the Python driver through the
	  variable('DMA DISTRIBUTED MULTIPOLES')
  and
	  variable('DMA TOTAL MULTIPOLES')
  commands.

    Psi4 stopped on: Monday, 27 April 2020 01:45PM
    Psi4 wall time for execution: 0:00:10.87

*** Psi4 exiting successfully. Buy a developer a beer!
