                               Psi4 1.3.2 release

  ==> Input File <==

--------------------------------------------------------------------------
import numpy as np
set {scf_type pk
basis cc-pvdz
d_convergence 10
gdma_switch   0
gdma_limit    0
gdma_origin   [ 0.0,  0.0,  0.0 ]
}
molecule test {
    units Angstrom
    0 1
    --
    0 1
    C                1.994480881782610    -0.043746327776380     0.427565949274408
    C                3.371480881782610     0.313253672223619     0.993565949274408
    O                1.362480881782610    -1.196746327776381     1.012565949274408
    H                1.330480881782610     0.813253672223620     0.456565949274408
    H                2.126480881782610    -0.240746327776380    -0.637434050725592
    H                4.123480881782609    -0.083746327776380     0.312565949274408
    H                1.526480881782610    -1.940746327776380     0.395565949274408
    H                3.507200881782610    -0.096186327776380     2.005466049274407
    H                3.459030881782610     1.409403672223620     0.965348249274408
    C               -2.283519118217390    -0.872746327776381     0.117565949274408
    C               -1.698519118217390     0.349253672223620    -0.603434050725592
    O               -1.127519118217390     1.254253672223619     0.007565949274408
    N               -1.807519118217390     0.352253672223620    -1.928434050725592
    H               -1.956519118217390    -1.739746327776380    -0.454434050725592
    H               -3.374519118217390    -0.840746327776380     0.073565949274408
    H               -1.467519118217390     1.171253672223620    -2.413434050725592
    H               -2.440519118217390    -0.277746327776380    -2.390434050725593
    H               -1.926929118217390    -0.957106327776381     1.154736949274408

}
e, wfn = energy('scf', return_wfn=True)
gdma(wfn)
dmavals = variable('DMA DISTRIBUTED MULTIPOLES')
charges = np.array(dmavals)
print(charges)
np.save('SSI-021SER-142ASN-1-dimer.npy', np.array(charges))--------------------------------------------------------------------------

*** tstart() called on ds3
*** at Sun Apr 26 21:57:26 2020

   => Loading Basis Set <=

    Name: CC-PVDZ
    Role: ORBITAL
    Keyword: BASIS
    atoms 1-2, 10-11 entry C          line   138 file /theoryfs2/ds/metcalf/miniconda2/envs/tf2gpu/share/psi4/basis/cc-pvdz.gbs
    atoms 3, 12      entry O          line   198 file /theoryfs2/ds/metcalf/miniconda2/envs/tf2gpu/share/psi4/basis/cc-pvdz.gbs
    atoms 4-9, 14-18 entry H          line    22 file /theoryfs2/ds/metcalf/miniconda2/envs/tf2gpu/share/psi4/basis/cc-pvdz.gbs
    atoms 13         entry N          line   168 file /theoryfs2/ds/metcalf/miniconda2/envs/tf2gpu/share/psi4/basis/cc-pvdz.gbs

         ---------------------------------------------------------
                                   SCF
               by Justin Turney, Rob Parrish, Andy Simmonett
                          and Daniel G. A. Smith
                              RHF Reference
                        1 Threads,    500 MiB Core
         ---------------------------------------------------------

  ==> Geometry <==

    Molecular point group: c1
    Full point group: C1

    Geometry (in Angstrom), charge = 0, multiplicity = 1:

       Center              X                  Y                   Z               Mass
    ------------   -----------------  -----------------  -----------------  -----------------
         C            1.994480881783    -0.043746327776     0.427565949274    12.000000000000
         C            3.371480881783     0.313253672224     0.993565949274    12.000000000000
         O            1.362480881783    -1.196746327776     1.012565949274    15.994914619570
         H            1.330480881783     0.813253672224     0.456565949274     1.007825032230
         H            2.126480881783    -0.240746327776    -0.637434050726     1.007825032230
         H            4.123480881783    -0.083746327776     0.312565949274     1.007825032230
         H            1.526480881783    -1.940746327776     0.395565949274     1.007825032230
         H            3.507200881783    -0.096186327776     2.005466049274     1.007825032230
         H            3.459030881783     1.409403672224     0.965348249274     1.007825032230
         C           -2.283519118217    -0.872746327776     0.117565949274    12.000000000000
         C           -1.698519118217     0.349253672224    -0.603434050726    12.000000000000
         O           -1.127519118217     1.254253672224     0.007565949274    15.994914619570
         N           -1.807519118217     0.352253672224    -1.928434050726    14.003074004430
         H           -1.956519118217    -1.739746327776    -0.454434050726     1.007825032230
         H           -3.374519118217    -0.840746327776     0.073565949274     1.007825032230
         H           -1.467519118217     1.171253672224    -2.413434050726     1.007825032230
         H           -2.440519118217    -0.277746327776    -2.390434050726     1.007825032230
         H           -1.926929118217    -0.957106327776     1.154736949274     1.007825032230

  Running in c1 symmetry.

  Rotational constants: A =      0.13715  B =      0.03068  C =      0.02820 [cm^-1]
  Rotational constants: A =   4111.66537  B =    919.89832  C =    845.41888 [MHz]
  Nuclear repulsion =  302.217037289859718

  Charge       = 0
  Multiplicity = 1
  Electrons    = 58
  Nalpha       = 29
  Nbeta        = 29

  ==> Algorithm <==

  SCF Algorithm Type is PK.
  DIIS enabled.
  MOM disabled.
  Fractional occupation disabled.
  Guess Type is SAD.
  Energy threshold   = 1.00e-06
  Density threshold  = 1.00e-10
  Integral threshold = 0.00e+00

  ==> Primary Basis <==

  Basis Set: CC-PVDZ
    Blend: CC-PVDZ
    Number of shells: 75
    Number of basis function: 153
    Number of Cartesian functions: 160
    Spherical Harmonics?: true
    Max angular momentum: 2

  ==> Pre-Iterations <==

   -------------------------------------------------------
    Irrep   Nso     Nmo     Nalpha   Nbeta   Ndocc  Nsocc
   -------------------------------------------------------
     A        153     153       0       0       0       0
   -------------------------------------------------------
    Total     153     153      29      29      29       0
   -------------------------------------------------------

  ==> Integral Setup <==

  Using integral reordering PK algorithm.
  Sizing the integral batches needed.
  Building batch lookup table.
   Calculation information:
      Number of atoms:                  18
      Number of AO shells:              75
      Number of primitives:            209
      Number of atomic orbitals:       160
      Number of basis functions:       153

      Integral cutoff                 1.00e-12
      Number of threads:                 1

	Batch   1 pq = [       0,    9405] index = [             0,44231715] size =     44231715
	Batch   2 pq = [    9405,   11781] index = [      44231715,69401871] size =     25170156
  Task number: 7
  Buffer size: 11059200
  Buffer per thread: 2
  We computed 3375460 shell quartets total.
  Whereas there are 4062675 unique shell quartets.

  ==> DiskJK: Disk-Based J/K Matrices <==

    J tasked:                  Yes
    K tasked:                  Yes
    wK tasked:                  No
    Memory [MiB]:              375
    Schwarz Cutoff:          1E-12

    OpenMP threads:              1

  Minimum eigenvalue in the overlap matrix is 4.8799304886E-03.
  Using Symmetric Orthogonalization.

  SCF Guess: Superposition of Atomic Densities via on-the-fly atomic UHF.

  ==> Iterations <==

                        Total Energy        Delta E     RMS |[F,P]|

   @RHF iter SAD:  -360.56229926727644   -3.60562e+02   0.00000e+00
   @RHF iter   1:  -361.82287126629990   -1.26057e+00   4.50619e-03 DIIS
   @RHF iter   2:  -362.01363931867979   -1.90768e-01   2.57348e-03 DIIS
   @RHF iter   3:  -362.07059114021769   -5.69518e-02   5.10195e-04 DIIS
   @RHF iter   4:  -362.07419781461175   -3.60667e-03   2.06330e-04 DIIS
   @RHF iter   5:  -362.07482038665137   -6.22572e-04   3.94828e-05 DIIS
   @RHF iter   6:  -362.07485646259397   -3.60759e-05   1.82442e-05 DIIS
   @RHF iter   7:  -362.07486376999162   -7.30740e-06   6.53490e-06 DIIS
   @RHF iter   8:  -362.07486517458233   -1.40459e-06   2.42305e-06 DIIS
   @RHF iter   9:  -362.07486536815856   -1.93576e-07   7.77258e-07 DIIS
   @RHF iter  10:  -362.07486538599750   -1.78389e-08   2.43434e-07 DIIS
   @RHF iter  11:  -362.07486538753869   -1.54120e-09   5.51052e-08 DIIS
   @RHF iter  12:  -362.07486538761924   -8.05471e-11   1.80666e-08 DIIS
   @RHF iter  13:  -362.07486538762805   -8.81073e-12   4.60717e-09 DIIS
   @RHF iter  14:  -362.07486538762817   -1.13687e-13   1.46994e-09 DIIS
   @RHF iter  15:  -362.07486538762748    6.82121e-13   5.52219e-10 DIIS
   @RHF iter  16:  -362.07486538762720    2.84217e-13   2.85542e-10 DIIS
   @RHF iter  17:  -362.07486538762856   -1.36424e-12   1.20871e-10 DIIS
   @RHF iter  18:  -362.07486538762601    2.55795e-12   4.16629e-11 DIIS
  Energy and wave function converged.

  ==> Post-Iterations <==

    Orbital Energies [Eh]
    ---------------------

    Doubly Occupied:

       1A    -20.540742     2A    -20.505073     3A    -15.588506
       4A    -11.348097     5A    -11.256508     6A    -11.238735
       7A    -11.209606     8A     -1.364904     9A     -1.329961
      10A     -1.216746    11A     -0.995453    12A     -0.992396
      13A     -0.819782    14A     -0.796857    15A     -0.726309
      16A     -0.671850    17A     -0.649335    18A     -0.613551
      19A     -0.603868    20A     -0.565477    21A     -0.558696
      22A     -0.553996    23A     -0.540439    24A     -0.520152
      25A     -0.507918    26A     -0.450914    27A     -0.423548
      28A     -0.408820    29A     -0.402458

    Virtual:

      30A      0.160303    31A      0.183592    32A      0.200024
      33A      0.212475    34A      0.226469    35A      0.238920
      36A      0.257110    37A      0.264087    38A      0.269360
      39A      0.284683    40A      0.289581    41A      0.349350
      42A      0.379891    43A      0.402042    44A      0.412793
      45A      0.482595    46A      0.544102    47A      0.604262
      48A      0.623773    49A      0.641134    50A      0.658637
      51A      0.690752    52A      0.705443    53A      0.731826
      54A      0.743037    55A      0.755262    56A      0.760903
      57A      0.783104    58A      0.824509    59A      0.850806
      60A      0.860629    61A      0.877285    62A      0.879756
      63A      0.890377    64A      0.907986    65A      0.914039
      66A      0.924932    67A      0.932802    68A      0.950752
      69A      0.972304    70A      1.011240    71A      1.021778
      72A      1.071699    73A      1.097705    74A      1.110828
      75A      1.118416    76A      1.168317    77A      1.204022
      78A      1.281144    79A      1.302940    80A      1.344104
      81A      1.353738    82A      1.360303    83A      1.368962
      84A      1.437912    85A      1.444596    86A      1.461941
      87A      1.515871    88A      1.536729    89A      1.594433
      90A      1.620479    91A      1.651287    92A      1.660269
      93A      1.670069    94A      1.680391    95A      1.719378
      96A      1.763436    97A      1.793194    98A      1.833517
      99A      1.841403   100A      1.858462   101A      1.873389
     102A      1.902993   103A      1.916110   104A      1.930301
     105A      1.935992   106A      1.947750   107A      1.956792
     108A      1.986120   109A      2.006763   110A      2.040005
     111A      2.065034   112A      2.088791   113A      2.106003
     114A      2.123248   115A      2.144298   116A      2.219899
     117A      2.232235   118A      2.253108   119A      2.255426
     120A      2.290857   121A      2.356568   122A      2.411611
     123A      2.429852   124A      2.451183   125A      2.466461
     126A      2.487302   127A      2.535753   128A      2.568347
     129A      2.594882   130A      2.597594   131A      2.656954
     132A      2.728955   133A      2.751725   134A      2.772875
     135A      2.782008   136A      2.795177   137A      2.799296
     138A      2.871664   139A      2.888181   140A      2.918692
     141A      2.979044   142A      3.094248   143A      3.133742
     144A      3.267674   145A      3.336478   146A      3.395984
     147A      3.465547   148A      3.498229   149A      3.517691
     150A      3.612433   151A      3.847269   152A      3.909816
     153A      4.083559

    Final Occupation by Irrep:
              A
    DOCC [    29 ]

  @RHF Final Energy:  -362.07486538762601

   => Energetics <=

    Nuclear Repulsion Energy =            302.2170372898597179
    One-Electron Energy =               -1093.7824079933002395
    Two-Electron Energy =                 429.4905053158145165
    Total Energy =                       -362.0748653876260050

Computation Completed

Properties will be evaluated at   0.000000,   0.000000,   0.000000 [a0]

Properties computed using the SCF density matrix

  Nuclear Dipole Moment: [e a0]
     X:     4.6067      Y:    -2.6096      Z:    -0.4882

  Electronic Dipole Moment: [e a0]
     X:    -5.1776      Y:     1.7163      Z:    -1.1926

  Dipole Moment: [e a0]
     X:    -0.5710      Y:    -0.8933      Z:    -1.6808     Total:     1.9872

  Dipole Moment: [D]
     X:    -1.4512      Y:    -2.2705      Z:    -4.2722     Total:     5.0510

*** tstop() called on ds3 at Sun Apr 26 21:58:02 2020
Module time:
	user time   =      24.36 seconds =       0.41 minutes
	system time =      12.00 seconds =       0.20 minutes
	total time  =         36 seconds =       0.60 minutes
Total time:
	user time   =      24.36 seconds =       0.41 minutes
	system time =      12.00 seconds =       0.20 minutes
	total time  =         36 seconds =       0.60 minutes
                                     G D M A

                                 by Anthony Stone

                           version 2.2.06, 22 June 2011

               Distributed Multipoles from Gaussian wavefunctions

Starting at 21:58:2 on 26 Apr 2020

Using SCF density matrix from file ./SSI/SSI-021SER-142ASN-1-dimer.test.8374.fchk

                         Distributed Multipole Analysis

Standard DMA

Positions and radii in angstrom
Multipole moments in atomic units, ea_0^k for rank k

C          x =  1.994481  y = -0.043746  z =  0.427566 angstrom
           Maximum rank =  0   Radius =  0.650 angstrom
                   Q00  =   0.140808

C          x =  3.371481  y =  0.313254  z =  0.993566 angstrom
           Maximum rank =  0   Radius =  0.650 angstrom
                   Q00  =  -0.266373

O          x =  1.362481  y = -1.196746  z =  1.012566 angstrom
           Maximum rank =  0   Radius =  0.650 angstrom
                   Q00  =  -0.646022

H          x =  1.330481  y =  0.813254  z =  0.456566 angstrom
           Maximum rank =  0   Radius =  0.325 angstrom
                   Q00  =   0.097802

H          x =  2.126481  y = -0.240746  z = -0.637434 angstrom
           Maximum rank =  0   Radius =  0.325 angstrom
                   Q00  =   0.019718

H          x =  4.123481  y = -0.083746  z =  0.312566 angstrom
           Maximum rank =  0   Radius =  0.325 angstrom
                   Q00  =   0.074397

H          x =  1.526481  y = -1.940746  z =  0.395566 angstrom
           Maximum rank =  0   Radius =  0.325 angstrom
                   Q00  =   0.386549

H          x =  3.507201  y = -0.096186  z =  2.005466 angstrom
           Maximum rank =  0   Radius =  0.325 angstrom
                   Q00  =   0.099723

H          x =  3.459031  y =  1.409404  z =  0.965348 angstrom
           Maximum rank =  0   Radius =  0.325 angstrom
                   Q00  =   0.087777

C          x = -2.283519  y = -0.872746  z =  0.117566 angstrom
           Maximum rank =  0   Radius =  0.650 angstrom
                   Q00  =  -0.252508

C          x = -1.698519  y =  0.349254  z = -0.603434 angstrom
           Maximum rank =  0   Radius =  0.650 angstrom
                   Q00  =   0.807832

O          x = -1.127519  y =  1.254254  z =  0.007566 angstrom
           Maximum rank =  0   Radius =  0.650 angstrom
                   Q00  =  -0.780473

N          x = -1.807519  y =  0.352254  z = -1.928434 angstrom
           Maximum rank =  0   Radius =  0.650 angstrom
                   Q00  =  -0.524904

H          x = -1.956519  y = -1.739746  z = -0.454434 angstrom
           Maximum rank =  0   Radius =  0.325 angstrom
                   Q00  =   0.089007

H          x = -3.374519  y = -0.840746  z =  0.073566 angstrom
           Maximum rank =  0   Radius =  0.325 angstrom
                   Q00  =   0.107487

H          x = -1.467519  y =  1.171254  z = -2.413434 angstrom
           Maximum rank =  0   Radius =  0.325 angstrom
                   Q00  =   0.214138

H          x = -2.440519  y = -0.277746  z = -2.390434 angstrom
           Maximum rank =  0   Radius =  0.325 angstrom
                   Q00  =   0.201796

H          x = -1.926929  y = -0.957106  z =  1.154737 angstrom
           Maximum rank =  0   Radius =  0.325 angstrom
                   Q00  =   0.143245

Total multipoles referred to origin at
           x =   0.000000,  y =    0.000000,  z =    0.000000 angstrom
                   Q00  =  -0.000000

Finished at 21:58:2 on 26 Apr 2020

  DMA results are available in the Python driver through the
	  variable('DMA DISTRIBUTED MULTIPOLES')
  and
	  variable('DMA TOTAL MULTIPOLES')
  commands.

    Psi4 stopped on: Sunday, 26 April 2020 09:58PM
    Psi4 wall time for execution: 0:00:35.71

*** Psi4 exiting successfully. Buy a developer a beer!
