                               Psi4 1.3.2 release

  ==> Input File <==

--------------------------------------------------------------------------
import numpy as np
set {scf_type pk
basis cc-pvdz
d_convergence 10
gdma_switch   0
gdma_limit    0
gdma_origin   [ 0.0,  0.0,  0.0 ]
}
molecule test {
    units Angstrom
    1 1
    --
    1 1
    C               -1.137405148785154     2.032801635118414     1.407693956692230
    C               -1.240405148785153     3.136801635118414     2.472693956692230
    H               -1.769405148785153     1.192801635118414     1.691693956692230
    H               -1.462405148785153     2.424801635118414     0.442693956692230
    H               -0.105405148785153     1.693801635118414     1.313693956692230
    H               -0.471405148785153     3.878801635118414     2.262693956692230
    H               -1.078445148785153     2.716971635118414     3.476442956692230
    H               -2.222405148785154     3.629581635118414     2.419362956692231
    C                1.500594851214847    -2.697198364881586    -0.245306043307770
    C                0.228594851214847    -0.656198364881586    -0.926306043307770
    N                0.307594851214847    -1.982198364881586    -0.772306043307770
    N               -0.850405148785153    -0.105198364881586    -1.464306043307770
    N                1.204594851214847     0.143801635118414    -0.517306043307770
    H               -0.442405148785153    -2.541198364881585    -1.171306043307770
    H               -1.624405148785153    -0.687198364881586    -1.771306043307770
    H               -0.923405148785153     0.896801635118414    -1.520306043307770
    H                1.974594851214847    -0.232198364881586     0.023693956692230
    H                1.179594851214847     1.128801635118414    -0.722306043307770
    H                2.359594851214847    -2.044198364881586    -0.132306043307770
    H                1.792594851214847    -3.436198364881585    -0.995306043307770
    H                1.321254851214847    -3.241640364881586     0.693533956692230

}
e, wfn = energy('scf', return_wfn=True)
gdma(wfn)
dmavals = variable('DMA DISTRIBUTED MULTIPOLES')
charges = np.array(dmavals)
print(charges)
np.save('SSI-053VAL-057ARG-1-dimer.npy', np.array(charges))--------------------------------------------------------------------------

*** tstart() called on ds3
*** at Sun Apr 26 22:32:01 2020

   => Loading Basis Set <=

    Name: CC-PVDZ
    Role: ORBITAL
    Keyword: BASIS
    atoms 1-2, 9-10  entry C          line   138 file /theoryfs2/ds/metcalf/miniconda2/envs/tf2gpu/share/psi4/basis/cc-pvdz.gbs
    atoms 3-8, 14-21 entry H          line    22 file /theoryfs2/ds/metcalf/miniconda2/envs/tf2gpu/share/psi4/basis/cc-pvdz.gbs
    atoms 11-13      entry N          line   168 file /theoryfs2/ds/metcalf/miniconda2/envs/tf2gpu/share/psi4/basis/cc-pvdz.gbs

         ---------------------------------------------------------
                                   SCF
               by Justin Turney, Rob Parrish, Andy Simmonett
                          and Daniel G. A. Smith
                              RHF Reference
                        1 Threads,    500 MiB Core
         ---------------------------------------------------------

  ==> Geometry <==

    Molecular point group: c1
    Full point group: C1

    Geometry (in Angstrom), charge = 1, multiplicity = 1:

       Center              X                  Y                   Z               Mass
    ------------   -----------------  -----------------  -----------------  -----------------
         C           -1.137405148785     2.032801635118     1.407693956692    12.000000000000
         C           -1.240405148785     3.136801635118     2.472693956692    12.000000000000
         H           -1.769405148785     1.192801635118     1.691693956692     1.007825032230
         H           -1.462405148785     2.424801635118     0.442693956692     1.007825032230
         H           -0.105405148785     1.693801635118     1.313693956692     1.007825032230
         H           -0.471405148785     3.878801635118     2.262693956692     1.007825032230
         H           -1.078445148785     2.716971635118     3.476442956692     1.007825032230
         H           -2.222405148785     3.629581635118     2.419362956692     1.007825032230
         C            1.500594851215    -2.697198364882    -0.245306043308    12.000000000000
         C            0.228594851215    -0.656198364882    -0.926306043308    12.000000000000
         N            0.307594851215    -1.982198364882    -0.772306043308    14.003074004430
         N           -0.850405148785    -0.105198364882    -1.464306043308    14.003074004430
         N            1.204594851215     0.143801635118    -0.517306043308    14.003074004430
         H           -0.442405148785    -2.541198364882    -1.171306043308     1.007825032230
         H           -1.624405148785    -0.687198364882    -1.771306043308     1.007825032230
         H           -0.923405148785     0.896801635118    -1.520306043308     1.007825032230
         H            1.974594851215    -0.232198364882     0.023693956692     1.007825032230
         H            1.179594851215     1.128801635118    -0.722306043308     1.007825032230
         H            2.359594851215    -2.044198364882    -0.132306043308     1.007825032230
         H            1.792594851215    -3.436198364882    -0.995306043308     1.007825032230
         H            1.321254851215    -3.241640364882     0.693533956692     1.007825032230

  Running in c1 symmetry.

  Rotational constants: A =      0.13562  B =      0.02702  C =      0.02513 [cm^-1]
  Rotational constants: A =   4065.70088  B =    809.90546  C =    753.35005 [MHz]
  Nuclear repulsion =  316.516210232447065

  Charge       = 1
  Multiplicity = 1
  Electrons    = 58
  Nalpha       = 29
  Nbeta        = 29

  ==> Algorithm <==

  SCF Algorithm Type is PK.
  DIIS enabled.
  MOM disabled.
  Fractional occupation disabled.
  Guess Type is SAD.
  Energy threshold   = 1.00e-06
  Density threshold  = 1.00e-10
  Integral threshold = 0.00e+00

  ==> Primary Basis <==

  Basis Set: CC-PVDZ
    Blend: CC-PVDZ
    Number of shells: 84
    Number of basis function: 168
    Number of Cartesian functions: 175
    Spherical Harmonics?: true
    Max angular momentum: 2

  ==> Pre-Iterations <==

   -------------------------------------------------------
    Irrep   Nso     Nmo     Nalpha   Nbeta   Ndocc  Nsocc
   -------------------------------------------------------
     A        168     168       0       0       0       0
   -------------------------------------------------------
    Total     168     168      29      29      29       0
   -------------------------------------------------------

  ==> Integral Setup <==

  Using integral reordering PK algorithm.
  Sizing the integral batches needed.
  Building batch lookup table.
   Calculation information:
      Number of atoms:                  21
      Number of AO shells:              84
      Number of primitives:            224
      Number of atomic orbitals:       175
      Number of basis functions:       168

      Integral cutoff                 1.00e-12
      Number of threads:                 1

	Batch   1 pq = [       0,    9405] index = [             0,44231715] size =     44231715
	Batch   2 pq = [    9405,   13301] index = [      44231715,88464951] size =     44233236
	Batch   3 pq = [   13301,   14196] index = [      88464951,100770306] size =     12305355
  Task number: 10
  Buffer size: 11059200
  Buffer per thread: 2
  We computed 5365003 shell quartets total.
  Whereas there are 6374235 unique shell quartets.

  ==> DiskJK: Disk-Based J/K Matrices <==

    J tasked:                  Yes
    K tasked:                  Yes
    wK tasked:                  No
    Memory [MiB]:              375
    Schwarz Cutoff:          1E-12

    OpenMP threads:              1

  Minimum eigenvalue in the overlap matrix is 3.7275157197E-03.
  Using Symmetric Orthogonalization.

  SCF Guess: Superposition of Atomic Densities via on-the-fly atomic UHF.

  ==> Iterations <==

                        Total Energy        Delta E     RMS |[F,P]|

   @RHF iter SAD:  -322.01742172409206   -3.22017e+02   0.00000e+00
   @RHF iter   1:  -322.61348881038117   -5.96067e-01   3.40994e-03 DIIS
   @RHF iter   2:  -322.78467413580626   -1.71185e-01   1.34479e-03 DIIS
   @RHF iter   3:  -322.80999395513777   -2.53198e-02   3.21554e-04 DIIS
   @RHF iter   4:  -322.81241091804492   -2.41696e-03   5.17561e-05 DIIS
   @RHF iter   5:  -322.81247611097359   -6.51929e-05   2.09762e-05 DIIS
   @RHF iter   6:  -322.81248529143505   -9.18046e-06   4.19179e-06 DIIS
   @RHF iter   7:  -322.81248591858127   -6.27146e-07   1.32405e-06 DIIS
   @RHF iter   8:  -322.81248595993435   -4.13531e-08   4.18710e-07 DIIS
   @RHF iter   9:  -322.81248596389077   -3.95642e-09   9.52587e-08 DIIS
   @RHF iter  10:  -322.81248596412360   -2.32831e-10   3.05202e-08 DIIS
   @RHF iter  11:  -322.81248596414332   -1.97247e-11   5.88493e-09 DIIS
   @RHF iter  12:  -322.81248596414571   -2.38742e-12   1.88532e-09 DIIS
   @RHF iter  13:  -322.81248596414571    0.00000e+00   6.85042e-10 DIIS
   @RHF iter  14:  -322.81248596414463    1.08002e-12   2.42359e-10 DIIS
   @RHF iter  15:  -322.81248596414576   -1.13687e-12   5.49014e-11 DIIS
  Energy and wave function converged.

  ==> Post-Iterations <==

    Orbital Energies [Eh]
    ---------------------

    Doubly Occupied:

       1A    -15.791135     2A    -15.787608     3A    -15.787232
       4A    -11.593041     5A    -11.445015     6A    -11.335160
       7A    -11.318012     8A     -1.539196     9A     -1.397701
      10A     -1.386849    11A     -1.139695    12A     -1.125088
      13A     -1.037506    14A     -0.975298    15A     -0.946020
      16A     -0.938379    17A     -0.858318    18A     -0.855244
      19A     -0.817463    20A     -0.793110    21A     -0.741280
      22A     -0.727598    23A     -0.707415    24A     -0.706237
      25A     -0.617092    26A     -0.606585    27A     -0.594164
      28A     -0.590758    29A     -0.584151

    Virtual:

      30A     -0.008970    31A      0.019080    32A      0.026084
      33A      0.033157    34A      0.062269    35A      0.080357
      36A      0.091230    37A      0.108146    38A      0.122755
      39A      0.138101    40A      0.146414    41A      0.164467
      42A      0.170125    43A      0.186924    44A      0.197343
      45A      0.209560    46A      0.264261    47A      0.280818
      48A      0.326537    49A      0.344767    50A      0.426293
      51A      0.432469    52A      0.479551    53A      0.487878
      54A      0.495425    55A      0.511028    56A      0.534928
      57A      0.539504    58A      0.549477    59A      0.560655
      60A      0.584321    61A      0.589079    62A      0.631495
      63A      0.654662    64A      0.682396    65A      0.695901
      66A      0.703873    67A      0.730435    68A      0.739975
      69A      0.753484    70A      0.776577    71A      0.788265
      72A      0.794702    73A      0.797962    74A      0.806819
      75A      0.808071    76A      0.846928    77A      0.854552
      78A      0.866015    79A      0.872894    80A      0.901273
      81A      0.929813    82A      0.961506    83A      1.003812
      84A      1.019625    85A      1.024925    86A      1.068780
      87A      1.114687    88A      1.122105    89A      1.138209
      90A      1.157968    91A      1.188918    92A      1.216001
      93A      1.231921    94A      1.290433    95A      1.357340
      96A      1.375416    97A      1.378741    98A      1.459501
      99A      1.484574   100A      1.503584   101A      1.518853
     102A      1.523441   103A      1.554314   104A      1.568656
     105A      1.590129   106A      1.608268   107A      1.666609
     108A      1.684698   109A      1.699766   110A      1.722422
     111A      1.727311   112A      1.748190   113A      1.763225
     114A      1.768521   115A      1.781174   116A      1.789603
     117A      1.801914   118A      1.812096   119A      1.831279
     120A      1.837729   121A      1.840163   122A      1.857181
     123A      1.877046   124A      1.905622   125A      1.912958
     126A      1.957625   127A      1.997817   128A      2.008756
     129A      2.018387   130A      2.027810   131A      2.114645
     132A      2.144498   133A      2.158902   134A      2.185464
     135A      2.213326   136A      2.249769   137A      2.270437
     138A      2.290473   139A      2.317108   140A      2.328982
     141A      2.345170   142A      2.353612   143A      2.373917
     144A      2.416014   145A      2.440911   146A      2.457498
     147A      2.474539   148A      2.519347   149A      2.578362
     150A      2.580276   151A      2.626963   152A      2.661997
     153A      2.673490   154A      2.719930   155A      2.725612
     156A      2.732157   157A      2.744766   158A      2.756163
     159A      2.806810   160A      2.832119   161A      2.842959
     162A      2.847452   163A      2.891966   164A      3.041993
     165A      3.088408   166A      3.112248   167A      3.533962
     168A      3.631138

    Final Occupation by Irrep:
              A
    DOCC [    29 ]

  @RHF Final Energy:  -322.81248596414576

   => Energetics <=

    Nuclear Repulsion Energy =            316.5162102324470652
    One-Electron Energy =               -1053.1726908545915649
    Two-Electron Energy =                 413.8439946579987350
    Total Energy =                       -322.8124859641457647

Computation Completed

Properties will be evaluated at   0.000000,   0.000000,   0.000000 [a0]

Properties computed using the SCF density matrix

  Nuclear Dipole Moment: [e a0]
     X:    -1.3819      Y:     5.0490      Z:     5.6431

  Electronic Dipole Moment: [e a0]
     X:     1.9587      Y:    -6.4473      Z:    -7.1269

  Dipole Moment: [e a0]
     X:     0.5768      Y:    -1.3984      Z:    -1.4838     Total:     2.1189

  Dipole Moment: [D]
     X:     1.4661      Y:    -3.5543      Z:    -3.7715     Total:     5.3857

*** tstop() called on ds3 at Sun Apr 26 22:33:05 2020
Module time:
	user time   =      32.97 seconds =       0.55 minutes
	system time =      13.25 seconds =       0.22 minutes
	total time  =         64 seconds =       1.07 minutes
Total time:
	user time   =      32.97 seconds =       0.55 minutes
	system time =      13.25 seconds =       0.22 minutes
	total time  =         64 seconds =       1.07 minutes
                                     G D M A

                                 by Anthony Stone

                           version 2.2.06, 22 June 2011

               Distributed Multipoles from Gaussian wavefunctions

Starting at 22:33:5 on 26 Apr 2020

Using SCF density matrix from file ./SSI/SSI-053VAL-057ARG-1-dimer.test.12552.fchk

                         Distributed Multipole Analysis

Standard DMA

Positions and radii in angstrom
Multipole moments in atomic units, ea_0^k for rank k

C          x = -1.137405  y =  2.032802  z =  1.407694 angstrom
           Maximum rank =  0   Radius =  0.650 angstrom
                   Q00  =  -0.282426

C          x = -1.240405  y =  3.136802  z =  2.472694 angstrom
           Maximum rank =  0   Radius =  0.650 angstrom
                   Q00  =  -0.212644

H          x = -1.769405  y =  1.192802  z =  1.691694 angstrom
           Maximum rank =  0   Radius =  0.325 angstrom
                   Q00  =   0.091429

H          x = -1.462405  y =  2.424802  z =  0.442694 angstrom
           Maximum rank =  0   Radius =  0.325 angstrom
                   Q00  =   0.063239

H          x = -0.105405  y =  1.693802  z =  1.313694 angstrom
           Maximum rank =  0   Radius =  0.325 angstrom
                   Q00  =   0.055136

H          x = -0.471405  y =  3.878802  z =  2.262694 angstrom
           Maximum rank =  0   Radius =  0.325 angstrom
                   Q00  =   0.085524

H          x = -1.078445  y =  2.716972  z =  3.476443 angstrom
           Maximum rank =  0   Radius =  0.325 angstrom
                   Q00  =   0.095553

H          x = -2.222405  y =  3.629582  z =  2.419363 angstrom
           Maximum rank =  0   Radius =  0.325 angstrom
                   Q00  =   0.098462

C          x =  1.500595  y = -2.697198  z = -0.245306 angstrom
           Maximum rank =  0   Radius =  0.650 angstrom
                   Q00  =  -0.123133

C          x =  0.228595  y = -0.656198  z = -0.926306 angstrom
           Maximum rank =  0   Radius =  0.650 angstrom
                   Q00  =   1.076160

N          x =  0.307595  y = -1.982198  z = -0.772306 angstrom
           Maximum rank =  0   Radius =  0.650 angstrom
                   Q00  =  -0.510291

N          x = -0.850405  y = -0.105198  z = -1.464306 angstrom
           Maximum rank =  0   Radius =  0.650 angstrom
                   Q00  =  -0.588594

N          x =  1.204595  y =  0.143802  z = -0.517306 angstrom
           Maximum rank =  0   Radius =  0.650 angstrom
                   Q00  =  -0.580727

H          x = -0.442405  y = -2.541198  z = -1.171306 angstrom
           Maximum rank =  0   Radius =  0.325 angstrom
                   Q00  =   0.240971

H          x = -1.624405  y = -0.687198  z = -1.771306 angstrom
           Maximum rank =  0   Radius =  0.325 angstrom
                   Q00  =   0.269306

H          x = -0.923405  y =  0.896802  z = -1.520306 angstrom
           Maximum rank =  0   Radius =  0.325 angstrom
                   Q00  =   0.270484

H          x =  1.974595  y = -0.232198  z =  0.023694 angstrom
           Maximum rank =  0   Radius =  0.325 angstrom
                   Q00  =   0.270466

H          x =  1.179595  y =  1.128802  z = -0.722306 angstrom
           Maximum rank =  0   Radius =  0.325 angstrom
                   Q00  =   0.271089

H          x =  2.359595  y = -2.044198  z = -0.132306 angstrom
           Maximum rank =  0   Radius =  0.325 angstrom
                   Q00  =   0.117012

H          x =  1.792595  y = -3.436198  z = -0.995306 angstrom
           Maximum rank =  0   Radius =  0.325 angstrom
                   Q00  =   0.144697

H          x =  1.321255  y = -3.241640  z =  0.693534 angstrom
           Maximum rank =  0   Radius =  0.325 angstrom
                   Q00  =   0.148285

Total multipoles referred to origin at
           x =   0.000000,  y =    0.000000,  z =    0.000000 angstrom
                   Q00  =   1.000000

Finished at 22:33:5 on 26 Apr 2020

  DMA results are available in the Python driver through the
	  variable('DMA DISTRIBUTED MULTIPOLES')
  and
	  variable('DMA TOTAL MULTIPOLES')
  commands.

    Psi4 stopped on: Sunday, 26 April 2020 10:33PM
    Psi4 wall time for execution: 0:01:04.00

*** Psi4 exiting successfully. Buy a developer a beer!
