                               Psi4 1.3.2 release

  ==> Input File <==

--------------------------------------------------------------------------
import numpy as np
set {scf_type pk
basis cc-pvdz
d_convergence 10
gdma_switch   0
gdma_limit    0
gdma_origin   [ 0.0,  0.0,  0.0 ]
}
molecule test {
    units Angstrom
    1 1
    --
    1 1
    C                0.521745413207275    -1.163224124636817    -0.911254008339964
    C                1.694745413207275    -0.152224124636817    -0.945254008339964
    N                0.613745413207275    -2.061224124636817     0.336745991660036
    H               -0.418254586792725    -0.601224124636817    -0.883254008339964
    H                0.526745413207275    -1.766224124636817    -1.828254008339964
    H                2.627745413207275    -0.680224124636817    -1.137254008339964
    H                1.775745413207275     0.327775875363183     0.032745991660036
    H                0.924745413207275    -1.520224124636817     1.143745991660036
    H               -0.302254586792725    -2.459224124636817     0.567745991660036
    H                1.295745413207275    -2.811224124636817     0.208745991660036
    H                1.547275413207275     0.635210875363183    -1.699044008339964
    C               -1.420254586792725     2.066775875363183    -0.041254008339964
    C               -1.461254586792725     1.505775875363183     1.446745991660036
    H               -2.232254586792726     2.783775875363183    -0.180254008339964
    H               -0.467254586792725     2.570775875363183    -0.202254008339964
    H               -1.544254586792725     1.249775875363183    -0.750254008339964
    H               -0.674254586792725     0.757775875363183     1.512745991660036
    H               -2.416064586792726     1.015800875363183     1.688145991660036
    H               -1.252744586792725     2.261878875363183     2.217995991660036

}
e, wfn = energy('scf', return_wfn=True)
gdma(wfn)
dmavals = variable('DMA DISTRIBUTED MULTIPOLES')
charges = np.array(dmavals)
print(charges)
np.save('SSI-032LYS-091LEU-1-dimer.npy', np.array(charges))--------------------------------------------------------------------------

*** tstart() called on ds3
*** at Tue Apr 28 11:46:28 2020

   => Loading Basis Set <=

    Name: CC-PVDZ
    Role: ORBITAL
    Keyword: BASIS
    atoms 1-2, 12-13  entry C          line   138 file /theoryfs2/ds/metcalf/miniconda2/envs/tf2gpu/share/psi4/basis/cc-pvdz.gbs
    atoms 3           entry N          line   168 file /theoryfs2/ds/metcalf/miniconda2/envs/tf2gpu/share/psi4/basis/cc-pvdz.gbs
    atoms 4-11, 14-19 entry H          line    22 file /theoryfs2/ds/metcalf/miniconda2/envs/tf2gpu/share/psi4/basis/cc-pvdz.gbs

         ---------------------------------------------------------
                                   SCF
               by Justin Turney, Rob Parrish, Andy Simmonett
                          and Daniel G. A. Smith
                              RHF Reference
                        1 Threads,    500 MiB Core
         ---------------------------------------------------------

  ==> Geometry <==

    Molecular point group: c1
    Full point group: C1

    Geometry (in Angstrom), charge = 1, multiplicity = 1:

       Center              X                  Y                   Z               Mass
    ------------   -----------------  -----------------  -----------------  -----------------
         C            0.521745413207    -1.163224124637    -0.911254008340    12.000000000000
         C            1.694745413207    -0.152224124637    -0.945254008340    12.000000000000
         N            0.613745413207    -2.061224124637     0.336745991660    14.003074004430
         H           -0.418254586793    -0.601224124637    -0.883254008340     1.007825032230
         H            0.526745413207    -1.766224124637    -1.828254008340     1.007825032230
         H            2.627745413207    -0.680224124637    -1.137254008340     1.007825032230
         H            1.775745413207     0.327775875363     0.032745991660     1.007825032230
         H            0.924745413207    -1.520224124637     1.143745991660     1.007825032230
         H           -0.302254586793    -2.459224124637     0.567745991660     1.007825032230
         H            1.295745413207    -2.811224124637     0.208745991660     1.007825032230
         H            1.547275413207     0.635210875363    -1.699044008340     1.007825032230
         C           -1.420254586793     2.066775875363    -0.041254008340    12.000000000000
         C           -1.461254586793     1.505775875363     1.446745991660    12.000000000000
         H           -2.232254586793     2.783775875363    -0.180254008340     1.007825032230
         H           -0.467254586793     2.570775875363    -0.202254008340     1.007825032230
         H           -1.544254586793     1.249775875363    -0.750254008340     1.007825032230
         H           -0.674254586793     0.757775875363     1.512745991660     1.007825032230
         H           -2.416064586793     1.015800875363     1.688145991660     1.007825032230
         H           -1.252744586793     2.261878875363     2.217995991660     1.007825032230

  Running in c1 symmetry.

  Rotational constants: A =      0.17652  B =      0.05315  C =      0.04577 [cm^-1]
  Rotational constants: A =   5291.96997  B =   1593.50173  C =   1372.18313 [MHz]
  Nuclear repulsion =  191.743758132052761

  Charge       = 1
  Multiplicity = 1
  Electrons    = 44
  Nalpha       = 22
  Nbeta        = 22

  ==> Algorithm <==

  SCF Algorithm Type is PK.
  DIIS enabled.
  MOM disabled.
  Fractional occupation disabled.
  Guess Type is SAD.
  Energy threshold   = 1.00e-06
  Density threshold  = 1.00e-10
  Integral threshold = 0.00e+00

  ==> Primary Basis <==

  Basis Set: CC-PVDZ
    Blend: CC-PVDZ
    Number of shells: 72
    Number of basis function: 140
    Number of Cartesian functions: 145
    Spherical Harmonics?: true
    Max angular momentum: 2

  ==> Pre-Iterations <==

   -------------------------------------------------------
    Irrep   Nso     Nmo     Nalpha   Nbeta   Ndocc  Nsocc
   -------------------------------------------------------
     A        140     140       0       0       0       0
   -------------------------------------------------------
    Total     140     140      22      22      22       0
   -------------------------------------------------------

  ==> Integral Setup <==

  Using integral reordering PK algorithm.
  Sizing the integral batches needed.
  Building batch lookup table.
   Calculation information:
      Number of atoms:                  19
      Number of AO shells:              72
      Number of primitives:            180
      Number of atomic orbitals:       145
      Number of basis functions:       140

      Integral cutoff                 1.00e-12
      Number of threads:                 1

	Batch   1 pq = [       0,    9405] index = [             0,44231715] size =     44231715
	Batch   2 pq = [    9405,    9870] index = [      44231715,48713385] size =      4481670
  Task number: 5
  Buffer size: 11059200
  Buffer per thread: 2
  We computed 3166450 shell quartets total.
  Whereas there are 3454506 unique shell quartets.

  ==> DiskJK: Disk-Based J/K Matrices <==

    J tasked:                  Yes
    K tasked:                  Yes
    wK tasked:                  No
    Memory [MiB]:              375
    Schwarz Cutoff:          1E-12

    OpenMP threads:              1

  Minimum eigenvalue in the overlap matrix is 5.9951694437E-03.
  Using Symmetric Orthogonalization.

  SCF Guess: Superposition of Atomic Densities via on-the-fly atomic UHF.

  ==> Iterations <==

                        Total Energy        Delta E     RMS |[F,P]|

   @RHF iter SAD:  -212.94207904877584   -2.12942e+02   0.00000e+00
   @RHF iter   1:  -213.69337668911734   -7.51298e-01   3.44446e-03 DIIS
   @RHF iter   2:  -213.83832043890595   -1.44944e-01   1.27525e-03 DIIS
   @RHF iter   3:  -213.85662192444198   -1.83015e-02   3.35988e-04 DIIS
   @RHF iter   4:  -213.85869858593887   -2.07666e-03   4.80706e-05 DIIS
   @RHF iter   5:  -213.85874601723665   -4.74313e-05   1.39053e-05 DIIS
   @RHF iter   6:  -213.85874935021866   -3.33298e-06   4.37669e-06 DIIS
   @RHF iter   7:  -213.85874963026066   -2.80042e-07   1.11601e-06 DIIS
   @RHF iter   8:  -213.85874966050005   -3.02394e-08   2.82873e-07 DIIS
   @RHF iter   9:  -213.85874966214675   -1.64670e-09   7.35754e-08 DIIS
   @RHF iter  10:  -213.85874966224378   -9.70317e-11   1.50389e-08 DIIS
   @RHF iter  11:  -213.85874966224725   -3.46745e-12   3.07248e-09 DIIS
   @RHF iter  12:  -213.85874966224785   -5.96856e-13   7.40481e-10 DIIS
   @RHF iter  13:  -213.85874966224776    8.52651e-14   1.81923e-10 DIIS
   @RHF iter  14:  -213.85874966224787   -1.13687e-13   5.73970e-11 DIIS
  Energy and wave function converged.

  ==> Post-Iterations <==

    Orbital Energies [Eh]
    ---------------------

    Doubly Occupied:

       1A    -15.905861     2A    -11.489262     3A    -11.409631
       4A    -11.345795     5A    -11.341429     6A     -1.509468
       7A     -1.214548     8A     -1.124753     9A     -1.054468
      10A     -0.972278    11A     -0.963598    12A     -0.959553
      13A     -0.852913    14A     -0.799352    15A     -0.723121
      16A     -0.712907    17A     -0.711235    18A     -0.700434
      19A     -0.688391    20A     -0.616647    21A     -0.611632
      22A     -0.603092

    Virtual:

      23A     -0.052291    24A      0.013087    25A      0.015296
      26A      0.027636    27A      0.073978    28A      0.084670
      29A      0.093254    30A      0.113813    31A      0.119793
      32A      0.142287    33A      0.144493    34A      0.158303
      35A      0.175381    36A      0.183031    37A      0.193221
      38A      0.238728    39A      0.270474    40A      0.380849
      41A      0.405480    42A      0.414870    43A      0.427406
      44A      0.456721    45A      0.478565    46A      0.499403
      47A      0.529015    48A      0.572043    49A      0.586446
      50A      0.608517    51A      0.625037    52A      0.636907
      53A      0.647302    54A      0.682347    55A      0.699992
      56A      0.717981    57A      0.725047    58A      0.742389
      59A      0.761139    60A      0.763057    61A      0.779148
      62A      0.788495    63A      0.796980    64A      0.821123
      65A      0.835494    66A      0.852146    67A      0.863332
      68A      0.878961    69A      0.924511    70A      0.930668
      71A      0.996678    72A      1.007682    73A      1.055985
      74A      1.139617    75A      1.187432    76A      1.256566
      77A      1.281823    78A      1.321574    79A      1.339081
      80A      1.384524    81A      1.430848    82A      1.447137
      83A      1.473230    84A      1.515728    85A      1.568856
      86A      1.575364    87A      1.601029    88A      1.636124
      89A      1.673819    90A      1.686437    91A      1.715470
      92A      1.731852    93A      1.738754    94A      1.754043
      95A      1.763462    96A      1.782500    97A      1.793221
      98A      1.802823    99A      1.807762   100A      1.811296
     101A      1.826237   102A      1.841367   103A      1.859071
     104A      1.876901   105A      1.907630   106A      1.924560
     107A      1.954831   108A      1.969043   109A      1.992974
     110A      2.008304   111A      2.025091   112A      2.117373
     113A      2.146605   114A      2.157690   115A      2.169858
     116A      2.194930   117A      2.260459   118A      2.299844
     119A      2.318172   120A      2.337425   121A      2.368359
     122A      2.402377   123A      2.421431   124A      2.454159
     125A      2.503463   126A      2.556805   127A      2.597068
     128A      2.620369   129A      2.645125   130A      2.664861
     131A      2.678268   132A      2.698200   133A      2.730507
     134A      2.736204   135A      2.767553   136A      2.812398
     137A      2.827288   138A      2.842017   139A      3.067712
     140A      3.088582

    Final Occupation by Irrep:
              A
    DOCC [    22 ]

  @RHF Final Energy:  -213.85874966224787

   => Energetics <=

    Nuclear Repulsion Energy =            191.7437581320527613
    One-Electron Energy =                -658.5842723234854930
    Two-Electron Energy =                 252.9817645291848294
    Total Energy =                       -213.8587496622478739

Computation Completed

Properties will be evaluated at   0.000000,   0.000000,   0.000000 [a0]

Properties computed using the SCF density matrix

  Nuclear Dipole Moment: [e a0]
     X:    -0.5730      Y:     1.6601      Z:     0.6471

  Electronic Dipole Moment: [e a0]
     X:     1.7054      Y:    -4.7007      Z:    -0.4830

  Dipole Moment: [e a0]
     X:     1.1323      Y:    -3.0407      Z:     0.1641     Total:     3.2488

  Dipole Moment: [D]
     X:     2.8781      Y:    -7.7286      Z:     0.4172     Total:     8.2576

*** tstop() called on ds3 at Tue Apr 28 11:46:52 2020
Module time:
	user time   =      18.07 seconds =       0.30 minutes
	system time =       6.76 seconds =       0.11 minutes
	total time  =         24 seconds =       0.40 minutes
Total time:
	user time   =      18.07 seconds =       0.30 minutes
	system time =       6.76 seconds =       0.11 minutes
	total time  =         24 seconds =       0.40 minutes
                                     G D M A

                                 by Anthony Stone

                           version 2.2.06, 22 June 2011

               Distributed Multipoles from Gaussian wavefunctions

Starting at 11:46:52 on 28 Apr 2020

Using SCF density matrix from file ./SSI/SSI-032LYS-091LEU-1-dimer.test.917.fchk

                         Distributed Multipole Analysis

Standard DMA

Positions and radii in angstrom
Multipole moments in atomic units, ea_0^k for rank k

C          x =  0.521745  y = -1.163224  z = -0.911254 angstrom
           Maximum rank =  0   Radius =  0.650 angstrom
                   Q00  =  -0.031741

C          x =  1.694745  y = -0.152224  z = -0.945254 angstrom
           Maximum rank =  0   Radius =  0.650 angstrom
                   Q00  =  -0.236289

N          x =  0.613745  y = -2.061224  z =  0.336746 angstrom
           Maximum rank =  0   Radius =  0.650 angstrom
                   Q00  =  -0.181533

H          x = -0.418255  y = -0.601224  z = -0.883254 angstrom
           Maximum rank =  0   Radius =  0.325 angstrom
                   Q00  =   0.141576

H          x =  0.526745  y = -1.766224  z = -1.828254 angstrom
           Maximum rank =  0   Radius =  0.325 angstrom
                   Q00  =   0.139704

H          x =  2.627745  y = -0.680224  z = -1.137254 angstrom
           Maximum rank =  0   Radius =  0.325 angstrom
                   Q00  =   0.113409

H          x =  1.775745  y =  0.327776  z =  0.032746 angstrom
           Maximum rank =  0   Radius =  0.325 angstrom
                   Q00  =   0.099606

H          x =  0.924745  y = -1.520224  z =  1.143746 angstrom
           Maximum rank =  0   Radius =  0.325 angstrom
                   Q00  =   0.262312

H          x = -0.302255  y = -2.459224  z =  0.567746 angstrom
           Maximum rank =  0   Radius =  0.325 angstrom
                   Q00  =   0.269755

H          x =  1.295745  y = -2.811224  z =  0.208746 angstrom
           Maximum rank =  0   Radius =  0.325 angstrom
                   Q00  =   0.264921

H          x =  1.547275  y =  0.635211  z = -1.699044 angstrom
           Maximum rank =  0   Radius =  0.325 angstrom
                   Q00  =   0.158275

C          x = -1.420255  y =  2.066776  z = -0.041254 angstrom
           Maximum rank =  0   Radius =  0.650 angstrom
                   Q00  =  -0.258344

C          x = -1.461255  y =  1.505776  z =  1.446746 angstrom
           Maximum rank =  0   Radius =  0.650 angstrom
                   Q00  =  -0.246968

H          x = -2.232255  y =  2.783776  z = -0.180254 angstrom
           Maximum rank =  0   Radius =  0.325 angstrom
                   Q00  =   0.122108

H          x = -0.467255  y =  2.570776  z = -0.202254 angstrom
           Maximum rank =  0   Radius =  0.325 angstrom
                   Q00  =   0.091880

H          x = -1.544255  y =  1.249776  z = -0.750254 angstrom
           Maximum rank =  0   Radius =  0.325 angstrom
                   Q00  =   0.062370

H          x = -0.674255  y =  0.757776  z =  1.512746 angstrom
           Maximum rank =  0   Radius =  0.325 angstrom
                   Q00  =   0.008306

H          x = -2.416065  y =  1.015801  z =  1.688146 angstrom
           Maximum rank =  0   Radius =  0.325 angstrom
                   Q00  =   0.099592

H          x = -1.252745  y =  2.261879  z =  2.217996 angstrom
           Maximum rank =  0   Radius =  0.325 angstrom
                   Q00  =   0.121063

Total multipoles referred to origin at
           x =   0.000000,  y =    0.000000,  z =    0.000000 angstrom
                   Q00  =   1.000000

Finished at 11:46:52 on 28 Apr 2020

  DMA results are available in the Python driver through the
	  variable('DMA DISTRIBUTED MULTIPOLES')
  and
	  variable('DMA TOTAL MULTIPOLES')
  commands.

    Psi4 stopped on: Tuesday, 28 April 2020 11:46AM
    Psi4 wall time for execution: 0:00:24.14

*** Psi4 exiting successfully. Buy a developer a beer!
