                               Psi4 1.3.2 release

  ==> Input File <==

--------------------------------------------------------------------------
import numpy as np
set {scf_type pk
basis cc-pvdz
d_convergence 10
gdma_switch   0
gdma_limit    0
gdma_origin   [ 0.0,  0.0,  0.0 ]
}
molecule test {
    units Angstrom
    0 1
    --
    0 1
    C                2.494411637119081     1.718326696661195     1.502885527937465
    C               -0.383588362880918    -1.262673303338805     0.288885527937465
    C                0.948411637119082    -1.371673303338805    -0.126114472062535
    C               -0.784588362880918    -0.194673303338805     1.073885527937465
    C                1.887411637119082    -0.415673303338805     0.279885527937465
    C                0.163411637119082     0.766326696661195     1.471885527937465
    C                1.504411637119082     0.641326696661195     1.108885527937465
    O               -1.326588362880918    -2.165673303338806    -0.122114472062535
    H                1.252411637119082    -2.189673303338806    -0.763114472062535
    H               -1.015588362880918    -2.674673303338805    -0.900114472062535
    H               -1.817588362880918    -0.104673303338805     1.373885527937465
    H                2.915411637119082    -0.506673303338805    -0.042114472062535
    H               -0.151588362880918     1.605326696661195     2.070885527937465
    H                3.388411637119082     1.238326696661195     1.898885527937465
    H                2.073411637119082     2.338326696661194     2.294885527937465
    H                2.787561637119082     2.357666696661195     0.657125527937465
    C               -1.968588362880918     0.443326696661195    -2.710114472062535
    C               -1.910588362880918     1.821326696661195    -2.079114472062535
    H               -1.058588362880918     0.245326696661195    -3.271114472062535
    H               -2.051588362880918    -0.311673303338805    -1.934114472062535
    H               -2.832588362880919     0.371326696661195    -3.365114472062535
    H               -0.949588362880918     1.914326696661195    -1.595114472062535
    H               -2.033958362880918     2.603146696661195    -2.843004472062535
    H               -2.678918362880919     1.933056696661195    -1.299894472062535

}
e, wfn = energy('scf', return_wfn=True)
gdma(wfn)
dmavals = variable('DMA DISTRIBUTED MULTIPOLES')
charges = np.array(dmavals)
print(charges)
np.save('SSI-121TYR-125LEU-2-dimer.npy', np.array(charges))--------------------------------------------------------------------------

*** tstart() called on ds3
*** at Tue Apr 28 20:38:12 2020

   => Loading Basis Set <=

    Name: CC-PVDZ
    Role: ORBITAL
    Keyword: BASIS
    atoms 1-7, 17-18  entry C          line   138 file /theoryfs2/ds/metcalf/miniconda2/envs/tf2gpu/share/psi4/basis/cc-pvdz.gbs
    atoms 8           entry O          line   198 file /theoryfs2/ds/metcalf/miniconda2/envs/tf2gpu/share/psi4/basis/cc-pvdz.gbs
    atoms 9-16, 19-24 entry H          line    22 file /theoryfs2/ds/metcalf/miniconda2/envs/tf2gpu/share/psi4/basis/cc-pvdz.gbs

         ---------------------------------------------------------
                                   SCF
               by Justin Turney, Rob Parrish, Andy Simmonett
                          and Daniel G. A. Smith
                              RHF Reference
                        1 Threads,    500 MiB Core
         ---------------------------------------------------------

  ==> Geometry <==

    Molecular point group: c1
    Full point group: C1

    Geometry (in Angstrom), charge = 0, multiplicity = 1:

       Center              X                  Y                   Z               Mass
    ------------   -----------------  -----------------  -----------------  -----------------
         C            2.494411637119     1.718326696661     1.502885527937    12.000000000000
         C           -0.383588362881    -1.262673303339     0.288885527937    12.000000000000
         C            0.948411637119    -1.371673303339    -0.126114472063    12.000000000000
         C           -0.784588362881    -0.194673303339     1.073885527937    12.000000000000
         C            1.887411637119    -0.415673303339     0.279885527937    12.000000000000
         C            0.163411637119     0.766326696661     1.471885527937    12.000000000000
         C            1.504411637119     0.641326696661     1.108885527937    12.000000000000
         O           -1.326588362881    -2.165673303339    -0.122114472063    15.994914619570
         H            1.252411637119    -2.189673303339    -0.763114472063     1.007825032230
         H           -1.015588362881    -2.674673303339    -0.900114472063     1.007825032230
         H           -1.817588362881    -0.104673303339     1.373885527937     1.007825032230
         H            2.915411637119    -0.506673303339    -0.042114472063     1.007825032230
         H           -0.151588362881     1.605326696661     2.070885527937     1.007825032230
         H            3.388411637119     1.238326696661     1.898885527937     1.007825032230
         H            2.073411637119     2.338326696661     2.294885527937     1.007825032230
         H            2.787561637119     2.357666696661     0.657125527937     1.007825032230
         C           -1.968588362881     0.443326696661    -2.710114472063    12.000000000000
         C           -1.910588362881     1.821326696661    -2.079114472063    12.000000000000
         H           -1.058588362881     0.245326696661    -3.271114472063     1.007825032230
         H           -2.051588362881    -0.311673303339    -1.934114472063     1.007825032230
         H           -2.832588362881     0.371326696661    -3.365114472063     1.007825032230
         H           -0.949588362881     1.914326696661    -1.595114472063     1.007825032230
         H           -2.033958362881     2.603146696661    -2.843004472063     1.007825032230
         H           -2.678918362881     1.933056696661    -1.299894472063     1.007825032230

  Running in c1 symmetry.

  Rotational constants: A =      0.04883  B =      0.02706  C =      0.02141 [cm^-1]
  Rotational constants: A =   1463.76415  B =    811.24464  C =    641.87116 [MHz]
  Nuclear repulsion =  504.895069078775521

  Charge       = 0
  Multiplicity = 1
  Electrons    = 76
  Nalpha       = 38
  Nbeta        = 38

  ==> Algorithm <==

  SCF Algorithm Type is PK.
  DIIS enabled.
  MOM disabled.
  Fractional occupation disabled.
  Guess Type is SAD.
  Energy threshold   = 1.00e-06
  Density threshold  = 1.00e-10
  Integral threshold = 0.00e+00

  ==> Primary Basis <==

  Basis Set: CC-PVDZ
    Blend: CC-PVDZ
    Number of shells: 102
    Number of basis function: 210
    Number of Cartesian functions: 220
    Spherical Harmonics?: true
    Max angular momentum: 2

  ==> Pre-Iterations <==

   -------------------------------------------------------
    Irrep   Nso     Nmo     Nalpha   Nbeta   Ndocc  Nsocc
   -------------------------------------------------------
     A        210     210       0       0       0       0
   -------------------------------------------------------
    Total     210     210      38      38      38       0
   -------------------------------------------------------

  ==> Integral Setup <==

  Using integral reordering PK algorithm.
  Sizing the integral batches needed.
  Building batch lookup table.
   Calculation information:
      Number of atoms:                  24
      Number of AO shells:             102
      Number of primitives:            290
      Number of atomic orbitals:       220
      Number of basis functions:       210

      Integral cutoff                 1.00e-12
      Number of threads:                 1

	Batch   1 pq = [       0,    9405] index = [             0,44231715] size =     44231715
	Batch   2 pq = [    9405,   13301] index = [      44231715,88464951] size =     44233236
	Batch   3 pq = [   13301,   16290] index = [      88464951,132690195] size =     44225244
	Batch   4 pq = [   16290,   18810] index = [     132690195,176917455] size =     44227260
	Batch   5 pq = [   18810,   21030] index = [     176917455,221140965] size =     44223510
	Batch   6 pq = [   21030,   22155] index = [     221140965,245433090] size =     24292125
  Task number: 23
  Buffer size: 11059200
  Buffer per thread: 2
  We computed 12852431 shell quartets total.
  Whereas there are 13799631 unique shell quartets.

  ==> DiskJK: Disk-Based J/K Matrices <==

    J tasked:                  Yes
    K tasked:                  Yes
    wK tasked:                  No
    Memory [MiB]:              375
    Schwarz Cutoff:          1E-12

    OpenMP threads:              1

  Minimum eigenvalue in the overlap matrix is 3.3316224160E-04.
  Using Symmetric Orthogonalization.

  SCF Guess: Superposition of Atomic Densities via on-the-fly atomic UHF.

  ==> Iterations <==

                        Total Energy        Delta E     RMS |[F,P]|

   @RHF iter SAD:  -422.62775671803257   -4.22628e+02   0.00000e+00
   @RHF iter   1:  -423.60044910954048   -9.72692e-01   2.98155e-03 DIIS
   @RHF iter   2:  -423.81692077997428   -2.16472e-01   1.26805e-03 DIIS
   @RHF iter   3:  -423.85232208487571   -3.54013e-02   2.81975e-04 DIIS
   @RHF iter   4:  -423.85519510771053   -2.87302e-03   1.14215e-04 DIIS
   @RHF iter   5:  -423.85552911111523   -3.34003e-04   2.12102e-05 DIIS
   @RHF iter   6:  -423.85554719203003   -1.80809e-05   6.59819e-06 DIIS
   @RHF iter   7:  -423.85554890111302   -1.70908e-06   2.09369e-06 DIIS
   @RHF iter   8:  -423.85554912179396   -2.20681e-07   8.04151e-07 DIIS
   @RHF iter   9:  -423.85554915342993   -3.16360e-08   2.67018e-07 DIIS
   @RHF iter  10:  -423.85554915820558   -4.77564e-09   1.01422e-07 DIIS
   @RHF iter  11:  -423.85554915930226   -1.09668e-09   4.64890e-08 DIIS
   @RHF iter  12:  -423.85554915957658   -2.74326e-10   2.57882e-08 DIIS
   @RHF iter  13:  -423.85554915965321   -7.66249e-11   7.96017e-09 DIIS
   @RHF iter  14:  -423.85554915966316   -9.94760e-12   2.26686e-09 DIIS
   @RHF iter  15:  -423.85554915966298    1.70530e-13   8.04458e-10 DIIS
   @RHF iter  16:  -423.85554915966009    2.89901e-12   2.99841e-10 DIIS
   @RHF iter  17:  -423.85554915966156   -1.47793e-12   1.45560e-10 DIIS
   @RHF iter  18:  -423.85554915965957    1.98952e-12   7.18593e-11 DIIS
  Energy and wave function converged.

  ==> Post-Iterations <==

    Orbital Energies [Eh]
    ---------------------

    Doubly Occupied:

       1A    -20.586346     2A    -11.299521     3A    -11.242240
       4A    -11.240002     5A    -11.237881     6A    -11.236373
       7A    -11.231854     8A    -11.229591     9A    -11.208550
      10A    -11.206173    11A     -1.395484    12A     -1.149249
      13A     -1.037069    14A     -1.016522    15A     -1.013733
      16A     -0.926238    17A     -0.845504    18A     -0.828853
      19A     -0.800084    20A     -0.729318    21A     -0.666231
      22A     -0.642168    23A     -0.612357    24A     -0.598085
      25A     -0.591213    26A     -0.587020    27A     -0.582376
      28A     -0.570635    29A     -0.563961    30A     -0.526226
      31A     -0.498057    32A     -0.495013    33A     -0.486805
      34A     -0.479306    35A     -0.474474    36A     -0.465753
      37A     -0.337317    38A     -0.305388

    Virtual:

      39A      0.125621    40A      0.151437    41A      0.173866
      42A      0.182230    43A      0.199038    44A      0.213586
      45A      0.221045    46A      0.245401    47A      0.251097
      48A      0.258618    49A      0.268054    50A      0.275274
      51A      0.283387    52A      0.289558    53A      0.310659
      54A      0.329340    55A      0.367547    56A      0.370592
      57A      0.400326    58A      0.431952    59A      0.451324
      60A      0.482855    61A      0.491676    62A      0.507219
      63A      0.586678    64A      0.598619    65A      0.606088
      66A      0.610321    67A      0.631854    68A      0.643272
      69A      0.649154    70A      0.668016    71A      0.683406
      72A      0.688151    73A      0.710370    74A      0.728549
      75A      0.737116    76A      0.740998    77A      0.766252
      78A      0.774128    79A      0.780483    80A      0.800297
      81A      0.811747    82A      0.832513    83A      0.843661
      84A      0.862795    85A      0.872210    86A      0.875097
      87A      0.885323    88A      0.886572    89A      0.892301
      90A      0.903918    91A      0.913226    92A      0.921815
      93A      0.927536    94A      0.930994    95A      0.940385
      96A      0.950800    97A      0.969508    98A      0.984339
      99A      1.003393   100A      1.010331   101A      1.024728
     102A      1.065372   103A      1.120766   104A      1.124482
     105A      1.137543   106A      1.139700   107A      1.156315
     108A      1.162743   109A      1.204601   110A      1.235883
     111A      1.236917   112A      1.246727   113A      1.260084
     114A      1.282553   115A      1.299016   116A      1.311344
     117A      1.345154   118A      1.364810   119A      1.370263
     120A      1.394327   121A      1.471548   122A      1.493614
     123A      1.497252   124A      1.503387   125A      1.523428
     126A      1.556241   127A      1.591673   128A      1.622512
     129A      1.635247   130A      1.673771   131A      1.691436
     132A      1.696176   133A      1.708297   134A      1.732708
     135A      1.739279   136A      1.781927   137A      1.806147
     138A      1.810915   139A      1.860725   140A      1.867357
     141A      1.874276   142A      1.882763   143A      1.897952
     144A      1.905627   145A      1.912839   146A      1.915790
     147A      1.926644   148A      1.941718   149A      1.955467
     150A      1.957360   151A      1.962781   152A      1.967214
     153A      1.975790   154A      1.982676   155A      1.991115
     156A      2.002870   157A      2.021003   158A      2.041324
     159A      2.054059   160A      2.065377   161A      2.072469
     162A      2.123672   163A      2.130851   164A      2.141183
     165A      2.157051   166A      2.178020   167A      2.186159
     168A      2.216576   169A      2.250346   170A      2.267946
     171A      2.297384   172A      2.312432   173A      2.321058
     174A      2.342947   175A      2.380720   176A      2.403885
     177A      2.422681   178A      2.461364   179A      2.473919
     180A      2.474319   181A      2.496019   182A      2.529369
     183A      2.545420   184A      2.582540   185A      2.601700
     186A      2.620855   187A      2.628390   188A      2.738602
     189A      2.767601   190A      2.783044   191A      2.786609
     192A      2.802678   193A      2.816201   194A      2.839791
     195A      2.860397   196A      2.881594   197A      2.901611
     198A      2.947498   199A      2.973676   200A      2.992332
     201A      3.002345   202A      3.074399   203A      3.107577
     204A      3.255591   205A      3.272112   206A      3.343259
     207A      3.567587   208A      3.667766   209A      3.946749
     210A      4.155281

    Final Occupation by Irrep:
              A
    DOCC [    38 ]

  @RHF Final Energy:  -423.85554915965957

   => Energetics <=

    Nuclear Repulsion Energy =            504.8950690787755207
    One-Electron Energy =               -1575.6152987346176815
    Two-Electron Energy =                 646.8646804961824728
    Total Energy =                       -423.8555491596596312

Computation Completed

Properties will be evaluated at   0.000000,   0.000000,   0.000000 [a0]

Properties computed using the SCF density matrix

  Nuclear Dipole Moment: [e a0]
     X:    -2.0433      Y:     8.2576      Z:    -7.2360

  Electronic Dipole Moment: [e a0]
     X:     2.5764      Y:    -8.2969      Z:     6.9455

  Dipole Moment: [e a0]
     X:     0.5331      Y:    -0.0393      Z:    -0.2905     Total:     0.6084

  Dipole Moment: [D]
     X:     1.3551      Y:    -0.0999      Z:    -0.7383     Total:     1.5464

*** tstop() called on ds3 at Tue Apr 28 20:40:27 2020
Module time:
	user time   =      99.36 seconds =       1.66 minutes
	system time =      39.85 seconds =       0.66 minutes
	total time  =        135 seconds =       2.25 minutes
Total time:
	user time   =      99.36 seconds =       1.66 minutes
	system time =      39.85 seconds =       0.66 minutes
	total time  =        135 seconds =       2.25 minutes
                                     G D M A

                                 by Anthony Stone

                           version 2.2.06, 22 June 2011

               Distributed Multipoles from Gaussian wavefunctions

Starting at 20:40:27 on 28 Apr 2020

Using SCF density matrix from file ./SSI/SSI-121TYR-125LEU-2-dimer.test.31143.fchk

                         Distributed Multipole Analysis

Standard DMA

Positions and radii in angstrom
Multipole moments in atomic units, ea_0^k for rank k

C          x =  2.494412  y =  1.718327  z =  1.502886 angstrom
           Maximum rank =  0   Radius =  0.650 angstrom
                   Q00  =  -0.201811

C          x = -0.383588  y = -1.262673  z =  0.288886 angstrom
           Maximum rank =  0   Radius =  0.650 angstrom
                   Q00  =   0.305995

C          x =  0.948412  y = -1.371673  z = -0.126114 angstrom
           Maximum rank =  0   Radius =  0.650 angstrom
                   Q00  =  -0.163596

C          x = -0.784588  y = -0.194673  z =  1.073886 angstrom
           Maximum rank =  0   Radius =  0.650 angstrom
                   Q00  =  -0.107313

C          x =  1.887412  y = -0.415673  z =  0.279886 angstrom
           Maximum rank =  0   Radius =  0.650 angstrom
                   Q00  =  -0.067232

C          x =  0.163412  y =  0.766327  z =  1.471886 angstrom
           Maximum rank =  0   Radius =  0.650 angstrom
                   Q00  =   0.039920

C          x =  1.504412  y =  0.641327  z =  1.108886 angstrom
           Maximum rank =  0   Radius =  0.650 angstrom
                   Q00  =  -0.123912

O          x = -1.326588  y = -2.165673  z = -0.122114 angstrom
           Maximum rank =  0   Radius =  0.650 angstrom
                   Q00  =  -0.670301

H          x =  1.252412  y = -2.189673  z = -0.763114 angstrom
           Maximum rank =  0   Radius =  0.325 angstrom
                   Q00  =   0.073290

H          x = -1.015588  y = -2.674673  z = -0.900114 angstrom
           Maximum rank =  0   Radius =  0.325 angstrom
                   Q00  =   0.412552

H          x = -1.817588  y = -0.104673  z =  1.373886 angstrom
           Maximum rank =  0   Radius =  0.325 angstrom
                   Q00  =   0.083265

H          x =  2.915412  y = -0.506673  z = -0.042114 angstrom
           Maximum rank =  0   Radius =  0.325 angstrom
                   Q00  =   0.069548

H          x = -0.151588  y =  1.605327  z =  2.070886 angstrom
           Maximum rank =  0   Radius =  0.325 angstrom
                   Q00  =   0.067017

H          x =  3.388412  y =  1.238327  z =  1.898886 angstrom
           Maximum rank =  0   Radius =  0.325 angstrom
                   Q00  =   0.096446

H          x =  2.073412  y =  2.338327  z =  2.294886 angstrom
           Maximum rank =  0   Radius =  0.325 angstrom
                   Q00  =   0.097920

H          x =  2.787562  y =  2.357667  z =  0.657126 angstrom
           Maximum rank =  0   Radius =  0.325 angstrom
                   Q00  =   0.099234

C          x = -1.968588  y =  0.443327  z = -2.710114 angstrom
           Maximum rank =  0   Radius =  0.650 angstrom
                   Q00  =  -0.231503

C          x = -1.910588  y =  1.821327  z = -2.079114 angstrom
           Maximum rank =  0   Radius =  0.650 angstrom
                   Q00  =  -0.227316

H          x = -1.058588  y =  0.245327  z = -3.271114 angstrom
           Maximum rank =  0   Radius =  0.325 angstrom
                   Q00  =   0.071828

H          x = -2.051588  y = -0.311673  z = -1.934114 angstrom
           Maximum rank =  0   Radius =  0.325 angstrom
                   Q00  =   0.073042

H          x = -2.832588  y =  0.371327  z = -3.365114 angstrom
           Maximum rank =  0   Radius =  0.325 angstrom
                   Q00  =   0.071672

H          x = -0.949588  y =  1.914327  z = -1.595114 angstrom
           Maximum rank =  0   Radius =  0.325 angstrom
                   Q00  =   0.085368

H          x = -2.033958  y =  2.603147  z = -2.843004 angstrom
           Maximum rank =  0   Radius =  0.325 angstrom
                   Q00  =   0.071164

H          x = -2.678918  y =  1.933057  z = -1.299894 angstrom
           Maximum rank =  0   Radius =  0.325 angstrom
                   Q00  =   0.074722

Total multipoles referred to origin at
           x =   0.000000,  y =    0.000000,  z =    0.000000 angstrom
                   Q00  =  -0.000000

Finished at 20:40:27 on 28 Apr 2020

  DMA results are available in the Python driver through the
	  variable('DMA DISTRIBUTED MULTIPOLES')
  and
	  variable('DMA TOTAL MULTIPOLES')
  commands.

    Psi4 stopped on: Tuesday, 28 April 2020 08:40PM
    Psi4 wall time for execution: 0:02:14.46

*** Psi4 exiting successfully. Buy a developer a beer!
