                               Psi4 1.3.2 release

  ==> Input File <==

--------------------------------------------------------------------------
import numpy as np
set {scf_type pk
basis cc-pvdz
d_convergence 10
gdma_switch   0
gdma_limit    0
gdma_origin   [ 0.0,  0.0,  0.0 ]
}
molecule test {
    units Angstrom
    0 1
    --
    0 1
    C               -0.918647581287497    -0.801924216899636     2.053259856523475
    C               -0.917647581287497    -0.721924216899636     0.554259856523475
    C               -1.766647581287497    -0.089924216899636    -0.297740143476525
    C               -0.166647581287497    -1.019924216899636    -1.488740143476525
    N                0.073352418712503    -1.294924216899636    -0.212740143476525
    N               -1.282647581287497    -0.305924216899636    -1.571740143476525
    H               -0.911647581287497     0.201075783100364     2.449259856523475
    H                0.020352418712503    -1.259924216899636     2.368259856523475
    H               -2.649647581287496     0.474075783100364    -0.024740143476525
    H                0.349352418712503    -1.466924216899635    -2.321740143476525
    H               -1.690647581287497     0.015075783100364    -2.442740143476525
    H               -1.747607581287497    -1.388802216899636     2.475639856523475
    C                2.261352418712503     1.225075783100364     0.102259856523475
    C                2.319352418712504     2.603075783100364     0.733259856523475
    H                3.171352418712504     1.027075783100364    -0.458740143476525
    H                2.178352418712504     0.470075783100364     0.878259856523475
    H                1.397352418712503     1.153075783100364    -0.552740143476525
    H                3.280352418712503     2.696075783100364     1.217259856523475
    H                2.195982418712503     3.384895783100364    -0.030630143476525
    H                1.551022418712503     2.714805783100364     1.512479856523475

}
e, wfn = energy('scf', return_wfn=True)
gdma(wfn)
dmavals = variable('DMA DISTRIBUTED MULTIPOLES')
charges = np.array(dmavals)
print(charges)
np.save('SSI-031HIE-125LEU-1-dimer.npy', np.array(charges))--------------------------------------------------------------------------

*** tstart() called on ds3
*** at Mon Apr 27 06:47:22 2020

   => Loading Basis Set <=

    Name: CC-PVDZ
    Role: ORBITAL
    Keyword: BASIS
    atoms 1-4, 13-14  entry C          line   138 file /theoryfs2/ds/metcalf/miniconda2/envs/tf2gpu/share/psi4/basis/cc-pvdz.gbs
    atoms 5-6         entry N          line   168 file /theoryfs2/ds/metcalf/miniconda2/envs/tf2gpu/share/psi4/basis/cc-pvdz.gbs
    atoms 7-12, 15-20 entry H          line    22 file /theoryfs2/ds/metcalf/miniconda2/envs/tf2gpu/share/psi4/basis/cc-pvdz.gbs

         ---------------------------------------------------------
                                   SCF
               by Justin Turney, Rob Parrish, Andy Simmonett
                          and Daniel G. A. Smith
                              RHF Reference
                        1 Threads,    500 MiB Core
         ---------------------------------------------------------

  ==> Geometry <==

    Molecular point group: c1
    Full point group: C1

    Geometry (in Angstrom), charge = 0, multiplicity = 1:

       Center              X                  Y                   Z               Mass
    ------------   -----------------  -----------------  -----------------  -----------------
         C           -0.918647581287    -0.801924216900     2.053259856523    12.000000000000
         C           -0.917647581287    -0.721924216900     0.554259856523    12.000000000000
         C           -1.766647581287    -0.089924216900    -0.297740143477    12.000000000000
         C           -0.166647581287    -1.019924216900    -1.488740143477    12.000000000000
         N            0.073352418713    -1.294924216900    -0.212740143477    14.003074004430
         N           -1.282647581287    -0.305924216900    -1.571740143477    14.003074004430
         H           -0.911647581287     0.201075783100     2.449259856523     1.007825032230
         H            0.020352418713    -1.259924216900     2.368259856523     1.007825032230
         H           -2.649647581287     0.474075783100    -0.024740143477     1.007825032230
         H            0.349352418713    -1.466924216900    -2.321740143477     1.007825032230
         H           -1.690647581287     0.015075783100    -2.442740143477     1.007825032230
         H           -1.747607581287    -1.388802216900     2.475639856523     1.007825032230
         C            2.261352418713     1.225075783100     0.102259856523    12.000000000000
         C            2.319352418713     2.603075783100     0.733259856523    12.000000000000
         H            3.171352418713     1.027075783100    -0.458740143477     1.007825032230
         H            2.178352418713     0.470075783100     0.878259856523     1.007825032230
         H            1.397352418713     1.153075783100    -0.552740143477     1.007825032230
         H            3.280352418713     2.696075783100     1.217259856523     1.007825032230
         H            2.195982418713     3.384895783100    -0.030630143477     1.007825032230
         H            1.551022418713     2.714805783100     1.512479856523     1.007825032230

  Running in c1 symmetry.

  Rotational constants: A =      0.08114  B =      0.03737  C =      0.03118 [cm^-1]
  Rotational constants: A =   2432.48342  B =   1120.19015  C =    934.74038 [MHz]
  Nuclear repulsion =  363.014974687641484

  Charge       = 0
  Multiplicity = 1
  Electrons    = 62
  Nalpha       = 31
  Nbeta        = 31

  ==> Algorithm <==

  SCF Algorithm Type is PK.
  DIIS enabled.
  MOM disabled.
  Fractional occupation disabled.
  Guess Type is SAD.
  Energy threshold   = 1.00e-06
  Density threshold  = 1.00e-10
  Integral threshold = 0.00e+00

  ==> Primary Basis <==

  Basis Set: CC-PVDZ
    Blend: CC-PVDZ
    Number of shells: 84
    Number of basis function: 172
    Number of Cartesian functions: 180
    Spherical Harmonics?: true
    Max angular momentum: 2

  ==> Pre-Iterations <==

   -------------------------------------------------------
    Irrep   Nso     Nmo     Nalpha   Nbeta   Ndocc  Nsocc
   -------------------------------------------------------
     A        172     172       0       0       0       0
   -------------------------------------------------------
    Total     172     172      31      31      31       0
   -------------------------------------------------------

  ==> Integral Setup <==

  Using integral reordering PK algorithm.
  Sizing the integral batches needed.
  Building batch lookup table.
   Calculation information:
      Number of atoms:                  20
      Number of AO shells:              84
      Number of primitives:            236
      Number of atomic orbitals:       180
      Number of basis functions:       172

      Integral cutoff                 1.00e-12
      Number of threads:                 1

	Batch   1 pq = [       0,    9405] index = [             0,44231715] size =     44231715
	Batch   2 pq = [    9405,   13301] index = [      44231715,88464951] size =     44233236
	Batch   3 pq = [   13301,   14878] index = [      88464951,110684881] size =     22219930
  Task number: 11
  Buffer size: 11059200
  Buffer per thread: 2
  We computed 5810896 shell quartets total.
  Whereas there are 6374235 unique shell quartets.

  ==> DiskJK: Disk-Based J/K Matrices <==

    J tasked:                  Yes
    K tasked:                  Yes
    wK tasked:                  No
    Memory [MiB]:              375
    Schwarz Cutoff:          1E-12

    OpenMP threads:              1

  Minimum eigenvalue in the overlap matrix is 1.2033948673E-03.
  Using Symmetric Orthogonalization.

  SCF Guess: Superposition of Atomic Densities via on-the-fly atomic UHF.

  ==> Iterations <==

                        Total Energy        Delta E     RMS |[F,P]|

   @RHF iter SAD:  -342.24863247550064   -3.42249e+02   0.00000e+00
   @RHF iter   1:  -342.88223041283010   -6.33598e-01   3.37760e-03 DIIS
   @RHF iter   2:  -343.05536097326603   -1.73131e-01   1.71504e-03 DIIS
   @RHF iter   3:  -343.09652177535628   -4.11608e-02   4.38011e-04 DIIS
   @RHF iter   4:  -343.10001780594354   -3.49603e-03   1.82419e-04 DIIS
   @RHF iter   5:  -343.10058463890709   -5.66833e-04   2.67019e-05 DIIS
   @RHF iter   6:  -343.10060496624260   -2.03273e-05   1.13764e-05 DIIS
   @RHF iter   7:  -343.10060818752856   -3.22129e-06   3.92838e-06 DIIS
   @RHF iter   8:  -343.10060885362685   -6.66098e-07   1.60032e-06 DIIS
   @RHF iter   9:  -343.10060900514009   -1.51513e-07   5.92021e-07 DIIS
   @RHF iter  10:  -343.10060902187604   -1.67360e-08   1.86678e-07 DIIS
   @RHF iter  11:  -343.10060902382639   -1.95035e-09   8.01562e-08 DIIS
   @RHF iter  12:  -343.10060902409015   -2.63753e-10   3.22156e-08 DIIS
   @RHF iter  13:  -343.10060902413335   -4.32010e-11   8.55391e-09 DIIS
   @RHF iter  14:  -343.10060902413943   -6.08225e-12   3.23995e-09 DIIS
   @RHF iter  15:  -343.10060902414091   -1.47793e-12   1.30722e-09 DIIS
   @RHF iter  16:  -343.10060902413915    1.76215e-12   4.09503e-10 DIIS
   @RHF iter  17:  -343.10060902413932   -1.70530e-13   1.24067e-10 DIIS
   @RHF iter  18:  -343.10060902414017   -8.52651e-13   4.48670e-11 DIIS
  Energy and wave function converged.

  ==> Post-Iterations <==

    Orbital Energies [Eh]
    ---------------------

    Doubly Occupied:

       1A    -15.622504     2A    -15.528089     3A    -11.290246
       4A    -11.251099     5A    -11.241910     6A    -11.221838
       7A    -11.205977     8A    -11.196896     9A     -1.342130
      10A     -1.154329    11A     -1.030687    12A     -1.008412
      13A     -0.942394    14A     -0.822807    15A     -0.818069
      16A     -0.761885    17A     -0.742255    18A     -0.613011
      19A     -0.605624    20A     -0.596504    21A     -0.588536
      22A     -0.583230    23A     -0.556256    24A     -0.540061
      25A     -0.516244    26A     -0.489217    27A     -0.472607
      28A     -0.469533    29A     -0.410797    30A     -0.378028
      31A     -0.309565

    Virtual:

      32A      0.171328    33A      0.178426    34A      0.183384
      35A      0.213717    36A      0.223742    37A      0.233470
      38A      0.236310    39A      0.249122    40A      0.266283
      41A      0.270141    42A      0.278622    43A      0.302455
      44A      0.313766    45A      0.334228    46A      0.375851
      47A      0.389478    48A      0.415656    49A      0.422087
      50A      0.483276    51A      0.495672    52A      0.589421
      53A      0.599044    54A      0.605314    55A      0.617298
      56A      0.641765    57A      0.657526    58A      0.661080
      59A      0.692314    60A      0.696502    61A      0.735810
      62A      0.736792    63A      0.747761    64A      0.765440
      65A      0.805664    66A      0.822677    67A      0.839640
      68A      0.864246    69A      0.883266    70A      0.891101
      71A      0.894811    72A      0.907101    73A      0.914204
      74A      0.918592    75A      0.926599    76A      0.942269
      77A      0.956453    78A      0.969097    79A      0.976303
      80A      1.000942    81A      1.004065    82A      1.030200
      83A      1.062298    84A      1.097803    85A      1.113284
      86A      1.117872    87A      1.138390    88A      1.146097
      89A      1.151263    90A      1.227676    91A      1.242925
      92A      1.262798    93A      1.275941    94A      1.310232
      95A      1.317572    96A      1.339046    97A      1.435121
      98A      1.449938    99A      1.481628   100A      1.499490
     101A      1.510747   102A      1.532394   103A      1.572522
     104A      1.606844   105A      1.618956   106A      1.652456
     107A      1.692194   108A      1.693988   109A      1.716476
     110A      1.746789   111A      1.779544   112A      1.808818
     113A      1.841973   114A      1.868268   115A      1.879337
     116A      1.890756   117A      1.915275   118A      1.917539
     119A      1.927756   120A      1.933769   121A      1.937757
     122A      1.953616   123A      1.959560   124A      1.965717
     125A      1.971089   126A      1.989022   127A      2.001786
     128A      2.024176   129A      2.025765   130A      2.071374
     131A      2.089223   132A      2.133398   133A      2.152495
     134A      2.174323   135A      2.208155   136A      2.252081
     137A      2.278796   138A      2.305741   139A      2.320789
     140A      2.335277   141A      2.359437   142A      2.374732
     143A      2.409704   144A      2.452872   145A      2.465306
     146A      2.481896   147A      2.484364   148A      2.575912
     149A      2.585429   150A      2.588849   151A      2.624234
     152A      2.684263   153A      2.738549   154A      2.776041
     155A      2.780243   156A      2.786634   157A      2.811333
     158A      2.823953   159A      2.827957   160A      2.867450
     161A      2.881996   162A      2.885333   163A      2.895660
     164A      2.941838   165A      2.965419   166A      2.995461
     167A      3.001513   168A      3.063909   169A      3.149473
     170A      3.228790   171A      3.463414   172A      3.790516

    Final Occupation by Irrep:
              A
    DOCC [    31 ]

  @RHF Final Energy:  -343.10060902414017

   => Energetics <=

    Nuclear Repulsion Energy =            363.0149746876414838
    One-Electron Energy =               -1183.6096841256269272
    Two-Electron Energy =                 477.4941004138452740
    Total Energy =                       -343.1006090241401694

Computation Completed

Properties will be evaluated at   0.000000,   0.000000,   0.000000 [a0]

Properties computed using the SCF density matrix

  Nuclear Dipole Moment: [e a0]
     X:     6.7013      Y:     7.5237      Z:     4.7580

  Electronic Dipole Moment: [e a0]
     X:    -7.5965      Y:    -7.0524      Z:    -5.6455

  Dipole Moment: [e a0]
     X:    -0.8951      Y:     0.4713      Z:    -0.8875     Total:     1.3458

  Dipole Moment: [D]
     X:    -2.2752      Y:     1.1979      Z:    -2.2558     Total:     3.4206

*** tstop() called on ds3 at Mon Apr 27 06:48:21 2020
Module time:
	user time   =      41.38 seconds =       0.69 minutes
	system time =      18.72 seconds =       0.31 minutes
	total time  =         59 seconds =       0.98 minutes
Total time:
	user time   =      41.38 seconds =       0.69 minutes
	system time =      18.72 seconds =       0.31 minutes
	total time  =         59 seconds =       0.98 minutes
                                     G D M A

                                 by Anthony Stone

                           version 2.2.06, 22 June 2011

               Distributed Multipoles from Gaussian wavefunctions

Starting at 6:48:21 on 27 Apr 2020

Using SCF density matrix from file ./SSI/SSI-031HIE-125LEU-1-dimer.test.14554.fchk

                         Distributed Multipole Analysis

Standard DMA

Positions and radii in angstrom
Multipole moments in atomic units, ea_0^k for rank k

C          x = -0.918648  y = -0.801924  z =  2.053260 angstrom
           Maximum rank =  0   Radius =  0.650 angstrom
                   Q00  =  -0.209210

C          x = -0.917648  y = -0.721924  z =  0.554260 angstrom
           Maximum rank =  0   Radius =  0.650 angstrom
                   Q00  =   0.238207

C          x = -1.766648  y = -0.089924  z = -0.297740 angstrom
           Maximum rank =  0   Radius =  0.650 angstrom
                   Q00  =   0.000416

C          x = -0.166648  y = -1.019924  z = -1.488740 angstrom
           Maximum rank =  0   Radius =  0.650 angstrom
                   Q00  =   0.459860

N          x =  0.073352  y = -1.294924  z = -0.212740 angstrom
           Maximum rank =  0   Radius =  0.650 angstrom
                   Q00  =  -0.773768

N          x = -1.282648  y = -0.305924  z = -1.571740 angstrom
           Maximum rank =  0   Radius =  0.650 angstrom
                   Q00  =  -0.477549

H          x = -0.911648  y =  0.201076  z =  2.449260 angstrom
           Maximum rank =  0   Radius =  0.325 angstrom
                   Q00  =   0.100018

H          x =  0.020352  y = -1.259924  z =  2.368260 angstrom
           Maximum rank =  0   Radius =  0.325 angstrom
                   Q00  =   0.123092

H          x = -2.649648  y =  0.474076  z = -0.024740 angstrom
           Maximum rank =  0   Radius =  0.325 angstrom
                   Q00  =   0.100207

H          x =  0.349352  y = -1.466924  z = -2.321740 angstrom
           Maximum rank =  0   Radius =  0.325 angstrom
                   Q00  =   0.123324

H          x = -1.690648  y =  0.015076  z = -2.442740 angstrom
           Maximum rank =  0   Radius =  0.325 angstrom
                   Q00  =   0.220160

H          x = -1.747608  y = -1.388802  z =  2.475640 angstrom
           Maximum rank =  0   Radius =  0.325 angstrom
                   Q00  =   0.101920

C          x =  2.261352  y =  1.225076  z =  0.102260 angstrom
           Maximum rank =  0   Radius =  0.650 angstrom
                   Q00  =  -0.213281

C          x =  2.319352  y =  2.603076  z =  0.733260 angstrom
           Maximum rank =  0   Radius =  0.650 angstrom
                   Q00  =  -0.238715

H          x =  3.171352  y =  1.027076  z = -0.458740 angstrom
           Maximum rank =  0   Radius =  0.325 angstrom
                   Q00  =   0.068392

H          x =  2.178352  y =  0.470076  z =  0.878260 angstrom
           Maximum rank =  0   Radius =  0.325 angstrom
                   Q00  =   0.085309

H          x =  1.397352  y =  1.153076  z = -0.552740 angstrom
           Maximum rank =  0   Radius =  0.325 angstrom
                   Q00  =   0.074039

H          x =  3.280352  y =  2.696076  z =  1.217260 angstrom
           Maximum rank =  0   Radius =  0.325 angstrom
                   Q00  =   0.073528

H          x =  2.195982  y =  3.384896  z = -0.030630 angstrom
           Maximum rank =  0   Radius =  0.325 angstrom
                   Q00  =   0.071673

H          x =  1.551022  y =  2.714806  z =  1.512480 angstrom
           Maximum rank =  0   Radius =  0.325 angstrom
                   Q00  =   0.072379

Total multipoles referred to origin at
           x =   0.000000,  y =    0.000000,  z =    0.000000 angstrom
                   Q00  =  -0.000000

Finished at 6:48:21 on 27 Apr 2020

  DMA results are available in the Python driver through the
	  variable('DMA DISTRIBUTED MULTIPOLES')
  and
	  variable('DMA TOTAL MULTIPOLES')
  commands.

    Psi4 stopped on: Monday, 27 April 2020 06:48AM
    Psi4 wall time for execution: 0:00:59.04

*** Psi4 exiting successfully. Buy a developer a beer!
