                               Psi4 1.3.2 release

  ==> Input File <==

--------------------------------------------------------------------------
import numpy as np
set {scf_type pk
basis cc-pvdz
d_convergence 10
gdma_switch   0
gdma_limit    0
gdma_origin   [ 0.0,  0.0,  0.0 ]
}
molecule test {
    units Angstrom
    -1 1
    --
    -1 1
    C                0.336551455826903    -2.644996900487506     0.965666200566844
    C               -1.055448544173097    -2.376996900487506     1.512666200566844
    C                0.449551455826903    -2.631996900487506    -0.550333799433156
    O               -0.557448544173097    -2.482996900487506    -1.264333799433156
    O                1.607551455826903    -2.820996900487506    -1.024333799433156
    H                1.002551455826903    -1.880996900487506     1.363666200566844
    H                0.689551455826903    -3.609996900487506     1.337666200566844
    H               -1.382448544173097    -1.395996900487506     1.165666200566844
    H               -1.014178544173097    -2.413017700487506     2.611306200566844
    H               -1.763118544173097    -3.142197500487506     1.160986200566844
    C               -1.699448544173097     2.914003099512494     1.728666200566844
    C                1.025551455826903     0.842003099512494     0.055666200566844
    C                0.131551455826903     1.348003099512494     1.006666200566844
    C                1.068551455826903     1.403003099512494    -1.197333799433156
    C               -0.709448544173097     2.405003099512494     0.709666200566844
    C                0.215551455826903     2.444003099512494    -1.508333799433156
    C               -0.673448544173097     2.925003099512494    -0.566333799433156
    H                1.683551455826903     0.023003099512494     0.301666200566844
    H                0.101551455826903     0.902003099512494     1.990666200566844
    H                1.756551455826903     1.017003099512494    -1.931333799433156
    H                0.241551455826903     2.879003099512494    -2.495333799433156
    H               -1.996448544173097     3.933003099512494     1.469666200566844
    H               -1.211448544173097     2.948003099512494     2.703666200566844
    H               -1.339448544173097     3.735003099512494    -0.833333799433156
    H               -2.593118544173097     2.276492099512494     1.798856200566844

}
e, wfn = energy('scf', return_wfn=True)
gdma(wfn)
dmavals = variable('DMA DISTRIBUTED MULTIPOLES')
charges = np.array(dmavals)
print(charges)
np.save('SSI-131ASP-182PHE-1-dimer.npy', np.array(charges))--------------------------------------------------------------------------

*** tstart() called on ds3
*** at Tue Apr 28 03:26:01 2020

   => Loading Basis Set <=

    Name: CC-PVDZ
    Role: ORBITAL
    Keyword: BASIS
    atoms 1-3, 11-17  entry C          line   138 file /theoryfs2/ds/metcalf/miniconda2/envs/tf2gpu/share/psi4/basis/cc-pvdz.gbs
    atoms 4-5         entry O          line   198 file /theoryfs2/ds/metcalf/miniconda2/envs/tf2gpu/share/psi4/basis/cc-pvdz.gbs
    atoms 6-10, 18-25 entry H          line    22 file /theoryfs2/ds/metcalf/miniconda2/envs/tf2gpu/share/psi4/basis/cc-pvdz.gbs

         ---------------------------------------------------------
                                   SCF
               by Justin Turney, Rob Parrish, Andy Simmonett
                          and Daniel G. A. Smith
                              RHF Reference
                        1 Threads,    500 MiB Core
         ---------------------------------------------------------

  ==> Geometry <==

    Molecular point group: c1
    Full point group: C1

    Geometry (in Angstrom), charge = -1, multiplicity = 1:

       Center              X                  Y                   Z               Mass
    ------------   -----------------  -----------------  -----------------  -----------------
         C            0.336551455827    -2.644996900488     0.965666200567    12.000000000000
         C           -1.055448544173    -2.376996900488     1.512666200567    12.000000000000
         C            0.449551455827    -2.631996900488    -0.550333799433    12.000000000000
         O           -0.557448544173    -2.482996900488    -1.264333799433    15.994914619570
         O            1.607551455827    -2.820996900488    -1.024333799433    15.994914619570
         H            1.002551455827    -1.880996900488     1.363666200567     1.007825032230
         H            0.689551455827    -3.609996900488     1.337666200567     1.007825032230
         H           -1.382448544173    -1.395996900488     1.165666200567     1.007825032230
         H           -1.014178544173    -2.413017700488     2.611306200567     1.007825032230
         H           -1.763118544173    -3.142197500488     1.160986200567     1.007825032230
         C           -1.699448544173     2.914003099512     1.728666200567    12.000000000000
         C            1.025551455827     0.842003099512     0.055666200567    12.000000000000
         C            0.131551455827     1.348003099512     1.006666200567    12.000000000000
         C            1.068551455827     1.403003099512    -1.197333799433    12.000000000000
         C           -0.709448544173     2.405003099512     0.709666200567    12.000000000000
         C            0.215551455827     2.444003099512    -1.508333799433    12.000000000000
         C           -0.673448544173     2.925003099512    -0.566333799433    12.000000000000
         H            1.683551455827     0.023003099512     0.301666200567     1.007825032230
         H            0.101551455827     0.902003099512     1.990666200567     1.007825032230
         H            1.756551455827     1.017003099512    -1.931333799433     1.007825032230
         H            0.241551455827     2.879003099512    -2.495333799433     1.007825032230
         H           -1.996448544173     3.933003099512     1.469666200567     1.007825032230
         H           -1.211448544173     2.948003099512     2.703666200567     1.007825032230
         H           -1.339448544173     3.735003099512    -0.833333799433     1.007825032230
         H           -2.593118544173     2.276492099512     1.798856200567     1.007825032230

  Running in c1 symmetry.

  Rotational constants: A =      0.04580  B =      0.01601  C =      0.01337 [cm^-1]
  Rotational constants: A =   1373.05209  B =    479.90086  C =    400.77838 [MHz]
  Nuclear repulsion =  648.346711230586948

  Charge       = -1
  Multiplicity = 1
  Electrons    = 90
  Nalpha       = 45
  Nbeta        = 45

  ==> Algorithm <==

  SCF Algorithm Type is PK.
  DIIS enabled.
  MOM disabled.
  Fractional occupation disabled.
  Guess Type is SAD.
  Energy threshold   = 1.00e-06
  Density threshold  = 1.00e-10
  Integral threshold = 0.00e+00

  ==> Primary Basis <==

  Basis Set: CC-PVDZ
    Blend: CC-PVDZ
    Number of shells: 111
    Number of basis function: 233
    Number of Cartesian functions: 245
    Spherical Harmonics?: true
    Max angular momentum: 2

  ==> Pre-Iterations <==

   -------------------------------------------------------
    Irrep   Nso     Nmo     Nalpha   Nbeta   Ndocc  Nsocc
   -------------------------------------------------------
     A        233     233       0       0       0       0
   -------------------------------------------------------
    Total     233     233      45      45      45       0
   -------------------------------------------------------

  ==> Integral Setup <==

  Using integral reordering PK algorithm.
  Sizing the integral batches needed.
  Building batch lookup table.
   Calculation information:
      Number of atoms:                  25
      Number of AO shells:             111
      Number of primitives:            329
      Number of atomic orbitals:       245
      Number of basis functions:       233

      Integral cutoff                 1.00e-12
      Number of threads:                 1

	Batch   1 pq = [       0,    9405] index = [             0,44231715] size =     44231715
	Batch   2 pq = [    9405,   13301] index = [      44231715,88464951] size =     44233236
	Batch   3 pq = [   13301,   16290] index = [      88464951,132690195] size =     44225244
	Batch   4 pq = [   16290,   18810] index = [     132690195,176917455] size =     44227260
	Batch   5 pq = [   18810,   21030] index = [     176917455,221140965] size =     44223510
	Batch   6 pq = [   21030,   23037] index = [     221140965,265363203] size =     44222238
	Batch   7 pq = [   23037,   24883] index = [     265363203,309594286] size =     44231083
	Batch   8 pq = [   24883,   26601] index = [     309594286,353819901] size =     44225615
	Batch   9 pq = [   26601,   27261] index = [     353819901,371594691] size =     17774790
  Task number: 34
  Buffer size: 11059200
  Buffer per thread: 2
  We computed 18545043 shell quartets total.
  Whereas there are 19322436 unique shell quartets.

  ==> DiskJK: Disk-Based J/K Matrices <==

    J tasked:                  Yes
    K tasked:                  Yes
    wK tasked:                  No
    Memory [MiB]:              375
    Schwarz Cutoff:          1E-12

    OpenMP threads:              1

  Minimum eigenvalue in the overlap matrix is 2.8880623000E-04.
  Using Symmetric Orthogonalization.

  SCF Guess: Superposition of Atomic Densities via on-the-fly atomic UHF.

  ==> Iterations <==

                        Total Energy        Delta E     RMS |[F,P]|

   @RHF iter SAD:  -534.49005348413277   -5.34490e+02   0.00000e+00
   @RHF iter   1:  -535.66976369953261   -1.17971e+00   3.49518e-03 DIIS
   @RHF iter   2:  -535.95914418947586   -2.89380e-01   1.86769e-03 DIIS
   @RHF iter   3:  -536.03287764572895   -7.37335e-02   3.21263e-04 DIIS
   @RHF iter   4:  -536.03670930207602   -3.83166e-03   1.23601e-04 DIIS
   @RHF iter   5:  -536.03721600075892   -5.06699e-04   1.90968e-05 DIIS
   @RHF iter   6:  -536.03723302554658   -1.70248e-05   5.90562e-06 DIIS
   @RHF iter   7:  -536.03723447053994   -1.44499e-06   2.02606e-06 DIIS
   @RHF iter   8:  -536.03723464204893   -1.71509e-07   7.07513e-07 DIIS
   @RHF iter   9:  -536.03723466529709   -2.32482e-08   2.34041e-07 DIIS
   @RHF iter  10:  -536.03723466964402   -4.34693e-09   9.30922e-08 DIIS
   @RHF iter  11:  -536.03723467029204   -6.48015e-10   3.80121e-08 DIIS
   @RHF iter  12:  -536.03723467041493   -1.22895e-10   1.82290e-08 DIIS
   @RHF iter  13:  -536.03723467044483   -2.98996e-11   5.55767e-09 DIIS
   @RHF iter  14:  -536.03723467044574   -9.09495e-13   2.08863e-09 DIIS
   @RHF iter  15:  -536.03723467044915   -3.41061e-12   9.17335e-10 DIIS
   @RHF iter  16:  -536.03723467044574    3.41061e-12   4.60022e-10 DIIS
   @RHF iter  17:  -536.03723467044551    2.27374e-13   1.94212e-10 DIIS
   @RHF iter  18:  -536.03723467044517    3.41061e-13   6.15454e-11 DIIS
  Energy and wave function converged.

  ==> Post-Iterations <==

    Orbital Energies [Eh]
    ---------------------

    Doubly Occupied:

       1A    -20.264023     2A    -20.251179     3A    -11.145024
       4A    -11.138336     5A    -11.130858     6A    -11.128763
       7A    -11.125624     8A    -11.122725     9A    -11.119811
      10A    -11.112986    11A    -11.071368    12A    -11.053885
      13A     -1.146458    14A     -1.056231    15A     -1.031315
      16A     -0.949081    17A     -0.908797    18A     -0.873615
      19A     -0.838945    20A     -0.725059    21A     -0.700907
      22A     -0.694647    23A     -0.590798    24A     -0.534070
      25A     -0.525937    26A     -0.507705    27A     -0.490036
      28A     -0.480305    29A     -0.464913    30A     -0.458352
      31A     -0.447038    32A     -0.430365    33A     -0.389113
      34A     -0.388048    35A     -0.383322    36A     -0.380311
      37A     -0.360931    38A     -0.353261    39A     -0.326361
      40A     -0.297539    41A     -0.227400    42A     -0.223320
      43A     -0.181376    44A     -0.168657    45A     -0.157719

    Virtual:

      46A      0.238369    47A      0.247115    48A      0.270463
      49A      0.295628    50A      0.308500    51A      0.332346
      52A      0.343000    53A      0.355352    54A      0.358159
      55A      0.375024    56A      0.380339    57A      0.396111
      58A      0.407573    59A      0.424869    60A      0.451063
      61A      0.468162    62A      0.472646    63A      0.516151
      64A      0.548570    65A      0.560443    66A      0.570982
      67A      0.579284    68A      0.596984    69A      0.626575
      70A      0.655665    71A      0.683717    72A      0.702974
      73A      0.718268    74A      0.723288    75A      0.755043
      76A      0.778184    77A      0.786599    78A      0.796117
      79A      0.805769    80A      0.822388    81A      0.841255
      82A      0.843443    83A      0.848989    84A      0.860198
      85A      0.867394    86A      0.880819    87A      0.893346
      88A      0.909811    89A      0.927415    90A      0.949845
      91A      0.958992    92A      0.966416    93A      0.967706
      94A      0.969447    95A      0.989772    96A      0.998061
      97A      1.003478    98A      1.016774    99A      1.018196
     100A      1.025478   101A      1.036455   102A      1.053802
     103A      1.059036   104A      1.064301   105A      1.075149
     106A      1.081414   107A      1.106093   108A      1.110259
     109A      1.126511   110A      1.137840   111A      1.142299
     112A      1.179502   113A      1.231551   114A      1.242396
     115A      1.246149   116A      1.265275   117A      1.275605
     118A      1.297937   119A      1.309116   120A      1.324448
     121A      1.349672   122A      1.359061   123A      1.367048
     124A      1.375172   125A      1.393754   126A      1.402049
     127A      1.416153   128A      1.438435   129A      1.439359
     130A      1.482092   131A      1.495744   132A      1.514764
     133A      1.533924   134A      1.601120   135A      1.610385
     136A      1.625042   137A      1.644595   138A      1.653738
     139A      1.666607   140A      1.685414   141A      1.709638
     142A      1.732788   143A      1.756983   144A      1.785891
     145A      1.822861   146A      1.832127   147A      1.840559
     148A      1.852667   149A      1.875504   150A      1.881651
     151A      1.902777   152A      1.915421   153A      1.922514
     154A      1.963894   155A      1.985050   156A      2.001598
     157A      2.009850   158A      2.015028   159A      2.020788
     160A      2.036002   161A      2.041630   162A      2.051872
     163A      2.058773   164A      2.062893   165A      2.076595
     166A      2.088171   167A      2.097771   168A      2.124403
     169A      2.150301   170A      2.162650   171A      2.169394
     172A      2.170774   173A      2.182110   174A      2.188596
     175A      2.198882   176A      2.215727   177A      2.225298
     178A      2.241733   179A      2.254802   180A      2.269768
     181A      2.284310   182A      2.291731   183A      2.308172
     184A      2.343259   185A      2.363481   186A      2.386858
     187A      2.391232   188A      2.399487   189A      2.407492
     190A      2.423613   191A      2.444990   192A      2.490650
     193A      2.508874   194A      2.539510   195A      2.567242
     196A      2.582055   197A      2.603044   198A      2.639686
     199A      2.646771   200A      2.680380   201A      2.713095
     202A      2.731344   203A      2.781283   204A      2.809397
     205A      2.840256   206A      2.860155   207A      2.872672
     208A      2.903374   209A      2.919989   210A      2.930567
     211A      2.940425   212A      2.974286   213A      2.989039
     214A      3.014414   215A      3.082768   216A      3.105307
     217A      3.115982   218A      3.131440   219A      3.142582
     220A      3.245361   221A      3.270203   222A      3.291727
     223A      3.305663   224A      3.325631   225A      3.364027
     226A      3.425258   227A      3.641998   228A      3.783910
     229A      3.828941   230A      4.051993   231A      4.083257
     232A      4.102809   233A      4.206001

    Final Occupation by Irrep:
              A
    DOCC [    45 ]

  @RHF Final Energy:  -536.03723467044517

   => Energetics <=

    Nuclear Repulsion Energy =            648.3467112305869477
    One-Electron Energy =               -2030.0548669535326098
    Two-Electron Energy =                 845.6709210525006029
    Total Energy =                       -536.0372346704451729

Computation Completed

Properties will be evaluated at   0.000000,   0.000000,   0.000000 [a0]

Properties computed using the SCF density matrix

  Nuclear Dipole Moment: [e a0]
     X:    -5.4556      Y:     4.9162      Z:     9.9673

  Electronic Dipole Moment: [e a0]
     X:     4.6296      Y:    -0.4451      Z:    -7.8445

  Dipole Moment: [e a0]
     X:    -0.8261      Y:     4.4711      Z:     2.1227     Total:     5.0179

  Dipole Moment: [D]
     X:    -2.0996      Y:    11.3645      Z:     5.3954     Total:    12.7542

*** tstop() called on ds3 at Tue Apr 28 03:29:12 2020
Module time:
	user time   =     141.90 seconds =       2.36 minutes
	system time =      55.32 seconds =       0.92 minutes
	total time  =        191 seconds =       3.18 minutes
Total time:
	user time   =     141.90 seconds =       2.36 minutes
	system time =      55.32 seconds =       0.92 minutes
	total time  =        191 seconds =       3.18 minutes
                                     G D M A

                                 by Anthony Stone

                           version 2.2.06, 22 June 2011

               Distributed Multipoles from Gaussian wavefunctions

Starting at 3:29:12 on 28 Apr 2020

Using SCF density matrix from file ./SSI/SSI-131ASP-182PHE-1-dimer.test.8684.fchk

                         Distributed Multipole Analysis

Standard DMA

Positions and radii in angstrom
Multipole moments in atomic units, ea_0^k for rank k

C          x =  0.336551  y = -2.644997  z =  0.965666 angstrom
           Maximum rank =  0   Radius =  0.650 angstrom
                   Q00  =  -0.155100

C          x = -1.055449  y = -2.376997  z =  1.512666 angstrom
           Maximum rank =  0   Radius =  0.650 angstrom
                   Q00  =  -0.219598

C          x =  0.449551  y = -2.631997  z = -0.550334 angstrom
           Maximum rank =  0   Radius =  0.650 angstrom
                   Q00  =   1.019953

O          x = -0.557449  y = -2.482997  z = -1.264334 angstrom
           Maximum rank =  0   Radius =  0.650 angstrom
                   Q00  =  -0.946217

O          x =  1.607551  y = -2.820997  z = -1.024334 angstrom
           Maximum rank =  0   Radius =  0.650 angstrom
                   Q00  =  -0.955339

H          x =  1.002551  y = -1.880997  z =  1.363666 angstrom
           Maximum rank =  0   Radius =  0.325 angstrom
                   Q00  =   0.030176

H          x =  0.689551  y = -3.609997  z =  1.337666 angstrom
           Maximum rank =  0   Radius =  0.325 angstrom
                   Q00  =   0.047835

H          x = -1.382449  y = -1.395997  z =  1.165666 angstrom
           Maximum rank =  0   Radius =  0.325 angstrom
                   Q00  =   0.087714

H          x = -1.014179  y = -2.413018  z =  2.611306 angstrom
           Maximum rank =  0   Radius =  0.325 angstrom
                   Q00  =   0.012847

H          x = -1.763119  y = -3.142198  z =  1.160986 angstrom
           Maximum rank =  0   Radius =  0.325 angstrom
                   Q00  =   0.080354

C          x = -1.699449  y =  2.914003  z =  1.728666 angstrom
           Maximum rank =  0   Radius =  0.650 angstrom
                   Q00  =  -0.202870

C          x =  1.025551  y =  0.842003  z =  0.055666 angstrom
           Maximum rank =  0   Radius =  0.650 angstrom
                   Q00  =  -0.030478

C          x =  0.131551  y =  1.348003  z =  1.006666 angstrom
           Maximum rank =  0   Radius =  0.650 angstrom
                   Q00  =  -0.058326

C          x =  1.068551  y =  1.403003  z = -1.197334 angstrom
           Maximum rank =  0   Radius =  0.650 angstrom
                   Q00  =  -0.076379

C          x = -0.709449  y =  2.405003  z =  0.709666 angstrom
           Maximum rank =  0   Radius =  0.650 angstrom
                   Q00  =  -0.109893

C          x =  0.215551  y =  2.444003  z = -1.508334 angstrom
           Maximum rank =  0   Radius =  0.650 angstrom
                   Q00  =  -0.068612

C          x = -0.673449  y =  2.925003  z = -0.566334 angstrom
           Maximum rank =  0   Radius =  0.650 angstrom
                   Q00  =   0.005822

H          x =  1.683551  y =  0.023003  z =  0.301666 angstrom
           Maximum rank =  0   Radius =  0.325 angstrom
                   Q00  =   0.075656

H          x =  0.101551  y =  0.902003  z =  1.990666 angstrom
           Maximum rank =  0   Radius =  0.325 angstrom
                   Q00  =   0.045405

H          x =  1.756551  y =  1.017003  z = -1.931334 angstrom
           Maximum rank =  0   Radius =  0.325 angstrom
                   Q00  =   0.069463

H          x =  0.241551  y =  2.879003  z = -2.495334 angstrom
           Maximum rank =  0   Radius =  0.325 angstrom
                   Q00  =   0.043140

H          x = -1.996449  y =  3.933003  z =  1.469666 angstrom
           Maximum rank =  0   Radius =  0.325 angstrom
                   Q00  =   0.081410

H          x = -1.211449  y =  2.948003  z =  2.703666 angstrom
           Maximum rank =  0   Radius =  0.325 angstrom
                   Q00  =   0.088357

H          x = -1.339449  y =  3.735003  z = -0.833334 angstrom
           Maximum rank =  0   Radius =  0.325 angstrom
                   Q00  =   0.029605

H          x = -2.593119  y =  2.276492  z =  1.798856 angstrom
           Maximum rank =  0   Radius =  0.325 angstrom
                   Q00  =   0.105075

Total multipoles referred to origin at
           x =   0.000000,  y =    0.000000,  z =    0.000000 angstrom
                   Q00  =  -1.000000

Finished at 3:29:13 on 28 Apr 2020

  DMA results are available in the Python driver through the
	  variable('DMA DISTRIBUTED MULTIPOLES')
  and
	  variable('DMA TOTAL MULTIPOLES')
  commands.

    Psi4 stopped on: Tuesday, 28 April 2020 03:29AM
    Psi4 wall time for execution: 0:03:11.98

*** Psi4 exiting successfully. Buy a developer a beer!
