                               Psi4 1.3.2 release

  ==> Input File <==

--------------------------------------------------------------------------
import numpy as np
set {scf_type pk
basis cc-pvdz
d_convergence 10
gdma_switch   0
gdma_limit    0
gdma_origin   [ 0.0,  0.0,  0.0 ]
}
molecule test {
    units Angstrom
    0 1
    --
    0 1
    C                0.830108021369947     1.967675063374000     0.926774061534811
    C                1.291108021369947     2.820675063374000     2.089774061534811
    H                0.448108021369947     1.019675063374000     1.300774061534811
    H                0.036108021369947     2.486675063374000     0.390774061534811
    H                1.665108021369947     1.783675063374000     0.253774061534811
    H                0.407108021369947     2.976675063374000     2.704774061534811
    H                2.091648021369947     2.353515063374000     2.682134061534811
    H                1.664478021369947     3.792175063374000     1.733634061534811
    C               -0.302891978630053    -1.113324936626000    -1.034225938465189
    C               -1.352891978630053    -1.445324936626000     0.005774061534811
    C               -0.480891978630053    -2.289324936626000    -2.066225938465189
    H                0.695108021369947    -1.122324936626000    -0.583225938465189
    H               -0.485891978630053    -0.141324936626000    -1.487225938465189
    H               -1.097891978630053    -1.046324936626000     0.982774061534811
    H               -2.336891978630053    -1.076324936626000    -0.291225938465189
    H                0.401108021369947    -2.411324936626000    -2.694225938465189
    H               -1.367891978630053    -2.214324936626001    -2.698225938465189
    H               -1.349145978630053    -2.545234936626000     0.019264061534811
    H               -0.586981978630053    -3.145264936626001    -1.383495938465189

}
e, wfn = energy('scf', return_wfn=True)
gdma(wfn)
dmavals = variable('DMA DISTRIBUTED MULTIPOLES')
charges = np.array(dmavals)
print(charges)
np.save('SSI-035LEU-061PRO-1-dimer.npy', np.array(charges))--------------------------------------------------------------------------

*** tstart() called on ds3
*** at Mon Apr 27 16:55:41 2020

   => Loading Basis Set <=

    Name: CC-PVDZ
    Role: ORBITAL
    Keyword: BASIS
    atoms 1-2, 9-11  entry C          line   138 file /theoryfs2/ds/metcalf/miniconda2/envs/tf2gpu/share/psi4/basis/cc-pvdz.gbs
    atoms 3-8, 12-19 entry H          line    22 file /theoryfs2/ds/metcalf/miniconda2/envs/tf2gpu/share/psi4/basis/cc-pvdz.gbs

         ---------------------------------------------------------
                                   SCF
               by Justin Turney, Rob Parrish, Andy Simmonett
                          and Daniel G. A. Smith
                              RHF Reference
                        1 Threads,    500 MiB Core
         ---------------------------------------------------------

  ==> Geometry <==

    Molecular point group: c1
    Full point group: C1

    Geometry (in Angstrom), charge = 0, multiplicity = 1:

       Center              X                  Y                   Z               Mass
    ------------   -----------------  -----------------  -----------------  -----------------
         C            0.830108021370     1.967675063374     0.926774061535    12.000000000000
         C            1.291108021370     2.820675063374     2.089774061535    12.000000000000
         H            0.448108021370     1.019675063374     1.300774061535     1.007825032230
         H            0.036108021370     2.486675063374     0.390774061535     1.007825032230
         H            1.665108021370     1.783675063374     0.253774061535     1.007825032230
         H            0.407108021370     2.976675063374     2.704774061535     1.007825032230
         H            2.091648021370     2.353515063374     2.682134061535     1.007825032230
         H            1.664478021370     3.792175063374     1.733634061535     1.007825032230
         C           -0.302891978630    -1.113324936626    -1.034225938465    12.000000000000
         C           -1.352891978630    -1.445324936626     0.005774061535    12.000000000000
         C           -0.480891978630    -2.289324936626    -2.066225938465    12.000000000000
         H            0.695108021370    -1.122324936626    -0.583225938465     1.007825032230
         H           -0.485891978630    -0.141324936626    -1.487225938465     1.007825032230
         H           -1.097891978630    -1.046324936626     0.982774061535     1.007825032230
         H           -2.336891978630    -1.076324936626    -0.291225938465     1.007825032230
         H            0.401108021370    -2.411324936626    -2.694225938465     1.007825032230
         H           -1.367891978630    -2.214324936626    -2.698225938465     1.007825032230
         H           -1.349145978630    -2.545234936626     0.019264061535     1.007825032230
         H           -0.586981978630    -3.145264936626    -1.383495938465     1.007825032230

  Running in c1 symmetry.

  Rotational constants: A =      0.34183  B =      0.03257  C =      0.03072 [cm^-1]
  Rotational constants: A =  10247.92184  B =    976.47137  C =    920.85537 [MHz]
  Nuclear repulsion =  175.548391263482102

  Charge       = 0
  Multiplicity = 1
  Electrons    = 44
  Nalpha       = 22
  Nbeta        = 22

  ==> Algorithm <==

  SCF Algorithm Type is PK.
  DIIS enabled.
  MOM disabled.
  Fractional occupation disabled.
  Guess Type is SAD.
  Energy threshold   = 1.00e-06
  Density threshold  = 1.00e-10
  Integral threshold = 0.00e+00

  ==> Primary Basis <==

  Basis Set: CC-PVDZ
    Blend: CC-PVDZ
    Number of shells: 72
    Number of basis function: 140
    Number of Cartesian functions: 145
    Spherical Harmonics?: true
    Max angular momentum: 2

  ==> Pre-Iterations <==

   -------------------------------------------------------
    Irrep   Nso     Nmo     Nalpha   Nbeta   Ndocc  Nsocc
   -------------------------------------------------------
     A        140     140       0       0       0       0
   -------------------------------------------------------
    Total     140     140      22      22      22       0
   -------------------------------------------------------

  ==> Integral Setup <==

  Using integral reordering PK algorithm.
  Sizing the integral batches needed.
  Building batch lookup table.
   Calculation information:
      Number of atoms:                  19
      Number of AO shells:              72
      Number of primitives:            180
      Number of atomic orbitals:       145
      Number of basis functions:       140

      Integral cutoff                 1.00e-12
      Number of threads:                 1

	Batch   1 pq = [       0,    9405] index = [             0,44231715] size =     44231715
	Batch   2 pq = [    9405,    9870] index = [      44231715,48713385] size =      4481670
  Task number: 5
  Buffer size: 11059200
  Buffer per thread: 2
  We computed 2667531 shell quartets total.
  Whereas there are 3454506 unique shell quartets.

  ==> DiskJK: Disk-Based J/K Matrices <==

    J tasked:                  Yes
    K tasked:                  Yes
    wK tasked:                  No
    Memory [MiB]:              375
    Schwarz Cutoff:          1E-12

    OpenMP threads:              1

  Minimum eigenvalue in the overlap matrix is 5.2941969125E-03.
  Using Symmetric Orthogonalization.

  SCF Guess: Superposition of Atomic Densities via on-the-fly atomic UHF.

  ==> Iterations <==

                        Total Energy        Delta E     RMS |[F,P]|

   @RHF iter SAD:  -196.42986261898753   -1.96430e+02   0.00000e+00
   @RHF iter   1:  -197.29386294379566   -8.64000e-01   3.82395e-03 DIIS
   @RHF iter   2:  -197.45387405621602   -1.60011e-01   1.66048e-03 DIIS
   @RHF iter   3:  -197.48284529821586   -2.89712e-02   3.26197e-04 DIIS
   @RHF iter   4:  -197.48503506773650   -2.18977e-03   4.74459e-05 DIIS
   @RHF iter   5:  -197.48507294217569   -3.78744e-05   1.47820e-05 DIIS
   @RHF iter   6:  -197.48507625614292   -3.31397e-06   2.66218e-06 DIIS
   @RHF iter   7:  -197.48507638229205   -1.26149e-07   4.75952e-07 DIIS
   @RHF iter   8:  -197.48507638719292   -4.90087e-09   1.07864e-07 DIIS
   @RHF iter   9:  -197.48507638744414   -2.51219e-10   3.60509e-08 DIIS
   @RHF iter  10:  -197.48507638747225   -2.81091e-11   8.62503e-09 DIIS
   @RHF iter  11:  -197.48507638747418   -1.93268e-12   1.64631e-09 DIIS
   @RHF iter  12:  -197.48507638747537   -1.19371e-12   3.44552e-10 DIIS
   @RHF iter  13:  -197.48507638747481    5.68434e-13   9.51148e-11 DIIS
  Energy and wave function converged.

  ==> Post-Iterations <==

    Orbital Energies [Eh]
    ---------------------

    Doubly Occupied:

       1A    -11.220677     2A    -11.217665     3A    -11.217459
       4A    -11.215570     5A    -11.211702     6A     -1.057707
       7A     -1.022763     8A     -0.910986     9A     -0.834968
      10A     -0.801775    11A     -0.632918    12A     -0.608810
      13A     -0.603726    14A     -0.596948    15A     -0.541115
      16A     -0.506955    17A     -0.503250    18A     -0.484843
      19A     -0.483059    20A     -0.480446    21A     -0.475683
      22A     -0.454539

    Virtual:

      23A      0.173135    24A      0.194727    25A      0.217939
      26A      0.221520    27A      0.226815    28A      0.246712
      29A      0.254803    30A      0.269773    31A      0.279615
      32A      0.285033    33A      0.291008    34A      0.301862
      35A      0.328449    36A      0.343667    37A      0.390962
      38A      0.396416    39A      0.427385    40A      0.562552
      41A      0.574055    42A      0.596631    43A      0.599985
      44A      0.614155    45A      0.626085    46A      0.645479
      47A      0.675618    48A      0.694771    49A      0.723177
      50A      0.795718    51A      0.813093    52A      0.837478
      53A      0.858062    54A      0.880987    55A      0.888751
      56A      0.892762    57A      0.896590    58A      0.904896
      59A      0.906902    60A      0.910194    61A      0.914262
      62A      0.917301    63A      0.922637    64A      0.942264
      65A      0.953955    66A      0.960393    67A      0.973798
      68A      1.010230    69A      1.092671    70A      1.121597
      71A      1.139482    72A      1.142911    73A      1.192784
      74A      1.256721    75A      1.386103    76A      1.424650
      77A      1.468769    78A      1.475021    79A      1.485385
      80A      1.588425    81A      1.596232    82A      1.627721
      83A      1.642245    84A      1.678760    85A      1.692951
      86A      1.742723    87A      1.758253    88A      1.792753
      89A      1.847379    90A      1.858780    91A      1.868307
      92A      1.878381    93A      1.890381    94A      1.908236
      95A      1.916259    96A      1.933196    97A      1.937627
      98A      1.944868    99A      1.952759   100A      1.958290
     101A      1.982637   102A      1.993790   103A      1.997593
     104A      2.014081   105A      2.019730   106A      2.071242
     107A      2.095457   108A      2.114282   109A      2.125533
     110A      2.133480   111A      2.159449   112A      2.245989
     113A      2.300356   114A      2.310959   115A      2.335333
     116A      2.364900   117A      2.425494   118A      2.437519
     119A      2.457708   120A      2.474194   121A      2.510598
     122A      2.545953   123A      2.554413   124A      2.587932
     125A      2.638437   126A      2.671968   127A      2.756717
     128A      2.766830   129A      2.772908   130A      2.795361
     131A      2.797661   132A      2.837661   133A      2.850768
     134A      2.860212   135A      2.879002   136A      2.932381
     137A      2.939461   138A      2.948841   139A      2.969103
     140A      3.039094

    Final Occupation by Irrep:
              A
    DOCC [    22 ]

  @RHF Final Energy:  -197.48507638747481

   => Energetics <=

    Nuclear Repulsion Energy =            175.5483912634821024
    One-Electron Energy =                -611.8998104709924064
    Two-Electron Energy =                 238.8663428200354701
    Total Energy =                       -197.4850763874748054

Computation Completed

Properties will be evaluated at   0.000000,   0.000000,   0.000000 [a0]

Properties computed using the SCF density matrix

  Nuclear Dipole Moment: [e a0]
     X:     0.1726      Y:     0.6655      Z:     0.8721

  Electronic Dipole Moment: [e a0]
     X:    -0.1631      Y:    -0.6315      Z:    -0.8775

  Dipole Moment: [e a0]
     X:     0.0095      Y:     0.0340      Z:    -0.0054     Total:     0.0357

  Dipole Moment: [D]
     X:     0.0241      Y:     0.0865      Z:    -0.0136     Total:     0.0908

*** tstop() called on ds3 at Mon Apr 27 16:56:01 2020
Module time:
	user time   =      14.21 seconds =       0.24 minutes
	system time =       6.18 seconds =       0.10 minutes
	total time  =         20 seconds =       0.33 minutes
Total time:
	user time   =      14.21 seconds =       0.24 minutes
	system time =       6.18 seconds =       0.10 minutes
	total time  =         20 seconds =       0.33 minutes
                                     G D M A

                                 by Anthony Stone

                           version 2.2.06, 22 June 2011

               Distributed Multipoles from Gaussian wavefunctions

Starting at 16:56:1 on 27 Apr 2020

Using SCF density matrix from file ./SSI/SSI-035LEU-061PRO-1-dimer.test.28541.fchk

                         Distributed Multipole Analysis

Standard DMA

Positions and radii in angstrom
Multipole moments in atomic units, ea_0^k for rank k

C          x =  0.830108  y =  1.967675  z =  0.926774 angstrom
           Maximum rank =  0   Radius =  0.650 angstrom
                   Q00  =  -0.233696

C          x =  1.291108  y =  2.820675  z =  2.089774 angstrom
           Maximum rank =  0   Radius =  0.650 angstrom
                   Q00  =  -0.232400

H          x =  0.448108  y =  1.019675  z =  1.300774 angstrom
           Maximum rank =  0   Radius =  0.325 angstrom
                   Q00  =   0.078682

H          x =  0.036108  y =  2.486675  z =  0.390774 angstrom
           Maximum rank =  0   Radius =  0.325 angstrom
                   Q00  =   0.079091

H          x =  1.665108  y =  1.783675  z =  0.253774 angstrom
           Maximum rank =  0   Radius =  0.325 angstrom
                   Q00  =   0.076684

H          x =  0.407108  y =  2.976675  z =  2.704774 angstrom
           Maximum rank =  0   Radius =  0.325 angstrom
                   Q00  =   0.074711

H          x =  2.091648  y =  2.353515  z =  2.682134 angstrom
           Maximum rank =  0   Radius =  0.325 angstrom
                   Q00  =   0.079709

H          x =  1.664478  y =  3.792175  z =  1.733634 angstrom
           Maximum rank =  0   Radius =  0.325 angstrom
                   Q00  =   0.076591

C          x = -0.302892  y = -1.113325  z = -1.034226 angstrom
           Maximum rank =  0   Radius =  0.650 angstrom
                   Q00  =  -0.098903

C          x = -1.352892  y = -1.445325  z =  0.005774 angstrom
           Maximum rank =  0   Radius =  0.650 angstrom
                   Q00  =  -0.222633

C          x = -0.480892  y = -2.289325  z = -2.066226 angstrom
           Maximum rank =  0   Radius =  0.650 angstrom
                   Q00  =  -0.240921

H          x =  0.695108  y = -1.122325  z = -0.583226 angstrom
           Maximum rank =  0   Radius =  0.325 angstrom
                   Q00  =   0.059341

H          x = -0.485892  y = -0.141325  z = -1.487226 angstrom
           Maximum rank =  0   Radius =  0.325 angstrom
                   Q00  =   0.061809

H          x = -1.097892  y = -1.046325  z =  0.982774 angstrom
           Maximum rank =  0   Radius =  0.325 angstrom
                   Q00  =   0.079274

H          x = -2.336892  y = -1.076325  z = -0.291226 angstrom
           Maximum rank =  0   Radius =  0.325 angstrom
                   Q00  =   0.080047

H          x =  0.401108  y = -2.411325  z = -2.694226 angstrom
           Maximum rank =  0   Radius =  0.325 angstrom
                   Q00  =   0.085121

H          x = -1.367892  y = -2.214325  z = -2.698226 angstrom
           Maximum rank =  0   Radius =  0.325 angstrom
                   Q00  =   0.087840

H          x = -1.349146  y = -2.545235  z =  0.019264 angstrom
           Maximum rank =  0   Radius =  0.325 angstrom
                   Q00  =   0.057372

H          x = -0.586982  y = -3.145265  z = -1.383496 angstrom
           Maximum rank =  0   Radius =  0.325 angstrom
                   Q00  =   0.052281

Total multipoles referred to origin at
           x =   0.000000,  y =    0.000000,  z =    0.000000 angstrom
                   Q00  =  -0.000000

Finished at 16:56:1 on 27 Apr 2020

  DMA results are available in the Python driver through the
	  variable('DMA DISTRIBUTED MULTIPOLES')
  and
	  variable('DMA TOTAL MULTIPOLES')
  commands.

    Psi4 stopped on: Monday, 27 April 2020 04:56PM
    Psi4 wall time for execution: 0:00:20.46

*** Psi4 exiting successfully. Buy a developer a beer!
