                               Psi4 1.3.2 release

  ==> Input File <==

--------------------------------------------------------------------------
import numpy as np
set {scf_type pk
basis cc-pvdz
d_convergence 10
gdma_switch   0
gdma_limit    0
gdma_origin   [ 0.0,  0.0,  0.0 ]
}
molecule test {
    units Angstrom
    -1 1
    --
    -1 1
    C                1.433911634898886     0.805288303296859    -3.847432034866263
    C               -0.292088365101114    -0.248711696703141    -2.269432034866262
    C                0.321911634898886     0.537288303296859    -0.261432034866263
    C                0.800911634898886     0.525288303296859    -2.515432034866262
    C                1.215911634898886     1.046288303296859    -1.242432034866263
    C                0.443911634898886     0.842288303296859     1.089567965133737
    C                1.482911634898886     1.677288303296859     1.472567965133737
    C                2.255911634898886     1.891288303296859    -0.829432034866263
    C                2.379911634898886     2.199288303296859     0.525567965133737
    N               -0.583088365101114    -0.249711696703141    -0.924432034866263
    H               -1.314088365101114    -0.812711696703141    -0.479432034866263
    H               -0.846088365101114    -0.789711696703141    -3.026432034866263
    H               -0.256088365101114     0.436288303296859     1.805567965133737
    H                1.351911634898886    -0.089711696703141    -4.464432034866262
    H                2.492911634898886     1.004288303296859    -3.693432034866263
    H                1.612911634898886     1.934288303296859     2.512567965133737
    H                2.951911634898886     2.287288303296859    -1.554432034866263
    H                3.178911634898886     2.851288303296859     0.849567965133737
    H                0.966631634898886     1.647108303296859    -4.379412034866263
    C               -1.077088365101114    -2.961711696703141     2.343567965133737
    C               -2.138088365101114    -1.921711696703141     2.011567965133737
    O               -2.413088365101114    -1.691711696703141     0.812567965133737
    O               -2.686088365101114    -1.312711696703141     2.961567965133737
    H               -1.144088365101114    -3.201711696703140     3.405567965133737
    H               -0.094088365101114    -2.523711696703141     2.157567965133737
    H               -1.171638365101114    -3.887861696703141     1.757647965133737

}
e, wfn = energy('scf', return_wfn=True)
gdma(wfn)
dmavals = variable('DMA DISTRIBUTED MULTIPOLES')
charges = np.array(dmavals)
print(charges)
np.save('SSI-025TRP-152GLU-1-dimer.npy', np.array(charges))--------------------------------------------------------------------------

*** tstart() called on ds3
*** at Mon Apr 27 07:29:24 2020

   => Loading Basis Set <=

    Name: CC-PVDZ
    Role: ORBITAL
    Keyword: BASIS
    atoms 1-9, 20-21   entry C          line   138 file /theoryfs2/ds/metcalf/miniconda2/envs/tf2gpu/share/psi4/basis/cc-pvdz.gbs
    atoms 10           entry N          line   168 file /theoryfs2/ds/metcalf/miniconda2/envs/tf2gpu/share/psi4/basis/cc-pvdz.gbs
    atoms 11-19, 24-26 entry H          line    22 file /theoryfs2/ds/metcalf/miniconda2/envs/tf2gpu/share/psi4/basis/cc-pvdz.gbs
    atoms 22-23        entry O          line   198 file /theoryfs2/ds/metcalf/miniconda2/envs/tf2gpu/share/psi4/basis/cc-pvdz.gbs

         ---------------------------------------------------------
                                   SCF
               by Justin Turney, Rob Parrish, Andy Simmonett
                          and Daniel G. A. Smith
                              RHF Reference
                        1 Threads,    500 MiB Core
         ---------------------------------------------------------

  ==> Geometry <==

    Molecular point group: c1
    Full point group: C1

    Geometry (in Angstrom), charge = -1, multiplicity = 1:

       Center              X                  Y                   Z               Mass
    ------------   -----------------  -----------------  -----------------  -----------------
         C            1.433911634899     0.805288303297    -3.847432034866    12.000000000000
         C           -0.292088365101    -0.248711696703    -2.269432034866    12.000000000000
         C            0.321911634899     0.537288303297    -0.261432034866    12.000000000000
         C            0.800911634899     0.525288303297    -2.515432034866    12.000000000000
         C            1.215911634899     1.046288303297    -1.242432034866    12.000000000000
         C            0.443911634899     0.842288303297     1.089567965134    12.000000000000
         C            1.482911634899     1.677288303297     1.472567965134    12.000000000000
         C            2.255911634899     1.891288303297    -0.829432034866    12.000000000000
         C            2.379911634899     2.199288303297     0.525567965134    12.000000000000
         N           -0.583088365101    -0.249711696703    -0.924432034866    14.003074004430
         H           -1.314088365101    -0.812711696703    -0.479432034866     1.007825032230
         H           -0.846088365101    -0.789711696703    -3.026432034866     1.007825032230
         H           -0.256088365101     0.436288303297     1.805567965134     1.007825032230
         H            1.351911634899    -0.089711696703    -4.464432034866     1.007825032230
         H            2.492911634899     1.004288303297    -3.693432034866     1.007825032230
         H            1.612911634899     1.934288303297     2.512567965134     1.007825032230
         H            2.951911634899     2.287288303297    -1.554432034866     1.007825032230
         H            3.178911634899     2.851288303297     0.849567965134     1.007825032230
         H            0.966631634899     1.647108303297    -4.379412034866     1.007825032230
         C           -1.077088365101    -2.961711696703     2.343567965134    12.000000000000
         C           -2.138088365101    -1.921711696703     2.011567965134    12.000000000000
         O           -2.413088365101    -1.691711696703     0.812567965134    15.994914619570
         O           -2.686088365101    -1.312711696703     2.961567965134    15.994914619570
         H           -1.144088365101    -3.201711696703     3.405567965134     1.007825032230
         H           -0.094088365101    -2.523711696703     2.157567965134     1.007825032230
         H           -1.171638365101    -3.887861696703     1.757647965134     1.007825032230

  Running in c1 symmetry.

  Rotational constants: A =      0.03617  B =      0.01271  C =      0.01003 [cm^-1]
  Rotational constants: A =   1084.48077  B =    380.98064  C =    300.62417 [MHz]
  Nuclear repulsion =  817.971112959937500

  Charge       = -1
  Multiplicity = 1
  Electrons    = 102
  Nalpha       = 51
  Nbeta        = 51

  ==> Algorithm <==

  SCF Algorithm Type is PK.
  DIIS enabled.
  MOM disabled.
  Fractional occupation disabled.
  Guess Type is SAD.
  Energy threshold   = 1.00e-06
  Density threshold  = 1.00e-10
  Integral threshold = 0.00e+00

  ==> Primary Basis <==

  Basis Set: CC-PVDZ
    Blend: CC-PVDZ
    Number of shells: 120
    Number of basis function: 256
    Number of Cartesian functions: 270
    Spherical Harmonics?: true
    Max angular momentum: 2

  ==> Pre-Iterations <==

   -------------------------------------------------------
    Irrep   Nso     Nmo     Nalpha   Nbeta   Ndocc  Nsocc
   -------------------------------------------------------
     A        256     256       0       0       0       0
   -------------------------------------------------------
    Total     256     256      51      51      51       0
   -------------------------------------------------------

  ==> Integral Setup <==

  Using integral reordering PK algorithm.
  Sizing the integral batches needed.
  Building batch lookup table.
   Calculation information:
      Number of atoms:                  26
      Number of AO shells:             120
      Number of primitives:            368
      Number of atomic orbitals:       270
      Number of basis functions:       256

      Integral cutoff                 1.00e-12
      Number of threads:                 1

	Batch   1 pq = [       0,    9405] index = [             0,44231715] size =     44231715
	Batch   2 pq = [    9405,   13301] index = [      44231715,88464951] size =     44233236
	Batch   3 pq = [   13301,   16290] index = [      88464951,132690195] size =     44225244
	Batch   4 pq = [   16290,   18810] index = [     132690195,176917455] size =     44227260
	Batch   5 pq = [   18810,   21030] index = [     176917455,221140965] size =     44223510
	Batch   6 pq = [   21030,   23037] index = [     221140965,265363203] size =     44222238
	Batch   7 pq = [   23037,   24883] index = [     265363203,309594286] size =     44231083
	Batch   8 pq = [   24883,   26601] index = [     309594286,353819901] size =     44225615
	Batch   9 pq = [   26601,   28214] index = [     353819901,398029005] size =     44209104
	Batch  10 pq = [   28214,   29740] index = [     398029005,442248670] size =     44219665
	Batch  11 pq = [   29740,   31191] index = [     442248670,486454836] size =     44206166
	Batch  12 pq = [   31191,   32578] index = [     486454836,530679331] size =     44224495
	Batch  13 pq = [   32578,   32896] index = [     530679331,541089856] size =     10410525
  Task number: 49
  Buffer size: 11059200
  Buffer per thread: 2
  We computed 23914902 shell quartets total.
  Whereas there are 26357430 unique shell quartets.

  ==> DiskJK: Disk-Based J/K Matrices <==

    J tasked:                  Yes
    K tasked:                  Yes
    wK tasked:                  No
    Memory [MiB]:              375
    Schwarz Cutoff:          1E-12

    OpenMP threads:              1

  Minimum eigenvalue in the overlap matrix is 2.3685977900E-04.
  Using Symmetric Orthogonalization.

  SCF Guess: Superposition of Atomic Densities via on-the-fly atomic UHF.

  ==> Iterations <==

                        Total Energy        Delta E     RMS |[F,P]|

   @RHF iter SAD:  -626.53584894932021   -6.26536e+02   0.00000e+00
   @RHF iter   1:  -627.44509057728783   -9.09242e-01   3.16243e-03 DIIS
   @RHF iter   2:  -627.73073171192368   -2.85641e-01   1.68401e-03 DIIS
   @RHF iter   3:  -627.80324698917775   -7.25153e-02   3.17832e-04 DIIS
   @RHF iter   4:  -627.80746452348274   -4.21753e-03   1.20895e-04 DIIS
   @RHF iter   5:  -627.80805313596329   -5.88612e-04   2.29287e-05 DIIS
   @RHF iter   6:  -627.80807966865962   -2.65327e-05   1.14488e-05 DIIS
   @RHF iter   7:  -627.80808597762473   -6.30897e-06   2.72720e-06 DIIS
   @RHF iter   8:  -627.80808687219746   -8.94573e-07   1.08111e-06 DIIS
   @RHF iter   9:  -627.80808701172464   -1.39527e-07   4.40465e-07 DIIS
   @RHF iter  10:  -627.80808703062155   -1.88969e-08   1.38341e-07 DIIS
   @RHF iter  11:  -627.80808703327625   -2.65470e-09   6.09857e-08 DIIS
   @RHF iter  12:  -627.80808703382115   -5.44901e-10   3.45174e-08 DIIS
   @RHF iter  13:  -627.80808703401158   -1.90425e-10   1.52420e-08 DIIS
   @RHF iter  14:  -627.80808703405535   -4.37694e-11   5.17557e-09 DIIS
   @RHF iter  15:  -627.80808703406422   -8.86757e-12   1.59715e-09 DIIS
   @RHF iter  16:  -627.80808703405955    4.66116e-12   7.46368e-10 DIIS
   @RHF iter  17:  -627.80808703405887    6.82121e-13   3.33387e-10 DIIS
   @RHF iter  18:  -627.80808703406069   -1.81899e-12   1.14349e-10 DIIS
   @RHF iter  19:  -627.80808703406319   -2.50111e-12   4.64408e-11 DIIS
  Energy and wave function converged.

  ==> Post-Iterations <==

    Orbital Energies [Eh]
    ---------------------

    Doubly Occupied:

       1A    -20.293168     2A    -20.285380     3A    -15.466624
       4A    -11.154083     5A    -11.147217     6A    -11.144665
       7A    -11.138884     8A    -11.128445     9A    -11.122315
      10A    -11.120863    11A    -11.116212    12A    -11.113004
      13A    -11.108615    14A    -11.068272    15A     -1.178561
      16A     -1.169647    17A     -1.064507    18A     -1.017923
      19A     -0.964563    20A     -0.890082    21A     -0.878431
      22A     -0.827325    23A     -0.815621    24A     -0.728496
      25A     -0.692257    26A     -0.642265    27A     -0.600846
      28A     -0.551987    29A     -0.536779    30A     -0.526923
      31A     -0.495417    32A     -0.488651    33A     -0.478367
      34A     -0.464567    35A     -0.447205    36A     -0.440534
      37A     -0.431562    38A     -0.428120    39A     -0.425254
      40A     -0.423029    41A     -0.391871    42A     -0.367614
      43A     -0.361253    44A     -0.351376    45A     -0.329212
      46A     -0.264559    47A     -0.213079    48A     -0.200061
      49A     -0.191634    50A     -0.183651    51A     -0.165310

    Virtual:

      52A      0.232114    53A      0.273358    54A      0.276626
      55A      0.298230    56A      0.312760    57A      0.318383
      58A      0.335791    59A      0.339272    60A      0.349942
      61A      0.376921    62A      0.383735    63A      0.389303
      64A      0.403362    65A      0.412651    66A      0.443394
      67A      0.466142    68A      0.474995    69A      0.493841
      70A      0.526186    71A      0.538122    72A      0.554018
      73A      0.555192    74A      0.573810    75A      0.592633
      76A      0.615872    77A      0.627037    78A      0.697412
      79A      0.701202    80A      0.716476    81A      0.730960
      82A      0.745248    83A      0.752973    84A      0.775734
      85A      0.792106    86A      0.797688    87A      0.810575
      88A      0.822152    89A      0.830737    90A      0.833088
      91A      0.841235    92A      0.846827    93A      0.850504
      94A      0.862799    95A      0.867417    96A      0.877615
      97A      0.889789    98A      0.898728    99A      0.908810
     100A      0.937630   101A      0.949707   102A      0.955785
     103A      0.961945   104A      0.966592   105A      0.978913
     106A      0.993164   107A      1.001778   108A      1.007284
     109A      1.011642   110A      1.019679   111A      1.029240
     112A      1.038530   113A      1.040158   114A      1.070509
     115A      1.077873   116A      1.080169   117A      1.095896
     118A      1.103318   119A      1.121648   120A      1.158287
     121A      1.169822   122A      1.184295   123A      1.201258
     124A      1.224755   125A      1.236994   126A      1.244934
     127A      1.258999   128A      1.279374   129A      1.300621
     130A      1.316643   131A      1.320871   132A      1.332040
     133A      1.332680   134A      1.340038   135A      1.350724
     136A      1.366033   137A      1.384114   138A      1.393308
     139A      1.416489   140A      1.426447   141A      1.439495
     142A      1.450234   143A      1.471128   144A      1.483247
     145A      1.515171   146A      1.543830   147A      1.547072
     148A      1.556455   149A      1.589875   150A      1.602479
     151A      1.642403   152A      1.652042   153A      1.669933
     154A      1.681509   155A      1.686740   156A      1.716145
     157A      1.726688   158A      1.747230   159A      1.751937
     160A      1.777604   161A      1.789305   162A      1.810078
     163A      1.822894   164A      1.829155   165A      1.857632
     166A      1.873350   167A      1.891141   168A      1.908959
     169A      1.926792   170A      1.929588   171A      1.947336
     172A      1.990504   173A      1.996697   174A      2.001684
     175A      2.011705   176A      2.013531   177A      2.031472
     178A      2.037513   179A      2.050129   180A      2.054135
     181A      2.061785   182A      2.079857   183A      2.083242
     184A      2.105624   185A      2.112591   186A      2.125669
     187A      2.132493   188A      2.146770   189A      2.177181
     190A      2.186834   191A      2.193284   192A      2.204797
     193A      2.211519   194A      2.219448   195A      2.228060
     196A      2.248791   197A      2.260143   198A      2.269547
     199A      2.279360   200A      2.292843   201A      2.348618
     202A      2.370199   203A      2.378162   204A      2.402674
     205A      2.412625   206A      2.416236   207A      2.428717
     208A      2.444740   209A      2.456125   210A      2.487548
     211A      2.499701   212A      2.515971   213A      2.550883
     214A      2.559070   215A      2.572571   216A      2.646398
     217A      2.672662   218A      2.701954   219A      2.707401
     220A      2.736039   221A      2.746579   222A      2.763239
     223A      2.787163   224A      2.814940   225A      2.833338
     226A      2.860178   227A      2.869962   228A      2.902387
     229A      2.908780   230A      2.916904   231A      2.936146
     232A      2.944491   233A      2.954112   234A      2.972413
     235A      2.983185   236A      3.029108   237A      3.089935
     238A      3.124950   239A      3.162368   240A      3.182407
     241A      3.214885   242A      3.231060   243A      3.261696
     244A      3.269607   245A      3.317537   246A      3.337184
     247A      3.409520   248A      3.505390   249A      3.606627
     250A      3.752775   251A      3.797113   252A      3.877773
     253A      4.039106   254A      4.057493   255A      4.081665
     256A      4.164279

    Final Occupation by Irrep:
              A
    DOCC [    51 ]

  @RHF Final Energy:  -627.80808703406319

   => Energetics <=

    Nuclear Repulsion Energy =            817.9711129599374999
    One-Electron Energy =               -2493.4858268253392453
    Two-Electron Energy =                1047.7066268313385535
    Total Energy =                       -627.8080870340631918

Computation Completed

Properties will be evaluated at   0.000000,   0.000000,   0.000000 [a0]

Properties computed using the SCF density matrix

  Nuclear Dipole Moment: [e a0]
     X:     7.2230      Y:    -1.0870      Z:    -4.7688

  Electronic Dipole Moment: [e a0]
     X:    -3.8709      Y:     2.4348      Z:     1.9320

  Dipole Moment: [e a0]
     X:     3.3521      Y:     1.3478      Z:    -2.8368     Total:     4.5935

  Dipole Moment: [D]
     X:     8.5201      Y:     3.4258      Z:    -7.2104     Total:    11.6756

*** tstop() called on ds3 at Mon Apr 27 07:34:38 2020
Module time:
	user time   =     223.13 seconds =       3.72 minutes
	system time =      91.71 seconds =       1.53 minutes
	total time  =        314 seconds =       5.23 minutes
Total time:
	user time   =     223.13 seconds =       3.72 minutes
	system time =      91.71 seconds =       1.53 minutes
	total time  =        314 seconds =       5.23 minutes
                                     G D M A

                                 by Anthony Stone

                           version 2.2.06, 22 June 2011

               Distributed Multipoles from Gaussian wavefunctions

Starting at 7:34:38 on 27 Apr 2020

Using SCF density matrix from file ./SSI/SSI-025TRP-152GLU-1-dimer.test.17381.fchk

                         Distributed Multipole Analysis

Standard DMA

Positions and radii in angstrom
Multipole moments in atomic units, ea_0^k for rank k

C          x =  1.433912  y =  0.805288  z = -3.847432 angstrom
           Maximum rank =  0   Radius =  0.650 angstrom
                   Q00  =  -0.208690

C          x = -0.292088  y = -0.248712  z = -2.269432 angstrom
           Maximum rank =  0   Radius =  0.650 angstrom
                   Q00  =   0.152139

C          x =  0.321912  y =  0.537288  z = -0.261432 angstrom
           Maximum rank =  0   Radius =  0.650 angstrom
                   Q00  =   0.326294

C          x =  0.800912  y =  0.525288  z = -2.515432 angstrom
           Maximum rank =  0   Radius =  0.650 angstrom
                   Q00  =  -0.183442

C          x =  1.215912  y =  1.046288  z = -1.242432 angstrom
           Maximum rank =  0   Radius =  0.650 angstrom
                   Q00  =  -0.086174

C          x =  0.443912  y =  0.842288  z =  1.089568 angstrom
           Maximum rank =  0   Radius =  0.650 angstrom
                   Q00  =  -0.098519

C          x =  1.482912  y =  1.677288  z =  1.472568 angstrom
           Maximum rank =  0   Radius =  0.650 angstrom
                   Q00  =  -0.098419

C          x =  2.255912  y =  1.891288  z = -0.829432 angstrom
           Maximum rank =  0   Radius =  0.650 angstrom
                   Q00  =  -0.109868

C          x =  2.379912  y =  2.199288  z =  0.525568 angstrom
           Maximum rank =  0   Radius =  0.650 angstrom
                   Q00  =  -0.077644

N          x = -0.583088  y = -0.249712  z = -0.924432 angstrom
           Maximum rank =  0   Radius =  0.650 angstrom
                   Q00  =  -0.504315

H          x = -1.314088  y = -0.812712  z = -0.479432 angstrom
           Maximum rank =  0   Radius =  0.325 angstrom
                   Q00  =   0.290475

H          x = -0.846088  y = -0.789712  z = -3.026432 angstrom
           Maximum rank =  0   Radius =  0.325 angstrom
                   Q00  =   0.078731

H          x = -0.256088  y =  0.436288  z =  1.805568 angstrom
           Maximum rank =  0   Radius =  0.325 angstrom
                   Q00  =   0.097084

H          x =  1.351912  y = -0.089712  z = -4.464432 angstrom
           Maximum rank =  0   Radius =  0.325 angstrom
                   Q00  =   0.089133

H          x =  2.492912  y =  1.004288  z = -3.693432 angstrom
           Maximum rank =  0   Radius =  0.325 angstrom
                   Q00  =   0.091647

H          x =  1.612912  y =  1.934288  z =  2.512568 angstrom
           Maximum rank =  0   Radius =  0.325 angstrom
                   Q00  =   0.045497

H          x =  2.951912  y =  2.287288  z = -1.554432 angstrom
           Maximum rank =  0   Radius =  0.325 angstrom
                   Q00  =   0.044085

H          x =  3.178912  y =  2.851288  z =  0.849568 angstrom
           Maximum rank =  0   Radius =  0.325 angstrom
                   Q00  =   0.032445

H          x =  0.966632  y =  1.647108  z = -4.379412 angstrom
           Maximum rank =  0   Radius =  0.325 angstrom
                   Q00  =   0.082540

C          x = -1.077088  y = -2.961712  z =  2.343568 angstrom
           Maximum rank =  0   Radius =  0.650 angstrom
                   Q00  =  -0.278243

C          x = -2.138088  y = -1.921712  z =  2.011568 angstrom
           Maximum rank =  0   Radius =  0.650 angstrom
                   Q00  =   0.948698

O          x = -2.413088  y = -1.691712  z =  0.812568 angstrom
           Maximum rank =  0   Radius =  0.650 angstrom
                   Q00  =  -0.938582

O          x = -2.686088  y = -1.312712  z =  2.961568 angstrom
           Maximum rank =  0   Radius =  0.650 angstrom
                   Q00  =  -0.905968

H          x = -1.144088  y = -3.201712  z =  3.405568 angstrom
           Maximum rank =  0   Radius =  0.325 angstrom
                   Q00  =   0.062319

H          x = -0.094088  y = -2.523712  z =  2.157568 angstrom
           Maximum rank =  0   Radius =  0.325 angstrom
                   Q00  =   0.084569

H          x = -1.171638  y = -3.887862  z =  1.757648 angstrom
           Maximum rank =  0   Radius =  0.325 angstrom
                   Q00  =   0.064209

Total multipoles referred to origin at
           x =   0.000000,  y =    0.000000,  z =    0.000000 angstrom
                   Q00  =  -1.000000

Finished at 7:34:38 on 27 Apr 2020

  DMA results are available in the Python driver through the
	  variable('DMA DISTRIBUTED MULTIPOLES')
  and
	  variable('DMA TOTAL MULTIPOLES')
  commands.

    Psi4 stopped on: Monday, 27 April 2020 07:34AM
    Psi4 wall time for execution: 0:05:14.07

*** Psi4 exiting successfully. Buy a developer a beer!
