                               Psi4 1.3.2 release

  ==> Input File <==

--------------------------------------------------------------------------
import numpy as np
set {scf_type pk
basis cc-pvdz
d_convergence 10
gdma_switch   0
gdma_limit    0
gdma_origin   [ 0.0,  0.0,  0.0 ]
}
molecule test {
    units Angstrom
    1 1
    --
    1 1
    C                1.244253001982105    -3.512545859614091     0.770057124648801
    C                1.523253001982105    -2.825545859614091    -0.567942875351199
    N                1.490253001982105    -4.976545859614092     0.758057124648801
    H                1.898253001982105    -3.050545859614092     1.516057124648801
    H                0.207253001982105    -3.306545859614092     1.054057124648801
    H                2.511253001982105    -3.117545859614092    -0.914942875351199
    H                1.531253001982105    -1.748545859614092    -0.403942875351199
    H                2.454253001982105    -5.163545859614091     0.490057124648801
    H                1.356253001982105    -5.376545859614091     1.686057124648801
    H                0.829253001982105    -5.449545859614092     0.151057124648801
    H                0.768512001982105    -3.056285859614092    -1.334184875351199
    C               -0.517746998017895     4.275454140385907    -1.420942875351199
    C               -0.642746998017895     0.397454140385908     0.453057124648801
    C               -0.840746998017895     1.544454140385908     1.208057124648801
    C               -0.427746998017895     0.490454140385908    -0.915942875351199
    C               -0.832746998017895     2.784454140385908     0.590057124648801
    C               -0.382746998017895     1.739454140385908    -1.532942875351199
    C               -0.577746998017895     2.904454140385909    -0.779942875351199
    O               -0.658746998017895    -0.828545859614092     1.049057124648801
    H               -0.543746998017895    -0.750545859614092     2.010057124648801
    H               -1.014746998017895     1.470454140385908     2.273057124648801
    H               -0.310746998017895    -0.404545859614092    -1.493942875351199
    H               -1.009746998017895     3.670454140385908     1.184057124648801
    H               -0.179746998017895     1.785454140385908    -2.591942875351199
    H                0.502253001982105     4.640454140385908    -1.300942875351199
    H               -1.157746998017895     4.951454140385907    -0.864942875351199
    H               -0.772220998017895     4.350934140385909    -2.488442875351199

}
e, wfn = energy('scf', return_wfn=True)
gdma(wfn)
dmavals = variable('DMA DISTRIBUTED MULTIPOLES')
charges = np.array(dmavals)
print(charges)
np.save('SSI-034LYS-086TYR-2-dimer.npy', np.array(charges))--------------------------------------------------------------------------

*** tstart() called on ds3
*** at Mon Apr 27 07:20:33 2020

   => Loading Basis Set <=

    Name: CC-PVDZ
    Role: ORBITAL
    Keyword: BASIS
    atoms 1-2, 12-18  entry C          line   138 file /theoryfs2/ds/metcalf/miniconda2/envs/tf2gpu/share/psi4/basis/cc-pvdz.gbs
    atoms 3           entry N          line   168 file /theoryfs2/ds/metcalf/miniconda2/envs/tf2gpu/share/psi4/basis/cc-pvdz.gbs
    atoms 4-11, 20-27 entry H          line    22 file /theoryfs2/ds/metcalf/miniconda2/envs/tf2gpu/share/psi4/basis/cc-pvdz.gbs
    atoms 19          entry O          line   198 file /theoryfs2/ds/metcalf/miniconda2/envs/tf2gpu/share/psi4/basis/cc-pvdz.gbs

         ---------------------------------------------------------
                                   SCF
               by Justin Turney, Rob Parrish, Andy Simmonett
                          and Daniel G. A. Smith
                              RHF Reference
                        1 Threads,    500 MiB Core
         ---------------------------------------------------------

  ==> Geometry <==

    Molecular point group: c1
    Full point group: C1

    Geometry (in Angstrom), charge = 1, multiplicity = 1:

       Center              X                  Y                   Z               Mass
    ------------   -----------------  -----------------  -----------------  -----------------
         C            1.244253001982    -3.512545859614     0.770057124649    12.000000000000
         C            1.523253001982    -2.825545859614    -0.567942875351    12.000000000000
         N            1.490253001982    -4.976545859614     0.758057124649    14.003074004430
         H            1.898253001982    -3.050545859614     1.516057124649     1.007825032230
         H            0.207253001982    -3.306545859614     1.054057124649     1.007825032230
         H            2.511253001982    -3.117545859614    -0.914942875351     1.007825032230
         H            1.531253001982    -1.748545859614    -0.403942875351     1.007825032230
         H            2.454253001982    -5.163545859614     0.490057124649     1.007825032230
         H            1.356253001982    -5.376545859614     1.686057124649     1.007825032230
         H            0.829253001982    -5.449545859614     0.151057124649     1.007825032230
         H            0.768512001982    -3.056285859614    -1.334184875351     1.007825032230
         C           -0.517746998018     4.275454140386    -1.420942875351    12.000000000000
         C           -0.642746998018     0.397454140386     0.453057124649    12.000000000000
         C           -0.840746998018     1.544454140386     1.208057124649    12.000000000000
         C           -0.427746998018     0.490454140386    -0.915942875351    12.000000000000
         C           -0.832746998018     2.784454140386     0.590057124649    12.000000000000
         C           -0.382746998018     1.739454140386    -1.532942875351    12.000000000000
         C           -0.577746998018     2.904454140386    -0.779942875351    12.000000000000
         O           -0.658746998018    -0.828545859614     1.049057124649    15.994914619570
         H           -0.543746998018    -0.750545859614     2.010057124649     1.007825032230
         H           -1.014746998018     1.470454140386     2.273057124649     1.007825032230
         H           -0.310746998018    -0.404545859614    -1.493942875351     1.007825032230
         H           -1.009746998018     3.670454140386     1.184057124649     1.007825032230
         H           -0.179746998018     1.785454140386    -2.591942875351     1.007825032230
         H            0.502253001982     4.640454140386    -1.300942875351     1.007825032230
         H           -1.157746998018     4.951454140386    -0.864942875351     1.007825032230
         H           -0.772220998018     4.350934140386    -2.488442875351     1.007825032230

  Running in c1 symmetry.

  Rotational constants: A =      0.09482  B =      0.01157  C =      0.01062 [cm^-1]
  Rotational constants: A =   2842.53522  B =    346.92813  C =    318.40758 [MHz]
  Nuclear repulsion =  582.264290793212012

  Charge       = 1
  Multiplicity = 1
  Electrons    = 84
  Nalpha       = 42
  Nbeta        = 42

  ==> Algorithm <==

  SCF Algorithm Type is PK.
  DIIS enabled.
  MOM disabled.
  Fractional occupation disabled.
  Guess Type is SAD.
  Energy threshold   = 1.00e-06
  Density threshold  = 1.00e-10
  Integral threshold = 0.00e+00

  ==> Primary Basis <==

  Basis Set: CC-PVDZ
    Blend: CC-PVDZ
    Number of shells: 114
    Number of basis function: 234
    Number of Cartesian functions: 245
    Spherical Harmonics?: true
    Max angular momentum: 2

  ==> Pre-Iterations <==

   -------------------------------------------------------
    Irrep   Nso     Nmo     Nalpha   Nbeta   Ndocc  Nsocc
   -------------------------------------------------------
     A        234     234       0       0       0       0
   -------------------------------------------------------
    Total     234     234      42      42      42       0
   -------------------------------------------------------

  ==> Integral Setup <==

  Using integral reordering PK algorithm.
  Sizing the integral batches needed.
  Building batch lookup table.
   Calculation information:
      Number of atoms:                  27
      Number of AO shells:             114
      Number of primitives:            322
      Number of atomic orbitals:       245
      Number of basis functions:       234

      Integral cutoff                 1.00e-12
      Number of threads:                 1

	Batch   1 pq = [       0,    9405] index = [             0,44231715] size =     44231715
	Batch   2 pq = [    9405,   13301] index = [      44231715,88464951] size =     44233236
	Batch   3 pq = [   13301,   16290] index = [      88464951,132690195] size =     44225244
	Batch   4 pq = [   16290,   18810] index = [     132690195,176917455] size =     44227260
	Batch   5 pq = [   18810,   21030] index = [     176917455,221140965] size =     44223510
	Batch   6 pq = [   21030,   23037] index = [     221140965,265363203] size =     44222238
	Batch   7 pq = [   23037,   24883] index = [     265363203,309594286] size =     44231083
	Batch   8 pq = [   24883,   26601] index = [     309594286,353819901] size =     44225615
	Batch   9 pq = [   26601,   27495] index = [     353819901,378001260] size =     24181359
  Task number: 35
  Buffer size: 11059200
  Buffer per thread: 2
  We computed 16900448 shell quartets total.
  Whereas there are 21487290 unique shell quartets.

  ==> DiskJK: Disk-Based J/K Matrices <==

    J tasked:                  Yes
    K tasked:                  Yes
    wK tasked:                  No
    Memory [MiB]:              375
    Schwarz Cutoff:          1E-12

    OpenMP threads:              1

  Minimum eigenvalue in the overlap matrix is 3.1980119906E-04.
  Using Symmetric Orthogonalization.

  SCF Guess: Superposition of Atomic Densities via on-the-fly atomic UHF.

  ==> Iterations <==

                        Total Energy        Delta E     RMS |[F,P]|

   @RHF iter SAD:  -478.50306635493985   -4.78503e+02   0.00000e+00
   @RHF iter   1:  -478.98965479961811   -4.86588e-01   2.70170e-03 DIIS
   @RHF iter   2:  -479.22447644312621   -2.34822e-01   1.06178e-03 DIIS
   @RHF iter   3:  -479.25607294214302   -3.15965e-02   2.84892e-04 DIIS
   @RHF iter   4:  -479.25944036963529   -3.36743e-03   1.08264e-04 DIIS
   @RHF iter   5:  -479.25981303883367   -3.72669e-04   2.15812e-05 DIIS
   @RHF iter   6:  -479.25983664950610   -2.36107e-05   6.69332e-06 DIIS
   @RHF iter   7:  -479.25983866302244   -2.01352e-06   2.06777e-06 DIIS
   @RHF iter   8:  -479.25983890993848   -2.46916e-07   7.11508e-07 DIIS
   @RHF iter   9:  -479.25983893693774   -2.69993e-08   2.09210e-07 DIIS
   @RHF iter  10:  -479.25983894026916   -3.33142e-09   8.79603e-08 DIIS
   @RHF iter  11:  -479.25983894114830   -8.79140e-10   4.02159e-08 DIIS
   @RHF iter  12:  -479.25983894137687   -2.28567e-10   1.91659e-08 DIIS
   @RHF iter  13:  -479.25983894143633   -5.94582e-11   7.75473e-09 DIIS
   @RHF iter  14:  -479.25983894144065   -4.32010e-12   2.31236e-09 DIIS
   @RHF iter  15:  -479.25983894143963    1.02318e-12   7.12443e-10 DIIS
   @RHF iter  16:  -479.25983894144326   -3.63798e-12   2.56384e-10 DIIS
   @RHF iter  17:  -479.25983894144451   -1.25056e-12   1.15239e-10 DIIS
   @RHF iter  18:  -479.25983894144372    7.95808e-13   5.45738e-11 DIIS
  Energy and wave function converged.

  ==> Post-Iterations <==

    Orbital Energies [Eh]
    ---------------------

    Doubly Occupied:

       1A    -20.690467     2A    -15.900790     3A    -11.470374
       4A    -11.392327     5A    -11.385789     6A    -11.320106
       7A    -11.318606     8A    -11.317209     9A    -11.316912
      10A    -11.316362    11A    -11.295403    12A     -1.518884
      13A     -1.503493    14A     -1.233605    15A     -1.208140
      16A     -1.116768    17A     -1.102820    18A     -1.045615
      19A     -1.004233    20A     -0.983141    21A     -0.958955
      22A     -0.928639    23A     -0.889565    24A     -0.850537
      25A     -0.822934    26A     -0.788091    27A     -0.757167
      28A     -0.728399    29A     -0.709879    30A     -0.697367
      31A     -0.688051    32A     -0.678212    33A     -0.676681
      34A     -0.671100    35A     -0.657928    36A     -0.639064
      37A     -0.602679    38A     -0.577040    39A     -0.566834
      40A     -0.552245    41A     -0.422234    42A     -0.386835

    Virtual:

      43A     -0.045571    44A      0.021527    45A      0.022439
      46A      0.042324    47A      0.045300    48A      0.072957
      49A      0.079634    50A      0.092158    51A      0.105159
      52A      0.116287    53A      0.129071    54A      0.144690
      55A      0.154332    56A      0.161021    57A      0.176739
      58A      0.193760    59A      0.198478    60A      0.214886
      61A      0.215844    62A      0.225695    63A      0.291281
      64A      0.295042    65A      0.330010    66A      0.376645
      67A      0.381502    68A      0.399481    69A      0.406110
      70A      0.413502    71A      0.421786    72A      0.444108
      73A      0.460879    74A      0.479484    75A      0.535662
      76A      0.555450    77A      0.567386    78A      0.583084
      79A      0.587509    80A      0.604676    81A      0.613283
      82A      0.626351    83A      0.633604    84A      0.642787
      85A      0.647982    86A      0.653661    87A      0.659958
      88A      0.676651    89A      0.684306    90A      0.688755
      91A      0.704015    92A      0.705212    93A      0.712119
      94A      0.731028    95A      0.736840    96A      0.740829
      97A      0.767606    98A      0.777940    99A      0.780194
     100A      0.789316   101A      0.794393   102A      0.804573
     103A      0.809669   104A      0.814514   105A      0.820048
     106A      0.826791   107A      0.850957   108A      0.857148
     109A      0.864409   110A      0.878043   111A      0.884937
     112A      0.933009   113A      0.935986   114A      0.943321
     115A      0.964863   116A      0.984418   117A      1.038845
     118A      1.052255   119A      1.062624   120A      1.081512
     121A      1.090227   122A      1.128834   123A      1.157672
     124A      1.169147   125A      1.177891   126A      1.194345
     127A      1.204088   128A      1.219847   129A      1.225333
     130A      1.229753   131A      1.256230   132A      1.272821
     133A      1.286256   134A      1.301075   135A      1.319594
     136A      1.375156   137A      1.413178   138A      1.419660
     139A      1.444267   140A      1.456730   141A      1.478424
     142A      1.492926   143A      1.512271   144A      1.527319
     145A      1.550128   146A      1.605287   147A      1.635279
     148A      1.644038   149A      1.657427   150A      1.667912
     151A      1.675517   152A      1.694491   153A      1.707332
     154A      1.714120   155A      1.722090   156A      1.730530
     157A      1.740878   158A      1.763262   159A      1.789691
     160A      1.795630   161A      1.804999   162A      1.807591
     163A      1.820715   164A      1.823233   165A      1.839216
     166A      1.855825   167A      1.858735   168A      1.869089
     169A      1.874232   170A      1.881445   171A      1.893860
     172A      1.904699   173A      1.915998   174A      1.926913
     175A      1.959443   176A      1.963468   177A      1.971663
     178A      1.981540   179A      1.991611   180A      1.991824
     181A      2.008981   182A      2.052314   183A      2.063443
     184A      2.074408   185A      2.081881   186A      2.111034
     187A      2.140818   188A      2.151716   189A      2.169194
     190A      2.187505   191A      2.195121   192A      2.204399
     193A      2.235744   194A      2.251563   195A      2.280814
     196A      2.291157   197A      2.320699   198A      2.336072
     199A      2.344195   200A      2.381554   201A      2.394720
     202A      2.400033   203A      2.447034   204A      2.452815
     205A      2.475617   206A      2.519439   207A      2.530314
     208A      2.546238   209A      2.555490   210A      2.616394
     211A      2.654885   212A      2.669359   213A      2.675606
     214A      2.700594   215A      2.712502   216A      2.730946
     217A      2.742568   218A      2.777225   219A      2.811554
     220A      2.830648   221A      2.854730   222A      2.892209
     223A      2.920924   224A      3.007610   225A      3.070359
     226A      3.081716   227A      3.116771   228A      3.158403
     229A      3.202494   230A      3.244683   231A      3.491269
     232A      3.578560   233A      3.876788   234A      4.068064

    Final Occupation by Irrep:
              A
    DOCC [    42 ]

  @RHF Final Energy:  -479.25983894144372

   => Energetics <=

    Nuclear Repulsion Energy =            582.2642907932120124
    One-Electron Energy =               -1793.6652990194907034
    Two-Electron Energy =                 732.1411692848349730
    Total Energy =                       -479.2598389414437179

Computation Completed

Properties will be evaluated at   0.000000,   0.000000,   0.000000 [a0]

Properties computed using the SCF density matrix

  Nuclear Dipole Moment: [e a0]
     X:     6.6203      Y:    -9.8845      Z:    -0.9617

  Electronic Dipole Moment: [e a0]
     X:    -3.9500      Y:     2.3399      Z:     2.5428

  Dipole Moment: [e a0]
     X:     2.6703      Y:    -7.5446      Z:     1.5812     Total:     8.1579

  Dipole Moment: [D]
     X:     6.7872      Y:   -19.1764      Z:     4.0189     Total:    20.7353

*** tstop() called on ds3 at Mon Apr 27 07:24:50 2020
Module time:
	user time   =     142.01 seconds =       2.37 minutes
	system time =      65.83 seconds =       1.10 minutes
	total time  =        257 seconds =       4.28 minutes
Total time:
	user time   =     142.01 seconds =       2.37 minutes
	system time =      65.83 seconds =       1.10 minutes
	total time  =        257 seconds =       4.28 minutes
                                     G D M A

                                 by Anthony Stone

                           version 2.2.06, 22 June 2011

               Distributed Multipoles from Gaussian wavefunctions

Starting at 7:24:50 on 27 Apr 2020

Using SCF density matrix from file ./SSI/SSI-034LYS-086TYR-2-dimer.test.28692.fchk

                         Distributed Multipole Analysis

Standard DMA

Positions and radii in angstrom
Multipole moments in atomic units, ea_0^k for rank k

C          x =  1.244253  y = -3.512546  z =  0.770057 angstrom
           Maximum rank =  0   Radius =  0.650 angstrom
                   Q00  =  -0.053596

C          x =  1.523253  y = -2.825546  z = -0.567943 angstrom
           Maximum rank =  0   Radius =  0.650 angstrom
                   Q00  =  -0.224082

N          x =  1.490253  y = -4.976546  z =  0.758057 angstrom
           Maximum rank =  0   Radius =  0.650 angstrom
                   Q00  =  -0.132678

H          x =  1.898253  y = -3.050546  z =  1.516057 angstrom
           Maximum rank =  0   Radius =  0.325 angstrom
                   Q00  =   0.120847

H          x =  0.207253  y = -3.306546  z =  1.054057 angstrom
           Maximum rank =  0   Radius =  0.325 angstrom
                   Q00  =   0.137064

H          x =  2.511253  y = -3.117546  z = -0.914943 angstrom
           Maximum rank =  0   Radius =  0.325 angstrom
                   Q00  =   0.089374

H          x =  1.531253  y = -1.748546  z = -0.403943 angstrom
           Maximum rank =  0   Radius =  0.325 angstrom
                   Q00  =   0.161870

H          x =  2.454253  y = -5.163546  z =  0.490057 angstrom
           Maximum rank =  0   Radius =  0.325 angstrom
                   Q00  =   0.260586

H          x =  1.356253  y = -5.376546  z =  1.686057 angstrom
           Maximum rank =  0   Radius =  0.325 angstrom
                   Q00  =   0.255421

H          x =  0.829253  y = -5.449546  z =  0.151057 angstrom
           Maximum rank =  0   Radius =  0.325 angstrom
                   Q00  =   0.262040

H          x =  0.768512  y = -3.056286  z = -1.334185 angstrom
           Maximum rank =  0   Radius =  0.325 angstrom
                   Q00  =   0.115223

C          x = -0.517747  y =  4.275454  z = -1.420943 angstrom
           Maximum rank =  0   Radius =  0.650 angstrom
                   Q00  =  -0.205718

C          x = -0.642747  y =  0.397454  z =  0.453057 angstrom
           Maximum rank =  0   Radius =  0.650 angstrom
                   Q00  =   0.304666

C          x = -0.840747  y =  1.544454  z =  1.208057 angstrom
           Maximum rank =  0   Radius =  0.650 angstrom
                   Q00  =  -0.182731

C          x = -0.427747  y =  0.490454  z = -0.915943 angstrom
           Maximum rank =  0   Radius =  0.650 angstrom
                   Q00  =  -0.126702

C          x = -0.832747  y =  2.784454  z =  0.590057 angstrom
           Maximum rank =  0   Radius =  0.650 angstrom
                   Q00  =   0.033796

C          x = -0.382747  y =  1.739454  z = -1.532943 angstrom
           Maximum rank =  0   Radius =  0.650 angstrom
                   Q00  =  -0.048236

C          x = -0.577747  y =  2.904454  z = -0.779943 angstrom
           Maximum rank =  0   Radius =  0.650 angstrom
                   Q00  =  -0.118062

O          x = -0.658747  y = -0.828546  z =  1.049057 angstrom
           Maximum rank =  0   Radius =  0.650 angstrom
                   Q00  =  -0.679460

H          x = -0.543747  y = -0.750546  z =  2.010057 angstrom
           Maximum rank =  0   Radius =  0.325 angstrom
                   Q00  =   0.406484

H          x = -1.014747  y =  1.470454  z =  2.273057 angstrom
           Maximum rank =  0   Radius =  0.325 angstrom
                   Q00  =   0.079366

H          x = -0.310747  y = -0.404546  z = -1.493943 angstrom
           Maximum rank =  0   Radius =  0.325 angstrom
                   Q00  =   0.063657

H          x = -1.009747  y =  3.670454  z =  1.184057 angstrom
           Maximum rank =  0   Radius =  0.325 angstrom
                   Q00  =   0.083721

H          x = -0.179747  y =  1.785454  z = -2.591943 angstrom
           Maximum rank =  0   Radius =  0.325 angstrom
                   Q00  =   0.075630

H          x =  0.502253  y =  4.640454  z = -1.300943 angstrom
           Maximum rank =  0   Radius =  0.325 angstrom
                   Q00  =   0.105566

H          x = -1.157747  y =  4.951454  z = -0.864943 angstrom
           Maximum rank =  0   Radius =  0.325 angstrom
                   Q00  =   0.106928

H          x = -0.772221  y =  4.350934  z = -2.488443 angstrom
           Maximum rank =  0   Radius =  0.325 angstrom
                   Q00  =   0.109028

Total multipoles referred to origin at
           x =   0.000000,  y =    0.000000,  z =    0.000000 angstrom
                   Q00  =   1.000000

Finished at 7:24:50 on 27 Apr 2020

  DMA results are available in the Python driver through the
	  variable('DMA DISTRIBUTED MULTIPOLES')
  and
	  variable('DMA TOTAL MULTIPOLES')
  commands.

    Psi4 stopped on: Monday, 27 April 2020 07:24AM
    Psi4 wall time for execution: 0:04:17.06

*** Psi4 exiting successfully. Buy a developer a beer!
