                               Psi4 1.3.2 release

  ==> Input File <==

--------------------------------------------------------------------------
import numpy as np
set {scf_type pk
basis cc-pvdz
d_convergence 10
gdma_switch   0
gdma_limit    0
gdma_origin   [ 0.0,  0.0,  0.0 ]
}
molecule test {
    units Angstrom
    0 1
    --
    0 1
    C               -0.554105094953115    -3.666487292104367    -0.926638659839647
    C                0.887894905046885    -3.429487292104367    -1.409638659839647
    H               -0.806105094953115    -4.725487292104368    -1.011638659839647
    H               -0.661105094953115    -3.370487292104368     0.116361340160353
    H               -1.272105094953115    -3.081487292104367    -1.502638659839646
    H                1.105894905046885    -2.362487292104368    -1.358638659839647
    H                0.993214905046885    -3.755547292104368    -2.454908659839647
    H                1.618224905046885    -3.949517292104368    -0.772298659839647
    C               -1.055105094953115     0.085512707895632    -1.166638659839647
    C               -1.294105094953115     1.029512707895633    -2.352638659839647
    C               -0.320105094953115     0.674512707895632     0.019361340160353
    C               -0.158105094953115     2.016512707895632     0.219361340160353
    C                0.231894905046885    -0.176487292104368     0.935361340160353
    C                0.517894905046885     2.487512707895633     1.269361340160353
    C                0.902894905046885     0.312512707895632     2.035361340160353
    C                1.055894905046885     1.655512707895632     2.189361340160353
    H               -2.024105094953115    -0.270487292104368    -0.813638659839647
    H               -0.502105094953115    -0.781487292104368    -1.516638659839647
    H               -1.924105094953115     1.853512707895632    -2.016638659839646
    H               -0.590105094953115     2.725512707895632    -0.466638659839647
    H                0.119894905046885    -1.244487292104368     0.817361340160353
    H                0.625894905046885     3.556512707895632     1.394361340160353
    H                1.323894905046885    -0.368487292104368     2.763361340160353
    H                1.595894905046885     2.051512707895632     3.039361340160354
    H               -1.803125094953115     0.479742707895632    -3.158028659839647
    H               -0.359415094953115     1.465802707895632    -2.734748659839647

}
e, wfn = energy('scf', return_wfn=True)
gdma(wfn)
dmavals = variable('DMA DISTRIBUTED MULTIPOLES')
charges = np.array(dmavals)
print(charges)
np.save('SSI-056ILE-059PHE-1-dimer.npy', np.array(charges))--------------------------------------------------------------------------

*** tstart() called on ds3
*** at Tue Apr 28 12:12:20 2020

   => Loading Basis Set <=

    Name: CC-PVDZ
    Role: ORBITAL
    Keyword: BASIS
    atoms 1-2, 9-16  entry C          line   138 file /theoryfs2/ds/metcalf/miniconda2/envs/tf2gpu/share/psi4/basis/cc-pvdz.gbs
    atoms 3-8, 17-26 entry H          line    22 file /theoryfs2/ds/metcalf/miniconda2/envs/tf2gpu/share/psi4/basis/cc-pvdz.gbs

         ---------------------------------------------------------
                                   SCF
               by Justin Turney, Rob Parrish, Andy Simmonett
                          and Daniel G. A. Smith
                              RHF Reference
                        1 Threads,    500 MiB Core
         ---------------------------------------------------------

  ==> Geometry <==

    Molecular point group: c1
    Full point group: C1

    Geometry (in Angstrom), charge = 0, multiplicity = 1:

       Center              X                  Y                   Z               Mass
    ------------   -----------------  -----------------  -----------------  -----------------
         C           -0.554105094953    -3.666487292104    -0.926638659840    12.000000000000
         C            0.887894905047    -3.429487292104    -1.409638659840    12.000000000000
         H           -0.806105094953    -4.725487292104    -1.011638659840     1.007825032230
         H           -0.661105094953    -3.370487292104     0.116361340160     1.007825032230
         H           -1.272105094953    -3.081487292104    -1.502638659840     1.007825032230
         H            1.105894905047    -2.362487292104    -1.358638659840     1.007825032230
         H            0.993214905047    -3.755547292104    -2.454908659840     1.007825032230
         H            1.618224905047    -3.949517292104    -0.772298659840     1.007825032230
         C           -1.055105094953     0.085512707896    -1.166638659840    12.000000000000
         C           -1.294105094953     1.029512707896    -2.352638659840    12.000000000000
         C           -0.320105094953     0.674512707896     0.019361340160    12.000000000000
         C           -0.158105094953     2.016512707896     0.219361340160    12.000000000000
         C            0.231894905047    -0.176487292104     0.935361340160    12.000000000000
         C            0.517894905047     2.487512707896     1.269361340160    12.000000000000
         C            0.902894905047     0.312512707896     2.035361340160    12.000000000000
         C            1.055894905047     1.655512707896     2.189361340160    12.000000000000
         H           -2.024105094953    -0.270487292104    -0.813638659840     1.007825032230
         H           -0.502105094953    -0.781487292104    -1.516638659840     1.007825032230
         H           -1.924105094953     1.853512707896    -2.016638659840     1.007825032230
         H           -0.590105094953     2.725512707896    -0.466638659840     1.007825032230
         H            0.119894905047    -1.244487292104     0.817361340160     1.007825032230
         H            0.625894905047     3.556512707896     1.394361340160     1.007825032230
         H            1.323894905047    -0.368487292104     2.763361340160     1.007825032230
         H            1.595894905047     2.051512707896     3.039361340160     1.007825032230
         H           -1.803125094953     0.479742707896    -3.158028659840     1.007825032230
         H           -0.359415094953     1.465802707896    -2.734748659840     1.007825032230

  Running in c1 symmetry.

  Rotational constants: A =      0.05400  B =      0.02345  C =      0.01739 [cm^-1]
  Rotational constants: A =   1618.92047  B =    703.08622  C =    521.20123 [MHz]
  Nuclear repulsion =  498.444527717087510

  Charge       = 0
  Multiplicity = 1
  Electrons    = 76
  Nalpha       = 38
  Nbeta        = 38

  ==> Algorithm <==

  SCF Algorithm Type is PK.
  DIIS enabled.
  MOM disabled.
  Fractional occupation disabled.
  Guess Type is SAD.
  Energy threshold   = 1.00e-06
  Density threshold  = 1.00e-10
  Integral threshold = 0.00e+00

  ==> Primary Basis <==

  Basis Set: CC-PVDZ
    Blend: CC-PVDZ
    Number of shells: 108
    Number of basis function: 220
    Number of Cartesian functions: 230
    Spherical Harmonics?: true
    Max angular momentum: 2

  ==> Pre-Iterations <==

   -------------------------------------------------------
    Irrep   Nso     Nmo     Nalpha   Nbeta   Ndocc  Nsocc
   -------------------------------------------------------
     A        220     220       0       0       0       0
   -------------------------------------------------------
    Total     220     220      38      38      38       0
   -------------------------------------------------------

  ==> Integral Setup <==

  Using integral reordering PK algorithm.
  Sizing the integral batches needed.
  Building batch lookup table.
   Calculation information:
      Number of atoms:                  26
      Number of AO shells:             108
      Number of primitives:            300
      Number of atomic orbitals:       230
      Number of basis functions:       220

      Integral cutoff                 1.00e-12
      Number of threads:                 1

	Batch   1 pq = [       0,    9405] index = [             0,44231715] size =     44231715
	Batch   2 pq = [    9405,   13301] index = [      44231715,88464951] size =     44233236
	Batch   3 pq = [   13301,   16290] index = [      88464951,132690195] size =     44225244
	Batch   4 pq = [   16290,   18810] index = [     132690195,176917455] size =     44227260
	Batch   5 pq = [   18810,   21030] index = [     176917455,221140965] size =     44223510
	Batch   6 pq = [   21030,   23037] index = [     221140965,265363203] size =     44222238
	Batch   7 pq = [   23037,   24310] index = [     265363203,295500205] size =     30137002
  Task number: 27
  Buffer size: 11059200
  Buffer per thread: 2
  We computed 15958429 shell quartets total.
  Whereas there are 17325441 unique shell quartets.

  ==> DiskJK: Disk-Based J/K Matrices <==

    J tasked:                  Yes
    K tasked:                  Yes
    wK tasked:                  No
    Memory [MiB]:              375
    Schwarz Cutoff:          1E-12

    OpenMP threads:              1

  Minimum eigenvalue in the overlap matrix is 2.3340183667E-04.
  Using Symmetric Orthogonalization.

  SCF Guess: Superposition of Atomic Densities via on-the-fly atomic UHF.

  ==> Iterations <==

                        Total Energy        Delta E     RMS |[F,P]|

   @RHF iter SAD:  -387.25724745263682   -3.87257e+02   0.00000e+00
   @RHF iter   1:  -387.75625049036057   -4.99003e-01   2.80000e-03 DIIS
   @RHF iter   2:  -387.98061287353823   -2.24362e-01   1.18107e-03 DIIS
   @RHF iter   3:  -388.01710719908118   -3.64943e-02   2.51553e-04 DIIS
   @RHF iter   4:  -388.02003486382165   -2.92766e-03   5.51006e-05 DIIS
   @RHF iter   5:  -388.02013219420940   -9.73304e-05   1.93777e-05 DIIS
   @RHF iter   6:  -388.02014415558961   -1.19614e-05   4.18074e-06 DIIS
   @RHF iter   7:  -388.02014481796880   -6.62379e-07   1.20237e-06 DIIS
   @RHF iter   8:  -388.02014487738467   -5.94159e-08   3.10826e-07 DIIS
   @RHF iter   9:  -388.02014488600537   -8.62070e-09   1.59921e-07 DIIS
   @RHF iter  10:  -388.02014488795618   -1.95081e-09   7.59169e-08 DIIS
   @RHF iter  11:  -388.02014488878365   -8.27470e-10   2.62860e-08 DIIS
   @RHF iter  12:  -388.02014488888523   -1.01579e-10   1.06380e-08 DIIS
   @RHF iter  13:  -388.02014488889665   -1.14255e-11   3.13887e-09 DIIS
   @RHF iter  14:  -388.02014488889381    2.84217e-12   7.11294e-10 DIIS
   @RHF iter  15:  -388.02014488889870   -4.88853e-12   2.44720e-10 DIIS
   @RHF iter  16:  -388.02014488889472    3.97904e-12   1.21474e-10 DIIS
   @RHF iter  17:  -388.02014488889660   -1.87583e-12   5.66581e-11 DIIS
  Energy and wave function converged.

  ==> Post-Iterations <==

    Orbital Energies [Eh]
    ---------------------

    Doubly Occupied:

       1A    -11.229989     2A    -11.228814     3A    -11.226521
       4A    -11.224655     5A    -11.222860     6A    -11.221256
       7A    -11.221122     8A    -11.220398     9A    -11.218979
      10A    -11.216383    11A     -1.171971    12A     -1.066586
      13A     -1.021427    14A     -1.018089    15A     -0.987278
      16A     -0.868788    17A     -0.841998    18A     -0.823732
      19A     -0.788953    20A     -0.700515    21A     -0.639057
      22A     -0.620902    23A     -0.615095    24A     -0.599151
      25A     -0.597005    26A     -0.592248    27A     -0.577955
      28A     -0.530955    29A     -0.518736    30A     -0.507268
      31A     -0.503858    32A     -0.490407    33A     -0.488782
      34A     -0.486035    35A     -0.470959    36A     -0.468952
      37A     -0.337339    38A     -0.326142

    Virtual:

      39A      0.144384    40A      0.151035    41A      0.173593
      42A      0.194037    43A      0.196430    44A      0.221902
      45A      0.230649    46A      0.233246    47A      0.248679
      48A      0.257330    49A      0.260611    50A      0.264152
      51A      0.274210    52A      0.285617    53A      0.287903
      54A      0.313165    55A      0.352006    56A      0.360693
      57A      0.379488    58A      0.385324    59A      0.396696
      60A      0.421148    61A      0.465644    62A      0.475222
      63A      0.490585    64A      0.513592    65A      0.558232
      66A      0.597395    67A      0.603352    68A      0.607893
      69A      0.610259    70A      0.630834    71A      0.652454
      72A      0.686194    73A      0.689587    74A      0.707391
      75A      0.717001    76A      0.731440    77A      0.741732
      78A      0.749420    79A      0.751983    80A      0.758190
      81A      0.767029    82A      0.779789    83A      0.782591
      84A      0.811399    85A      0.832364    86A      0.841730
      87A      0.852514    88A      0.860643    89A      0.874039
      90A      0.880106    91A      0.886252    92A      0.889229
      93A      0.893275    94A      0.900868    95A      0.910748
      96A      0.914086    97A      0.916592    98A      0.926487
      99A      0.935576   100A      0.949339   101A      0.977916
     102A      0.981935   103A      0.997466   104A      1.014391
     105A      1.030745   106A      1.042715   107A      1.064713
     108A      1.110359   109A      1.125007   110A      1.147257
     111A      1.148509   112A      1.168905   113A      1.190269
     114A      1.193433   115A      1.207277   116A      1.235650
     117A      1.254333   118A      1.266766   119A      1.270529
     120A      1.306479   121A      1.307738   122A      1.328328
     123A      1.346705   124A      1.358718   125A      1.380291
     126A      1.436587   127A      1.461187   128A      1.476219
     129A      1.486070   130A      1.540567   131A      1.549122
     132A      1.569254   133A      1.593338   134A      1.603979
     135A      1.678322   136A      1.685166   137A      1.697187
     138A      1.722882   139A      1.758346   140A      1.775661
     141A      1.782313   142A      1.793640   143A      1.825413
     144A      1.826231   145A      1.852267   146A      1.869686
     147A      1.881740   148A      1.889403   149A      1.900682
     150A      1.909627   151A      1.915803   152A      1.926449
     153A      1.932145   154A      1.938494   155A      1.946347
     156A      1.952648   157A      1.956941   158A      1.962316
     159A      1.969239   160A      1.976026   161A      1.989464
     162A      1.994947   163A      2.005138   164A      2.016982
     165A      2.032782   166A      2.050639   167A      2.069669
     168A      2.087785   169A      2.098663   170A      2.107384
     171A      2.120371   172A      2.145234   173A      2.153057
     174A      2.173633   175A      2.198548   176A      2.207882
     177A      2.213942   178A      2.238119   179A      2.242208
     180A      2.265416   181A      2.295928   182A      2.307086
     183A      2.317890   184A      2.325356   185A      2.340070
     186A      2.378683   187A      2.410154   188A      2.419886
     189A      2.442979   190A      2.457990   191A      2.512500
     192A      2.525919   193A      2.540929   194A      2.562121
     195A      2.578511   196A      2.587005   197A      2.622795
     198A      2.655849   199A      2.743892   200A      2.764033
     201A      2.766611   202A      2.776913   203A      2.794963
     204A      2.827896   205A      2.841741   206A      2.853631
     207A      2.859155   208A      2.880526   209A      2.898906
     210A      2.943048   211A      2.948615   212A      2.970277
     213A      3.009693   214A      3.065371   215A      3.071627
     216A      3.103618   217A      3.231681   218A      3.276591
     219A      3.377907   220A      4.082754

    Final Occupation by Irrep:
              A
    DOCC [    38 ]

  @RHF Final Energy:  -388.02014488889660

   => Energetics <=

    Nuclear Repulsion Energy =            498.4445277170875102
    One-Electron Energy =               -1511.1470257833800588
    Two-Electron Energy =                 624.6823531773959530
    Total Energy =                       -388.0201448888965388

Computation Completed

Properties will be evaluated at   0.000000,   0.000000,   0.000000 [a0]

Properties computed using the SCF density matrix

  Nuclear Dipole Moment: [e a0]
     X:    -2.3993      Y:   -11.0409      Z:    -9.0706

  Electronic Dipole Moment: [e a0]
     X:     2.3180      Y:    10.9692      Z:     8.9672

  Dipole Moment: [e a0]
     X:    -0.0813      Y:    -0.0718      Z:    -0.1034     Total:     0.1499

  Dipole Moment: [D]
     X:    -0.2067      Y:    -0.1824      Z:    -0.2629     Total:     0.3809

*** tstop() called on ds3 at Tue Apr 28 12:15:03 2020
Module time:
	user time   =     110.66 seconds =       1.84 minutes
	system time =      45.00 seconds =       0.75 minutes
	total time  =        163 seconds =       2.72 minutes
Total time:
	user time   =     110.66 seconds =       1.84 minutes
	system time =      45.00 seconds =       0.75 minutes
	total time  =        163 seconds =       2.72 minutes
                                     G D M A

                                 by Anthony Stone

                           version 2.2.06, 22 June 2011

               Distributed Multipoles from Gaussian wavefunctions

Starting at 12:15:4 on 28 Apr 2020

Using SCF density matrix from file ./SSI/SSI-056ILE-059PHE-1-dimer.test.14247.fchk

                         Distributed Multipole Analysis

Standard DMA

Positions and radii in angstrom
Multipole moments in atomic units, ea_0^k for rank k

C          x = -0.554105  y = -3.666487  z = -0.926639 angstrom
           Maximum rank =  0   Radius =  0.650 angstrom
                   Q00  =  -0.251503

C          x =  0.887895  y = -3.429487  z = -1.409639 angstrom
           Maximum rank =  0   Radius =  0.650 angstrom
                   Q00  =  -0.234440

H          x = -0.806105  y = -4.725487  z = -1.011639 angstrom
           Maximum rank =  0   Radius =  0.325 angstrom
                   Q00  =   0.083336

H          x = -0.661105  y = -3.370487  z =  0.116361 angstrom
           Maximum rank =  0   Radius =  0.325 angstrom
                   Q00  =   0.077921

H          x = -1.272105  y = -3.081487  z = -1.502639 angstrom
           Maximum rank =  0   Radius =  0.325 angstrom
                   Q00  =   0.081994

H          x =  1.105895  y = -2.362487  z = -1.358639 angstrom
           Maximum rank =  0   Radius =  0.325 angstrom
                   Q00  =   0.079731

H          x =  0.993215  y = -3.755547  z = -2.454909 angstrom
           Maximum rank =  0   Radius =  0.325 angstrom
                   Q00  =   0.082133

H          x =  1.618225  y = -3.949517  z = -0.772299 angstrom
           Maximum rank =  0   Radius =  0.325 angstrom
                   Q00  =   0.084136

C          x = -1.055105  y =  0.085513  z = -1.166639 angstrom
           Maximum rank =  0   Radius =  0.650 angstrom
                   Q00  =  -0.078748

C          x = -1.294105  y =  1.029513  z = -2.352639 angstrom
           Maximum rank =  0   Radius =  0.650 angstrom
                   Q00  =  -0.243611

C          x = -0.320105  y =  0.674513  z =  0.019361 angstrom
           Maximum rank =  0   Radius =  0.650 angstrom
                   Q00  =  -0.092007

C          x = -0.158105  y =  2.016513  z =  0.219361 angstrom
           Maximum rank =  0   Radius =  0.650 angstrom
                   Q00  =   0.001569

C          x =  0.231895  y = -0.176487  z =  0.935361 angstrom
           Maximum rank =  0   Radius =  0.650 angstrom
                   Q00  =  -0.081268

C          x =  0.517895  y =  2.487513  z =  1.269361 angstrom
           Maximum rank =  0   Radius =  0.650 angstrom
                   Q00  =  -0.004597

C          x =  0.902895  y =  0.312513  z =  2.035361 angstrom
           Maximum rank =  0   Radius =  0.650 angstrom
                   Q00  =  -0.077151

C          x =  1.055895  y =  1.655513  z =  2.189361 angstrom
           Maximum rank =  0   Radius =  0.650 angstrom
                   Q00  =  -0.091919

H          x = -2.024105  y = -0.270487  z = -0.813639 angstrom
           Maximum rank =  0   Radius =  0.325 angstrom
                   Q00  =   0.082565

H          x = -0.502105  y = -0.781487  z = -1.516639 angstrom
           Maximum rank =  0   Radius =  0.325 angstrom
                   Q00  =   0.066891

H          x = -1.924105  y =  1.853513  z = -2.016639 angstrom
           Maximum rank =  0   Radius =  0.325 angstrom
                   Q00  =   0.084514

H          x = -0.590105  y =  2.725513  z = -0.466639 angstrom
           Maximum rank =  0   Radius =  0.325 angstrom
                   Q00  =   0.044072

H          x =  0.119895  y = -1.244487  z =  0.817361 angstrom
           Maximum rank =  0   Radius =  0.325 angstrom
                   Q00  =   0.046525

H          x =  0.625895  y =  3.556513  z =  1.394361 angstrom
           Maximum rank =  0   Radius =  0.325 angstrom
                   Q00  =   0.052202

H          x =  1.323895  y = -0.368487  z =  2.763361 angstrom
           Maximum rank =  0   Radius =  0.325 angstrom
                   Q00  =   0.056098

H          x =  1.595895  y =  2.051513  z =  3.039361 angstrom
           Maximum rank =  0   Radius =  0.325 angstrom
                   Q00  =   0.053233

H          x = -1.803125  y =  0.479743  z = -3.158029 angstrom
           Maximum rank =  0   Radius =  0.325 angstrom
                   Q00  =   0.093443

H          x = -0.359415  y =  1.465803  z = -2.734749 angstrom
           Maximum rank =  0   Radius =  0.325 angstrom
                   Q00  =   0.084882

Total multipoles referred to origin at
           x =   0.000000,  y =    0.000000,  z =    0.000000 angstrom
                   Q00  =  -0.000000

Finished at 12:15:4 on 28 Apr 2020

  DMA results are available in the Python driver through the
	  variable('DMA DISTRIBUTED MULTIPOLES')
  and
	  variable('DMA TOTAL MULTIPOLES')
  commands.

    Psi4 stopped on: Tuesday, 28 April 2020 12:15PM
    Psi4 wall time for execution: 0:02:44.09

*** Psi4 exiting successfully. Buy a developer a beer!
