                               Psi4 1.3.2 release

  ==> Input File <==

--------------------------------------------------------------------------
import numpy as np
set {scf_type pk
basis cc-pvdz
d_convergence 10
gdma_switch   0
gdma_limit    0
gdma_origin   [ 0.0,  0.0,  0.0 ]
}
molecule test {
    units Angstrom
    0 1
    --
    0 1
    C               -0.372260093639026     1.749385860553793     0.305129278702202
    C               -1.109260093639026     2.639385860553793     1.330129278702202
    H                0.375739906360974     1.132385860553792     0.801129278702202
    H               -1.093260093639026     1.087385860553792    -0.175870721297798
    H                0.107739906360974     2.356385860553792    -0.461870721297798
    H               -1.483260093639026     2.024385860553793     2.147129278702202
    H               -1.949260093639026     3.118385860553793     0.826129278702202
    H               -0.422085093639026     3.412457860553793     1.704499278702202
    C                0.870739906360974    -1.882614139446207    -0.126870721297798
    C                0.605739906360974    -2.505614139446208    -1.498870721297798
    H                1.107739906360974    -2.654614139446208     0.603129278702202
    H                1.719739906360974    -1.203614139446208    -0.188870721297798
    H               -0.005260093639026    -1.323614139446207     0.202129278702202
    H                1.451739906360973    -3.120614139446208    -1.750870721297798
    H               -0.311689093639026    -3.110560139446208    -1.547490721297798
    H                0.562129906360974    -1.724841139446208    -2.272490721297798

}
e, wfn = energy('scf', return_wfn=True)
gdma(wfn)
dmavals = variable('DMA DISTRIBUTED MULTIPOLES')
charges = np.array(dmavals)
print(charges)
np.save('SSI-075ILE-112LEU-1-dimer.npy', np.array(charges))--------------------------------------------------------------------------

*** tstart() called on ds3
*** at Mon Apr 27 16:02:39 2020

   => Loading Basis Set <=

    Name: CC-PVDZ
    Role: ORBITAL
    Keyword: BASIS
    atoms 1-2, 9-10  entry C          line   138 file /theoryfs2/ds/metcalf/miniconda2/envs/tf2gpu/share/psi4/basis/cc-pvdz.gbs
    atoms 3-8, 11-16 entry H          line    22 file /theoryfs2/ds/metcalf/miniconda2/envs/tf2gpu/share/psi4/basis/cc-pvdz.gbs

         ---------------------------------------------------------
                                   SCF
               by Justin Turney, Rob Parrish, Andy Simmonett
                          and Daniel G. A. Smith
                              RHF Reference
                        1 Threads,    500 MiB Core
         ---------------------------------------------------------

  ==> Geometry <==

    Molecular point group: c1
    Full point group: C1

    Geometry (in Angstrom), charge = 0, multiplicity = 1:

       Center              X                  Y                   Z               Mass
    ------------   -----------------  -----------------  -----------------  -----------------
         C           -0.372260093639     1.749385860554     0.305129278702    12.000000000000
         C           -1.109260093639     2.639385860554     1.330129278702    12.000000000000
         H            0.375739906361     1.132385860554     0.801129278702     1.007825032230
         H           -1.093260093639     1.087385860554    -0.175870721298     1.007825032230
         H            0.107739906361     2.356385860554    -0.461870721298     1.007825032230
         H           -1.483260093639     2.024385860554     2.147129278702     1.007825032230
         H           -1.949260093639     3.118385860554     0.826129278702     1.007825032230
         H           -0.422085093639     3.412457860554     1.704499278702     1.007825032230
         C            0.870739906361    -1.882614139446    -0.126870721298    12.000000000000
         C            0.605739906361    -2.505614139446    -1.498870721298    12.000000000000
         H            1.107739906361    -2.654614139446     0.603129278702     1.007825032230
         H            1.719739906361    -1.203614139446    -0.188870721298     1.007825032230
         H           -0.005260093639    -1.323614139446     0.202129278702     1.007825032230
         H            1.451739906361    -3.120614139446    -1.750870721298     1.007825032230
         H           -0.311689093639    -3.110560139446    -1.547490721298     1.007825032230
         H            0.562129906361    -1.724841139446    -2.272490721298     1.007825032230

  Running in c1 symmetry.

  Rotational constants: A =      0.59641  B =      0.04219  C =      0.04112 [cm^-1]
  Rotational constants: A =  17879.78917  B =   1264.81493  C =   1232.69178 [MHz]
  Nuclear repulsion =  119.984391832441219

  Charge       = 0
  Multiplicity = 1
  Electrons    = 36
  Nalpha       = 18
  Nbeta        = 18

  ==> Algorithm <==

  SCF Algorithm Type is PK.
  DIIS enabled.
  MOM disabled.
  Fractional occupation disabled.
  Guess Type is SAD.
  Energy threshold   = 1.00e-06
  Density threshold  = 1.00e-10
  Integral threshold = 0.00e+00

  ==> Primary Basis <==

  Basis Set: CC-PVDZ
    Blend: CC-PVDZ
    Number of shells: 60
    Number of basis function: 116
    Number of Cartesian functions: 120
    Spherical Harmonics?: true
    Max angular momentum: 2

  ==> Pre-Iterations <==

   -------------------------------------------------------
    Irrep   Nso     Nmo     Nalpha   Nbeta   Ndocc  Nsocc
   -------------------------------------------------------
     A        116     116       0       0       0       0
   -------------------------------------------------------
    Total     116     116      18      18      18       0
   -------------------------------------------------------

  ==> Integral Setup <==

  Using integral reordering PK algorithm.
  Sizing the integral batches needed.
  Building batch lookup table.
   Calculation information:
      Number of atoms:                  16
      Number of AO shells:              60
      Number of primitives:            148
      Number of atomic orbitals:       120
      Number of basis functions:       116

      Integral cutoff                 1.00e-12
      Number of threads:                 1

	Batch   1 pq = [       0,    6786] index = [             0,23028291] size =     23028291
  Task number: 3
  Buffer size: 11059200
  Buffer per thread: 2
  We computed 1371984 shell quartets total.
  Whereas there are 1675365 unique shell quartets.

  ==> DiskJK: Disk-Based J/K Matrices <==

    J tasked:                  Yes
    K tasked:                  Yes
    wK tasked:                  No
    Memory [MiB]:              375
    Schwarz Cutoff:          1E-12

    OpenMP threads:              1

  Minimum eigenvalue in the overlap matrix is 7.7205798340E-03.
  Using Symmetric Orthogonalization.

  SCF Guess: Superposition of Atomic Densities via on-the-fly atomic UHF.

  ==> Iterations <==

                        Total Energy        Delta E     RMS |[F,P]|

   @RHF iter SAD:  -157.32652978945612   -1.57327e+02   0.00000e+00
   @RHF iter   1:  -158.30878286872888   -9.82253e-01   4.19403e-03 DIIS
   @RHF iter   2:  -158.44118453697973   -1.32402e-01   1.77959e-03 DIIS
   @RHF iter   3:  -158.46418568271406   -2.30011e-02   3.47684e-04 DIIS
   @RHF iter   4:  -158.46599799786526   -1.81232e-03   3.86814e-05 DIIS
   @RHF iter   5:  -158.46602154719980   -2.35493e-05   6.48510e-06 DIIS
   @RHF iter   6:  -158.46602217026816   -6.23068e-07   1.10075e-06 DIIS
   @RHF iter   7:  -158.46602218213962   -1.18715e-08   3.20832e-07 DIIS
   @RHF iter   8:  -158.46602218307265   -9.33028e-10   4.09443e-08 DIIS
   @RHF iter   9:  -158.46602218309889   -2.62332e-11   8.90436e-09 DIIS
   @RHF iter  10:  -158.46602218309985   -9.66338e-13   2.52704e-09 DIIS
   @RHF iter  11:  -158.46602218309908    7.67386e-13   7.33977e-10 DIIS
   @RHF iter  12:  -158.46602218310005   -9.66338e-13   1.60106e-10 DIIS
   @RHF iter  13:  -158.46602218309965    3.97904e-13   2.34872e-11 DIIS
  Energy and wave function converged.

  ==> Post-Iterations <==

    Orbital Energies [Eh]
    ---------------------

    Doubly Occupied:

       1A    -11.219408     2A    -11.217085     3A    -11.217027
       4A    -11.216142     5A     -1.017711     6A     -1.014601
       7A     -0.840640     8A     -0.836206     9A     -0.601487
      10A     -0.597094    11A     -0.595488    12A     -0.593418
      13A     -0.504048    14A     -0.495785    15A     -0.492505
      16A     -0.486967    17A     -0.484413    18A     -0.479123

    Virtual:

      19A      0.174652    20A      0.194743    21A      0.225074
      22A      0.240839    23A      0.242928    24A      0.256226
      25A      0.260618    26A      0.275097    27A      0.284663
      28A      0.288711    29A      0.300872    30A      0.327845
      31A      0.386700    32A      0.404302    33A      0.571054
      34A      0.596907    35A      0.600105    36A      0.601336
      37A      0.613708    38A      0.624232    39A      0.670710
      40A      0.682420    41A      0.697848    42A      0.779123
      43A      0.844597    44A      0.852529    45A      0.887781
      46A      0.890622    47A      0.893066    48A      0.895952
      49A      0.898628    50A      0.906257    51A      0.907197
      52A      0.918258    53A      0.925526    54A      0.956790
      55A      0.974185    56A      0.979185    57A      1.120959
      58A      1.123990    59A      1.133802    60A      1.160991
      61A      1.229800    62A      1.244060    63A      1.461574
      64A      1.471099    65A      1.479859    66A      1.488097
      67A      1.557560    68A      1.585937    69A      1.679555
      70A      1.688546    71A      1.694574    72A      1.698922
      73A      1.860304    74A      1.864183    75A      1.874623
      76A      1.878390    77A      1.883395    78A      1.909413
      79A      1.933645    80A      1.940062    81A      1.944198
      82A      1.946346    83A      1.948655    84A      1.952821
      85A      1.959858    86A      1.971779    87A      1.982954
      88A      2.007493    89A      2.089652    90A      2.105558
      91A      2.120416    92A      2.135024    93A      2.288260
      94A      2.308516    95A      2.311104    96A      2.327460
      97A      2.440349    98A      2.449330    99A      2.465084
     100A      2.479598   101A      2.554032   102A      2.570079
     103A      2.573344   104A      2.587121   105A      2.767272
     106A      2.770504   107A      2.787387   108A      2.792605
     109A      2.837856   110A      2.850698   111A      2.859725
     112A      2.879676   113A      2.937748   114A      2.952505
     115A      2.954158   116A      2.982572

    Final Occupation by Irrep:
              A
    DOCC [    18 ]

  @RHF Final Energy:  -158.46602218309965

   => Energetics <=

    Nuclear Repulsion Energy =            119.9843918324412186
    One-Electron Energy =                -449.0825336370800756
    Two-Electron Energy =                 170.6321196215392320
    Total Energy =                       -158.4660221830996534

Computation Completed

Properties will be evaluated at   0.000000,   0.000000,   0.000000 [a0]

Properties computed using the SCF density matrix

  Nuclear Dipole Moment: [e a0]
     X:     0.0563      Y:    -0.0061      Z:    -0.1062

  Electronic Dipole Moment: [e a0]
     X:    -0.0432      Y:     0.0063      Z:     0.1028

  Dipole Moment: [e a0]
     X:     0.0131      Y:     0.0002      Z:    -0.0034     Total:     0.0135

  Dipole Moment: [D]
     X:     0.0333      Y:     0.0006      Z:    -0.0087     Total:     0.0344

*** tstop() called on ds3 at Mon Apr 27 16:02:51 2020
Module time:
	user time   =       7.83 seconds =       0.13 minutes
	system time =       2.93 seconds =       0.05 minutes
	total time  =         12 seconds =       0.20 minutes
Total time:
	user time   =       7.83 seconds =       0.13 minutes
	system time =       2.93 seconds =       0.05 minutes
	total time  =         12 seconds =       0.20 minutes
                                     G D M A

                                 by Anthony Stone

                           version 2.2.06, 22 June 2011

               Distributed Multipoles from Gaussian wavefunctions

Starting at 16:2:51 on 27 Apr 2020

Using SCF density matrix from file ./SSI/SSI-075ILE-112LEU-1-dimer.test.8886.fchk

                         Distributed Multipole Analysis

Standard DMA

Positions and radii in angstrom
Multipole moments in atomic units, ea_0^k for rank k

C          x = -0.372260  y =  1.749386  z =  0.305129 angstrom
           Maximum rank =  0   Radius =  0.650 angstrom
                   Q00  =  -0.237183

C          x = -1.109260  y =  2.639386  z =  1.330129 angstrom
           Maximum rank =  0   Radius =  0.650 angstrom
                   Q00  =  -0.244627

H          x =  0.375740  y =  1.132386  z =  0.801129 angstrom
           Maximum rank =  0   Radius =  0.325 angstrom
                   Q00  =   0.082542

H          x = -1.093260  y =  1.087386  z = -0.175871 angstrom
           Maximum rank =  0   Radius =  0.325 angstrom
                   Q00  =   0.076863

H          x =  0.107740  y =  2.356386  z = -0.461871 angstrom
           Maximum rank =  0   Radius =  0.325 angstrom
                   Q00  =   0.081371

H          x = -1.483260  y =  2.024386  z =  2.147129 angstrom
           Maximum rank =  0   Radius =  0.325 angstrom
                   Q00  =   0.082492

H          x = -1.949260  y =  3.118386  z =  0.826129 angstrom
           Maximum rank =  0   Radius =  0.325 angstrom
                   Q00  =   0.079165

H          x = -0.422085  y =  3.412458  z =  1.704499 angstrom
           Maximum rank =  0   Radius =  0.325 angstrom
                   Q00  =   0.079522

C          x =  0.870740  y = -1.882614  z = -0.126871 angstrom
           Maximum rank =  0   Radius =  0.650 angstrom
                   Q00  =  -0.236069

C          x =  0.605740  y = -2.505614  z = -1.498871 angstrom
           Maximum rank =  0   Radius =  0.650 angstrom
                   Q00  =  -0.241091

H          x =  1.107740  y = -2.654614  z =  0.603129 angstrom
           Maximum rank =  0   Radius =  0.325 angstrom
                   Q00  =   0.078483

H          x =  1.719740  y = -1.203614  z = -0.188871 angstrom
           Maximum rank =  0   Radius =  0.325 angstrom
                   Q00  =   0.080243

H          x = -0.005260  y = -1.323614  z =  0.202129 angstrom
           Maximum rank =  0   Radius =  0.325 angstrom
                   Q00  =   0.081949

H          x =  1.451740  y = -3.120614  z = -1.750871 angstrom
           Maximum rank =  0   Radius =  0.325 angstrom
                   Q00  =   0.078355

H          x = -0.311689  y = -3.110560  z = -1.547491 angstrom
           Maximum rank =  0   Radius =  0.325 angstrom
                   Q00  =   0.081655

H          x =  0.562130  y = -1.724841  z = -2.272491 angstrom
           Maximum rank =  0   Radius =  0.325 angstrom
                   Q00  =   0.076328

Total multipoles referred to origin at
           x =   0.000000,  y =    0.000000,  z =    0.000000 angstrom
                   Q00  =  -0.000000

Finished at 16:2:51 on 27 Apr 2020

  DMA results are available in the Python driver through the
	  variable('DMA DISTRIBUTED MULTIPOLES')
  and
	  variable('DMA TOTAL MULTIPOLES')
  commands.

    Psi4 stopped on: Monday, 27 April 2020 04:02PM
    Psi4 wall time for execution: 0:00:11.66

*** Psi4 exiting successfully. Buy a developer a beer!
