                               Psi4 1.3.2 release

  ==> Input File <==

--------------------------------------------------------------------------
import numpy as np
set {scf_type pk
basis cc-pvdz
d_convergence 10
gdma_switch   0
gdma_limit    0
gdma_origin   [ 0.0,  0.0,  0.0 ]
}
molecule test {
    units Angstrom
    -1 1
    --
    -1 1
    C               -0.861740051468952    -2.510317530272125     1.216227120307243
    C               -1.335740051468952    -1.666317530272125     2.393227120307242
    C                0.627259948531048    -2.357317530272125     0.925227120307242
    O                1.335259948531048    -1.650317530272125     1.683227120307242
    O                1.086259948531048    -2.959317530272125    -0.075772879692758
    H               -1.054740051468952    -3.559317530272125     1.454227120307243
    H               -1.456740051468952    -2.264317530272125     0.335227120307242
    H               -1.253740051468952    -0.607317530272125     2.140227120307242
    H               -0.684740051468952    -1.870317530272125     3.243227120307242
    H               -2.366140051468952    -1.892507530272125     2.704860120307242
    C                0.026259948531048     4.204682469727875    -0.913772879692758
    C               -0.257740051468952    -0.084317530272125    -1.031772879692757
    C               -1.419740051468952     0.684682469727875    -0.972772879692758
    C                0.987259948531048     0.533682469727875    -1.020772879692758
    C               -1.331740051468952     2.076682469727875    -0.940772879692758
    C                1.067259948531048     1.920682469727875    -1.012772879692758
    C               -0.084740051468952     2.703682469727875    -0.964772879692757
    H               -0.332740051468952    -1.150317530272125    -1.151772879692758
    H               -2.388740051468953     0.202682469727875    -0.971772879692758
    H                1.888259948531048    -0.063317530272125    -1.061772879692757
    H               -2.231740051468952     2.664682469727875    -0.879772879692758
    H                2.037259948531048     2.392682469727875    -1.078772879692758
    H                1.072259948531048     4.514682469727874    -0.950772879692758
    H               -0.359740051468952     4.507682469727875     0.061227120307242
    H               -0.539890051468952     4.726342469727875    -1.699489879692758

}
e, wfn = energy('scf', return_wfn=True)
gdma(wfn)
dmavals = variable('DMA DISTRIBUTED MULTIPOLES')
charges = np.array(dmavals)
print(charges)
np.save('SSI-061GLU-088PHE-1-dimer.npy', np.array(charges))--------------------------------------------------------------------------

*** tstart() called on ds3
*** at Tue Apr 28 03:11:44 2020

   => Loading Basis Set <=

    Name: CC-PVDZ
    Role: ORBITAL
    Keyword: BASIS
    atoms 1-3, 11-17  entry C          line   138 file /theoryfs2/ds/metcalf/miniconda2/envs/tf2gpu/share/psi4/basis/cc-pvdz.gbs
    atoms 4-5         entry O          line   198 file /theoryfs2/ds/metcalf/miniconda2/envs/tf2gpu/share/psi4/basis/cc-pvdz.gbs
    atoms 6-10, 18-25 entry H          line    22 file /theoryfs2/ds/metcalf/miniconda2/envs/tf2gpu/share/psi4/basis/cc-pvdz.gbs

         ---------------------------------------------------------
                                   SCF
               by Justin Turney, Rob Parrish, Andy Simmonett
                          and Daniel G. A. Smith
                              RHF Reference
                        1 Threads,    500 MiB Core
         ---------------------------------------------------------

  ==> Geometry <==

    Molecular point group: c1
    Full point group: C1

    Geometry (in Angstrom), charge = -1, multiplicity = 1:

       Center              X                  Y                   Z               Mass
    ------------   -----------------  -----------------  -----------------  -----------------
         C           -0.861740051469    -2.510317530272     1.216227120307    12.000000000000
         C           -1.335740051469    -1.666317530272     2.393227120307    12.000000000000
         C            0.627259948531    -2.357317530272     0.925227120307    12.000000000000
         O            1.335259948531    -1.650317530272     1.683227120307    15.994914619570
         O            1.086259948531    -2.959317530272    -0.075772879693    15.994914619570
         H           -1.054740051469    -3.559317530272     1.454227120307     1.007825032230
         H           -1.456740051469    -2.264317530272     0.335227120307     1.007825032230
         H           -1.253740051469    -0.607317530272     2.140227120307     1.007825032230
         H           -0.684740051469    -1.870317530272     3.243227120307     1.007825032230
         H           -2.366140051469    -1.892507530272     2.704860120307     1.007825032230
         C            0.026259948531     4.204682469728    -0.913772879693    12.000000000000
         C           -0.257740051469    -0.084317530272    -1.031772879693    12.000000000000
         C           -1.419740051469     0.684682469728    -0.972772879693    12.000000000000
         C            0.987259948531     0.533682469728    -1.020772879693    12.000000000000
         C           -1.331740051469     2.076682469728    -0.940772879693    12.000000000000
         C            1.067259948531     1.920682469728    -1.012772879693    12.000000000000
         C           -0.084740051469     2.703682469728    -0.964772879693    12.000000000000
         H           -0.332740051469    -1.150317530272    -1.151772879693     1.007825032230
         H           -2.388740051469     0.202682469728    -0.971772879693     1.007825032230
         H            1.888259948531    -0.063317530272    -1.061772879693     1.007825032230
         H           -2.231740051469     2.664682469728    -0.879772879693     1.007825032230
         H            2.037259948531     2.392682469728    -1.078772879693     1.007825032230
         H            1.072259948531     4.514682469728    -0.950772879693     1.007825032230
         H           -0.359740051469     4.507682469728     0.061227120307     1.007825032230
         H           -0.539890051469     4.726342469728    -1.699489879693     1.007825032230

  Running in c1 symmetry.

  Rotational constants: A =      0.05614  B =      0.01514  C =      0.01398 [cm^-1]
  Rotational constants: A =   1683.09415  B =    453.77635  C =    419.13497 [MHz]
  Nuclear repulsion =  656.821406309325425

  Charge       = -1
  Multiplicity = 1
  Electrons    = 90
  Nalpha       = 45
  Nbeta        = 45

  ==> Algorithm <==

  SCF Algorithm Type is PK.
  DIIS enabled.
  MOM disabled.
  Fractional occupation disabled.
  Guess Type is SAD.
  Energy threshold   = 1.00e-06
  Density threshold  = 1.00e-10
  Integral threshold = 0.00e+00

  ==> Primary Basis <==

  Basis Set: CC-PVDZ
    Blend: CC-PVDZ
    Number of shells: 111
    Number of basis function: 233
    Number of Cartesian functions: 245
    Spherical Harmonics?: true
    Max angular momentum: 2

  ==> Pre-Iterations <==

   -------------------------------------------------------
    Irrep   Nso     Nmo     Nalpha   Nbeta   Ndocc  Nsocc
   -------------------------------------------------------
     A        233     233       0       0       0       0
   -------------------------------------------------------
    Total     233     233      45      45      45       0
   -------------------------------------------------------

  ==> Integral Setup <==

  Using integral reordering PK algorithm.
  Sizing the integral batches needed.
  Building batch lookup table.
   Calculation information:
      Number of atoms:                  25
      Number of AO shells:             111
      Number of primitives:            329
      Number of atomic orbitals:       245
      Number of basis functions:       233

      Integral cutoff                 1.00e-12
      Number of threads:                 1

	Batch   1 pq = [       0,    9405] index = [             0,44231715] size =     44231715
	Batch   2 pq = [    9405,   13301] index = [      44231715,88464951] size =     44233236
	Batch   3 pq = [   13301,   16290] index = [      88464951,132690195] size =     44225244
	Batch   4 pq = [   16290,   18810] index = [     132690195,176917455] size =     44227260
	Batch   5 pq = [   18810,   21030] index = [     176917455,221140965] size =     44223510
	Batch   6 pq = [   21030,   23037] index = [     221140965,265363203] size =     44222238
	Batch   7 pq = [   23037,   24883] index = [     265363203,309594286] size =     44231083
	Batch   8 pq = [   24883,   26601] index = [     309594286,353819901] size =     44225615
	Batch   9 pq = [   26601,   27261] index = [     353819901,371594691] size =     17774790
  Task number: 34
  Buffer size: 11059200
  Buffer per thread: 2
  We computed 18643595 shell quartets total.
  Whereas there are 19322436 unique shell quartets.

  ==> DiskJK: Disk-Based J/K Matrices <==

    J tasked:                  Yes
    K tasked:                  Yes
    wK tasked:                  No
    Memory [MiB]:              375
    Schwarz Cutoff:          1E-12

    OpenMP threads:              1

  Minimum eigenvalue in the overlap matrix is 3.1171837956E-04.
  Using Symmetric Orthogonalization.

  SCF Guess: Superposition of Atomic Densities via on-the-fly atomic UHF.

  ==> Iterations <==

                        Total Energy        Delta E     RMS |[F,P]|

   @RHF iter SAD:  -534.41732809320115   -5.34417e+02   0.00000e+00
   @RHF iter   1:  -535.67470871831335   -1.25738e+00   3.46712e-03 DIIS
   @RHF iter   2:  -535.96221949123674   -2.87511e-01   1.85486e-03 DIIS
   @RHF iter   3:  -536.03498269033514   -7.27632e-02   3.24732e-04 DIIS
   @RHF iter   4:  -536.03886181918574   -3.87913e-03   1.26376e-04 DIIS
   @RHF iter   5:  -536.03938724381828   -5.25425e-04   2.08041e-05 DIIS
   @RHF iter   6:  -536.03940589239460   -1.86486e-05   7.59372e-06 DIIS
   @RHF iter   7:  -536.03940799953637   -2.10714e-06   2.51848e-06 DIIS
   @RHF iter   8:  -536.03940827499230   -2.75456e-07   8.23164e-07 DIIS
   @RHF iter   9:  -536.03940831932539   -4.43331e-08   3.28012e-07 DIIS
   @RHF iter  10:  -536.03940833118520   -1.18598e-08   1.45372e-07 DIIS
   @RHF iter  11:  -536.03940833388037   -2.69517e-09   6.72944e-08 DIIS
   @RHF iter  12:  -536.03940833436855   -4.88171e-10   2.98571e-08 DIIS
   @RHF iter  13:  -536.03940833448701   -1.18462e-10   1.07160e-08 DIIS
   @RHF iter  14:  -536.03940833450372   -1.67120e-11   4.05343e-09 DIIS
   @RHF iter  15:  -536.03940833449872    5.00222e-12   1.65272e-09 DIIS
   @RHF iter  16:  -536.03940833449917   -4.54747e-13   8.21976e-10 DIIS
   @RHF iter  17:  -536.03940833450474   -5.57066e-12   2.70651e-10 DIIS
   @RHF iter  18:  -536.03940833450042    4.32010e-12   8.33421e-11 DIIS
  Energy and wave function converged.

  ==> Post-Iterations <==

    Orbital Energies [Eh]
    ---------------------

    Doubly Occupied:

       1A    -20.269860     2A    -20.265558     3A    -11.140703
       4A    -11.133176     5A    -11.122993     6A    -11.121938
       7A    -11.121823     8A    -11.117779     9A    -11.111858
      10A    -11.104420    11A    -11.067585    12A    -11.057901
      13A     -1.154640    14A     -1.041758    15A     -1.039730
      16A     -0.935730    17A     -0.897972    18A     -0.872388
      19A     -0.827534    20A     -0.710570    21A     -0.703073
      22A     -0.683530    23A     -0.576977    24A     -0.522495
      25A     -0.516633    26A     -0.511734    27A     -0.485368
      28A     -0.469550    29A     -0.466109    30A     -0.445390
      31A     -0.439680    32A     -0.435673    33A     -0.394800
      34A     -0.375930    35A     -0.374067    36A     -0.367663
      37A     -0.362110    38A     -0.350518    39A     -0.327163
      40A     -0.303982    41A     -0.219447    42A     -0.204871
      43A     -0.189366    44A     -0.178697    45A     -0.167321

    Virtual:

      46A      0.247324    47A      0.256250    48A      0.275616
      49A      0.302342    50A      0.316425    51A      0.335385
      52A      0.350372    53A      0.356086    54A      0.366025
      55A      0.384189    56A      0.399374    57A      0.401168
      58A      0.409150    59A      0.423528    60A      0.456845
      61A      0.471715    62A      0.479302    63A      0.501845
      64A      0.550003    65A      0.560806    66A      0.583091
      67A      0.588823    68A      0.608691    69A      0.616674
      70A      0.674581    71A      0.691979    72A      0.713790
      73A      0.718419    74A      0.732381    75A      0.748162
      76A      0.775847    77A      0.797335    78A      0.808316
      79A      0.824635    80A      0.843642    81A      0.845989
      82A      0.851517    83A      0.857455    84A      0.865590
      85A      0.868931    86A      0.886153    87A      0.897366
      88A      0.922926    89A      0.938674    90A      0.958348
      91A      0.966880    92A      0.970316    93A      0.977660
      94A      0.980496    95A      1.000414    96A      1.007038
      97A      1.013577    98A      1.016837    99A      1.019371
     100A      1.031818   101A      1.033019   102A      1.043281
     103A      1.060607   104A      1.066542   105A      1.082156
     106A      1.097703   107A      1.106125   108A      1.111999
     109A      1.129626   110A      1.142202   111A      1.146589
     112A      1.192256   113A      1.222194   114A      1.252157
     115A      1.265356   116A      1.270345   117A      1.286589
     118A      1.307165   119A      1.327489   120A      1.346752
     121A      1.354805   122A      1.357034   123A      1.365793
     124A      1.385633   125A      1.397210   126A      1.410047
     127A      1.421574   128A      1.441799   129A      1.456934
     130A      1.484806   131A      1.515218   132A      1.545617
     133A      1.572957   134A      1.607398   135A      1.620456
     136A      1.623734   137A      1.653771   138A      1.662879
     139A      1.666626   140A      1.706939   141A      1.729230
     142A      1.744788   143A      1.763650   144A      1.786478
     145A      1.812339   146A      1.841651   147A      1.845800
     148A      1.864055   149A      1.871070   150A      1.881533
     151A      1.906872   152A      1.929028   153A      1.947880
     154A      1.972527   155A      1.994901   156A      1.999217
     157A      2.013746   158A      2.024578   159A      2.038006
     160A      2.042996   161A      2.051180   162A      2.053724
     163A      2.068893   164A      2.076331   165A      2.091867
     166A      2.107344   167A      2.116046   168A      2.127860
     169A      2.143037   170A      2.152464   171A      2.168994
     172A      2.181769   173A      2.186989   174A      2.190376
     175A      2.200832   176A      2.220893   177A      2.226827
     178A      2.238177   179A      2.260345   180A      2.283926
     181A      2.294046   182A      2.299946   183A      2.325033
     184A      2.344979   185A      2.366838   186A      2.375291
     187A      2.402711   188A      2.411981   189A      2.423962
     190A      2.460180   191A      2.476175   192A      2.511977
     193A      2.524313   194A      2.548918   195A      2.562811
     196A      2.582426   197A      2.613934   198A      2.641197
     199A      2.646691   200A      2.685079   201A      2.728808
     202A      2.742647   203A      2.776260   204A      2.813117
     205A      2.831084   206A      2.857332   207A      2.874558
     208A      2.919801   209A      2.923339   210A      2.931186
     211A      2.943295   212A      2.976099   213A      2.993679
     214A      3.019198   215A      3.078311   216A      3.099412
     217A      3.120277   218A      3.133454   219A      3.154992
     220A      3.237744   221A      3.276268   222A      3.289907
     223A      3.296799   224A      3.336206   225A      3.358772
     226A      3.418991   227A      3.636334   228A      3.777417
     229A      3.822430   230A      4.056033   231A      4.072529
     232A      4.085649   233A      4.197559

    Final Occupation by Irrep:
              A
    DOCC [    45 ]

  @RHF Final Energy:  -536.03940833450042

   => Energetics <=

    Nuclear Repulsion Energy =            656.8214063093254254
    One-Electron Energy =               -2047.3455060561259415
    Two-Electron Energy =                 854.4846914122999806
    Total Energy =                       -536.0394083345004219

Computation Completed

Properties will be evaluated at   0.000000,   0.000000,   0.000000 [a0]

Properties computed using the SCF density matrix

  Nuclear Dipole Moment: [e a0]
     X:    -7.1799      Y:     7.1039      Z:     2.0185

  Electronic Dipole Moment: [e a0]
     X:     5.1841      Y:    -3.5286      Z:    -3.3442

  Dipole Moment: [e a0]
     X:    -1.9957      Y:     3.5753      Z:    -1.3258     Total:     4.3039

  Dipole Moment: [D]
     X:    -5.0727      Y:     9.0875      Z:    -3.3697     Total:    10.9393

*** tstop() called on ds3 at Tue Apr 28 03:15:35 2020
Module time:
	user time   =     146.77 seconds =       2.45 minutes
	system time =      58.59 seconds =       0.98 minutes
	total time  =        231 seconds =       3.85 minutes
Total time:
	user time   =     146.77 seconds =       2.45 minutes
	system time =      58.59 seconds =       0.98 minutes
	total time  =        231 seconds =       3.85 minutes
                                     G D M A

                                 by Anthony Stone

                           version 2.2.06, 22 June 2011

               Distributed Multipoles from Gaussian wavefunctions

Starting at 3:15:35 on 28 Apr 2020

Using SCF density matrix from file ./SSI/SSI-061GLU-088PHE-1-dimer.test.7057.fchk

                         Distributed Multipole Analysis

Standard DMA

Positions and radii in angstrom
Multipole moments in atomic units, ea_0^k for rank k

C          x = -0.861740  y = -2.510318  z =  1.216227 angstrom
           Maximum rank =  0   Radius =  0.650 angstrom
                   Q00  =  -0.150579

C          x = -1.335740  y = -1.666318  z =  2.393227 angstrom
           Maximum rank =  0   Radius =  0.650 angstrom
                   Q00  =  -0.221913

C          x =  0.627260  y = -2.357318  z =  0.925227 angstrom
           Maximum rank =  0   Radius =  0.650 angstrom
                   Q00  =   0.993744

O          x =  1.335260  y = -1.650318  z =  1.683227 angstrom
           Maximum rank =  0   Radius =  0.650 angstrom
                   Q00  =  -0.955478

O          x =  1.086260  y = -2.959318  z = -0.075773 angstrom
           Maximum rank =  0   Radius =  0.650 angstrom
                   Q00  =  -0.923923

H          x = -1.054740  y = -3.559318  z =  1.454227 angstrom
           Maximum rank =  0   Radius =  0.325 angstrom
                   Q00  =   0.048944

H          x = -1.456740  y = -2.264318  z =  0.335227 angstrom
           Maximum rank =  0   Radius =  0.325 angstrom
                   Q00  =   0.036755

H          x = -1.253740  y = -0.607318  z =  2.140227 angstrom
           Maximum rank =  0   Radius =  0.325 angstrom
                   Q00  =   0.085440

H          x = -0.684740  y = -1.870318  z =  3.243227 angstrom
           Maximum rank =  0   Radius =  0.325 angstrom
                   Q00  =   0.089135

H          x = -2.366140  y = -1.892508  z =  2.704860 angstrom
           Maximum rank =  0   Radius =  0.325 angstrom
                   Q00  =   0.013675

C          x =  0.026260  y =  4.204682  z = -0.913773 angstrom
           Maximum rank =  0   Radius =  0.650 angstrom
                   Q00  =  -0.207015

C          x = -0.257740  y = -0.084318  z = -1.031773 angstrom
           Maximum rank =  0   Radius =  0.650 angstrom
                   Q00  =  -0.036079

C          x = -1.419740  y =  0.684682  z = -0.972773 angstrom
           Maximum rank =  0   Radius =  0.650 angstrom
                   Q00  =  -0.051816

C          x =  0.987260  y =  0.533682  z = -1.020773 angstrom
           Maximum rank =  0   Radius =  0.650 angstrom
                   Q00  =  -0.039023

C          x = -1.331740  y =  2.076682  z = -0.940773 angstrom
           Maximum rank =  0   Radius =  0.650 angstrom
                   Q00  =  -0.105175

C          x =  1.067260  y =  1.920682  z = -1.012773 angstrom
           Maximum rank =  0   Radius =  0.650 angstrom
                   Q00  =   0.006859

C          x = -0.084740  y =  2.703682  z = -0.964773 angstrom
           Maximum rank =  0   Radius =  0.650 angstrom
                   Q00  =  -0.097820

H          x = -0.332740  y = -1.150318  z = -1.151773 angstrom
           Maximum rank =  0   Radius =  0.325 angstrom
                   Q00  =   0.059661

H          x = -2.388740  y =  0.202682  z = -0.971773 angstrom
           Maximum rank =  0   Radius =  0.325 angstrom
                   Q00  =   0.046171

H          x =  1.888260  y = -0.063318  z = -1.061773 angstrom
           Maximum rank =  0   Radius =  0.325 angstrom
                   Q00  =   0.084888

H          x = -2.231740  y =  2.664682  z = -0.879773 angstrom
           Maximum rank =  0   Radius =  0.325 angstrom
                   Q00  =   0.027399

H          x =  2.037260  y =  2.392682  z = -1.078773 angstrom
           Maximum rank =  0   Radius =  0.325 angstrom
                   Q00  =   0.034891

H          x =  1.072260  y =  4.514682  z = -0.950773 angstrom
           Maximum rank =  0   Radius =  0.325 angstrom
                   Q00  =   0.089366

H          x = -0.359740  y =  4.507682  z =  0.061227 angstrom
           Maximum rank =  0   Radius =  0.325 angstrom
                   Q00  =   0.089629

H          x = -0.539890  y =  4.726342  z = -1.699490 angstrom
           Maximum rank =  0   Radius =  0.325 angstrom
                   Q00  =   0.082266

Total multipoles referred to origin at
           x =   0.000000,  y =    0.000000,  z =    0.000000 angstrom
                   Q00  =  -1.000000

Finished at 3:15:35 on 28 Apr 2020

  DMA results are available in the Python driver through the
	  variable('DMA DISTRIBUTED MULTIPOLES')
  and
	  variable('DMA TOTAL MULTIPOLES')
  commands.

    Psi4 stopped on: Tuesday, 28 April 2020 03:15AM
    Psi4 wall time for execution: 0:03:51.67

*** Psi4 exiting successfully. Buy a developer a beer!
