                               Psi4 1.3.2 release

  ==> Input File <==

--------------------------------------------------------------------------
import numpy as np
set {scf_type pk
basis cc-pvdz
d_convergence 10
gdma_switch   0
gdma_limit    0
gdma_origin   [ 0.0,  0.0,  0.0 ]
}
molecule test {
    units Angstrom
    0 1
    --
    0 1
    C               -1.113951643994628     1.402495000671118    -3.364186052725547
    C               -0.757951643994628     1.439495000671118    -0.786186052725547
    C               -0.329951643994628     1.456495000671118    -2.075186052725547
    C                1.439048356005372     1.606495000671118    -0.763186052725547
    N                0.365048356005372     1.524495000671118     0.012813947274453
    N                1.039048356005372     1.536495000671118    -2.014186052725548
    H               -1.786951643994628     1.369495000671118    -0.456186052725547
    H                0.380048356005372     1.502495000671118     1.025813947274453
    H               -0.601951643994628     1.951495000671118    -4.153186052725546
    H               -2.062951643994627     1.910495000671118    -3.189186052725547
    H                2.468048356005372     1.671495000671118    -0.422186052725547
    H               -1.335191643994628     0.382218000671118    -3.710726052725547
    C               -2.202951643994628    -2.040504999328882     1.094813947274453
    C               -0.774951643994628    -1.679504999328882     1.402813947274453
    C               -0.218951643994628    -1.288504999328882     2.580813947274453
    C                1.363048356005372    -1.283504999328882     1.048813947274453
    N                0.227048356005372    -1.633504999328882     0.453813947274453
    N                1.116048356005372    -1.048504999328882     2.334813947274453
    H               -2.761951643994628    -1.109504999328882     0.995813947274453
    H               -2.605951643994628    -2.576504999328882     1.945813947274453
    H               -0.734951643994628    -1.190504999328882     3.527813947274453
    H                2.326048356005372    -1.177504999328882     0.559813947274453
    H                1.811048356005373    -0.757504999328882     3.015813947274453
    H               -2.348331643994628    -2.633429999328882     0.179773947274453

}
e, wfn = energy('scf', return_wfn=True)
gdma(wfn)
dmavals = variable('DMA DISTRIBUTED MULTIPOLES')
charges = np.array(dmavals)
print(charges)
np.save('SSI-034HIE-057HIE-1-dimer.npy', np.array(charges))--------------------------------------------------------------------------

*** tstart() called on ds3
*** at Mon Apr 27 17:48:16 2020

   => Loading Basis Set <=

    Name: CC-PVDZ
    Role: ORBITAL
    Keyword: BASIS
    atoms 1-4, 13-16  entry C          line   138 file /theoryfs2/ds/metcalf/miniconda2/envs/tf2gpu/share/psi4/basis/cc-pvdz.gbs
    atoms 5-6, 17-18  entry N          line   168 file /theoryfs2/ds/metcalf/miniconda2/envs/tf2gpu/share/psi4/basis/cc-pvdz.gbs
    atoms 7-12, 19-24 entry H          line    22 file /theoryfs2/ds/metcalf/miniconda2/envs/tf2gpu/share/psi4/basis/cc-pvdz.gbs

         ---------------------------------------------------------
                                   SCF
               by Justin Turney, Rob Parrish, Andy Simmonett
                          and Daniel G. A. Smith
                              RHF Reference
                        1 Threads,    500 MiB Core
         ---------------------------------------------------------

  ==> Geometry <==

    Molecular point group: c1
    Full point group: C1

    Geometry (in Angstrom), charge = 0, multiplicity = 1:

       Center              X                  Y                   Z               Mass
    ------------   -----------------  -----------------  -----------------  -----------------
         C           -1.113951643995     1.402495000671    -3.364186052726    12.000000000000
         C           -0.757951643995     1.439495000671    -0.786186052726    12.000000000000
         C           -0.329951643995     1.456495000671    -2.075186052726    12.000000000000
         C            1.439048356005     1.606495000671    -0.763186052726    12.000000000000
         N            0.365048356005     1.524495000671     0.012813947274    14.003074004430
         N            1.039048356005     1.536495000671    -2.014186052726    14.003074004430
         H           -1.786951643995     1.369495000671    -0.456186052726     1.007825032230
         H            0.380048356005     1.502495000671     1.025813947274     1.007825032230
         H           -0.601951643995     1.951495000671    -4.153186052726     1.007825032230
         H           -2.062951643995     1.910495000671    -3.189186052726     1.007825032230
         H            2.468048356005     1.671495000671    -0.422186052726     1.007825032230
         H           -1.335191643995     0.382218000671    -3.710726052726     1.007825032230
         C           -2.202951643995    -2.040504999329     1.094813947274    12.000000000000
         C           -0.774951643995    -1.679504999329     1.402813947274    12.000000000000
         C           -0.218951643995    -1.288504999329     2.580813947274    12.000000000000
         C            1.363048356005    -1.283504999329     1.048813947274    12.000000000000
         N            0.227048356005    -1.633504999329     0.453813947274    14.003074004430
         N            1.116048356005    -1.048504999329     2.334813947274    14.003074004430
         H           -2.761951643995    -1.109504999329     0.995813947274     1.007825032230
         H           -2.605951643995    -2.576504999329     1.945813947274     1.007825032230
         H           -0.734951643995    -1.190504999329     3.527813947274     1.007825032230
         H            2.326048356005    -1.177504999329     0.559813947274     1.007825032230
         H            1.811048356005    -0.757504999329     3.015813947274     1.007825032230
         H           -2.348331643995    -2.633429999329     0.179773947274     1.007825032230

  Running in c1 symmetry.

  Rotational constants: A =      0.05309  B =      0.01900  C =      0.01581 [cm^-1]
  Rotational constants: A =   1591.69429  B =    569.74105  C =    474.00348 [MHz]
  Nuclear repulsion =  675.119112548498947

  Charge       = 0
  Multiplicity = 1
  Electrons    = 88
  Nalpha       = 44
  Nbeta        = 44

  ==> Algorithm <==

  SCF Algorithm Type is PK.
  DIIS enabled.
  MOM disabled.
  Fractional occupation disabled.
  Guess Type is SAD.
  Energy threshold   = 1.00e-06
  Density threshold  = 1.00e-10
  Integral threshold = 0.00e+00

  ==> Primary Basis <==

  Basis Set: CC-PVDZ
    Blend: CC-PVDZ
    Number of shells: 108
    Number of basis function: 228
    Number of Cartesian functions: 240
    Spherical Harmonics?: true
    Max angular momentum: 2

  ==> Pre-Iterations <==

   -------------------------------------------------------
    Irrep   Nso     Nmo     Nalpha   Nbeta   Ndocc  Nsocc
   -------------------------------------------------------
     A        228     228       0       0       0       0
   -------------------------------------------------------
    Total     228     228      44      44      44       0
   -------------------------------------------------------

  ==> Integral Setup <==

  Using integral reordering PK algorithm.
  Sizing the integral batches needed.
  Building batch lookup table.
   Calculation information:
      Number of atoms:                  24
      Number of AO shells:             108
      Number of primitives:            324
      Number of atomic orbitals:       240
      Number of basis functions:       228

      Integral cutoff                 1.00e-12
      Number of threads:                 1

	Batch   1 pq = [       0,    9405] index = [             0,44231715] size =     44231715
	Batch   2 pq = [    9405,   13301] index = [      44231715,88464951] size =     44233236
	Batch   3 pq = [   13301,   16290] index = [      88464951,132690195] size =     44225244
	Batch   4 pq = [   16290,   18810] index = [     132690195,176917455] size =     44227260
	Batch   5 pq = [   18810,   21030] index = [     176917455,221140965] size =     44223510
	Batch   6 pq = [   21030,   23037] index = [     221140965,265363203] size =     44222238
	Batch   7 pq = [   23037,   24883] index = [     265363203,309594286] size =     44231083
	Batch   8 pq = [   24883,   26106] index = [     309594286,340774671] size =     31180385
  Task number: 31
  Buffer size: 11059200
  Buffer per thread: 2
  We computed 17216775 shell quartets total.
  Whereas there are 17325441 unique shell quartets.

  ==> DiskJK: Disk-Based J/K Matrices <==

    J tasked:                  Yes
    K tasked:                  Yes
    wK tasked:                  No
    Memory [MiB]:              375
    Schwarz Cutoff:          1E-12

    OpenMP threads:              1

  Minimum eigenvalue in the overlap matrix is 1.1387062625E-03.
  Using Symmetric Orthogonalization.

  SCF Guess: Superposition of Atomic Densities via on-the-fly atomic UHF.

  ==> Iterations <==

                        Total Energy        Delta E     RMS |[F,P]|

   @RHF iter SAD:  -527.06697193039349   -5.27067e+02   0.00000e+00
   @RHF iter   1:  -527.45479977096704   -3.87828e-01   2.91324e-03 DIIS
   @RHF iter   2:  -527.66512709475887   -2.10327e-01   1.65133e-03 DIIS
   @RHF iter   3:  -527.72945425983539   -6.43272e-02   4.04719e-04 DIIS
   @RHF iter   4:  -527.73462827684534   -5.17402e-03   1.44842e-04 DIIS
   @RHF iter   5:  -527.73528336663242   -6.55090e-04   2.66021e-05 DIIS
   @RHF iter   6:  -527.73531923348980   -3.58669e-05   1.19895e-05 DIIS
   @RHF iter   7:  -527.73532686333044   -7.62984e-06   4.43741e-06 DIIS
   @RHF iter   8:  -527.73532850599815   -1.64267e-06   1.59666e-06 DIIS
   @RHF iter   9:  -527.73532878858725   -2.82589e-07   7.20412e-07 DIIS
   @RHF iter  10:  -527.73532881888082   -3.02936e-08   2.30876e-07 DIIS
   @RHF iter  11:  -527.73532882356494   -4.68413e-09   8.27341e-08 DIIS
   @RHF iter  12:  -527.73532882407778   -5.12841e-10   4.29173e-08 DIIS
   @RHF iter  13:  -527.73532882418965   -1.11868e-10   1.11664e-08 DIIS
   @RHF iter  14:  -527.73532882419840   -8.75389e-12   4.76101e-09 DIIS
   @RHF iter  15:  -527.73532882420136   -2.95586e-12   1.76909e-09 DIIS
   @RHF iter  16:  -527.73532882420000    1.36424e-12   6.10335e-10 DIIS
   @RHF iter  17:  -527.73532882420193   -1.93268e-12   2.53387e-10 DIIS
   @RHF iter  18:  -527.73532882419761    4.32010e-12   5.29631e-11 DIIS
  Energy and wave function converged.

  ==> Post-Iterations <==

    Orbital Energies [Eh]
    ---------------------

    Doubly Occupied:

       1A    -15.630067     2A    -15.606155     3A    -15.532074
       4A    -15.514187     5A    -11.297617     6A    -11.279954
       7A    -11.257122     8A    -11.249841     9A    -11.239313
      10A    -11.230071    11A    -11.229517    12A    -11.215771
      13A     -1.347720    14A     -1.330828    15A     -1.158396
      16A     -1.141371    17A     -1.037150    18A     -1.019672
      19A     -0.947074    20A     -0.930150    21A     -0.823939
      22A     -0.805129    23A     -0.767125    24A     -0.751434
      25A     -0.747888    26A     -0.731273    27A     -0.615699
      28A     -0.613853    29A     -0.602610    30A     -0.599560
      31A     -0.588422    32A     -0.584045    33A     -0.557637
      34A     -0.551587    35A     -0.541375    36A     -0.533406
      37A     -0.524855    38A     -0.510963    39A     -0.412868
      40A     -0.394851    41A     -0.385161    42A     -0.364301
      43A     -0.316550    44A     -0.296415

    Virtual:

      45A      0.155207    46A      0.175844    47A      0.179641
      48A      0.190529    49A      0.204896    50A      0.210702
      51A      0.211823    52A      0.228092    53A      0.235250
      54A      0.240158    55A      0.255539    56A      0.265302
      57A      0.273402    58A      0.284290    59A      0.312098
      60A      0.327946    61A      0.366803    62A      0.377365
      63A      0.391564    64A      0.401856    65A      0.407671
      66A      0.426436    67A      0.467074    68A      0.478680
      69A      0.491961    70A      0.499978    71A      0.597527
      72A      0.615089    73A      0.620652    74A      0.628511
      75A      0.648305    76A      0.650529    77A      0.664179
      78A      0.671107    79A      0.676555    80A      0.695497
      81A      0.712036    82A      0.733454    83A      0.739814
      84A      0.756968    85A      0.778519    86A      0.783859
      87A      0.786356    88A      0.793725    89A      0.824815
      90A      0.831855    91A      0.842159    92A      0.850536
      93A      0.875366    94A      0.880808    95A      0.889389
      96A      0.896252    97A      0.903298    98A      0.908453
      99A      0.920824   100A      0.940017   101A      0.942116
     102A      0.959708   103A      0.964408   104A      0.974167
     105A      0.986102   106A      0.994789   107A      1.024517
     108A      1.031300   109A      1.051415   110A      1.060686
     111A      1.090502   112A      1.099540   113A      1.123009
     114A      1.128248   115A      1.136023   116A      1.145348
     117A      1.161339   118A      1.177084   119A      1.206608
     120A      1.229384   121A      1.253450   122A      1.263496
     123A      1.272043   124A      1.299626   125A      1.313408
     126A      1.321195   127A      1.321828   128A      1.336918
     129A      1.345632   130A      1.349664   131A      1.414770
     132A      1.437533   133A      1.452651   134A      1.475020
     135A      1.486287   136A      1.500592   137A      1.519758
     138A      1.548912   139A      1.564867   140A      1.590618
     141A      1.621586   142A      1.626041   143A      1.653277
     144A      1.658321   145A      1.687885   146A      1.705269
     147A      1.738809   148A      1.756963   149A      1.773292
     150A      1.800649   151A      1.811579   152A      1.822053
     153A      1.827292   154A      1.844572   155A      1.863187
     156A      1.883900   157A      1.903928   158A      1.916194
     159A      1.917002   160A      1.924990   161A      1.936200
     162A      1.943930   163A      1.950176   164A      1.958024
     165A      1.975883   166A      1.992527   167A      2.003090
     168A      2.005034   169A      2.024071   170A      2.050158
     171A      2.056874   172A      2.070904   173A      2.098295
     174A      2.128850   175A      2.131873   176A      2.162500
     177A      2.203812   178A      2.223268   179A      2.237140
     180A      2.245280   181A      2.251220   182A      2.273389
     183A      2.301277   184A      2.320742   185A      2.348958
     186A      2.351747   187A      2.374873   188A      2.386044
     189A      2.417431   190A      2.444248   191A      2.456280
     192A      2.470186   193A      2.478527   194A      2.506046
     195A      2.564401   196A      2.581311   197A      2.603797
     198A      2.629670   199A      2.690502   200A      2.699625
     201A      2.713351   202A      2.725448   203A      2.753140
     204A      2.763939   205A      2.777666   206A      2.791667
     207A      2.795424   208A      2.816271   209A      2.825830
     210A      2.850809   211A      2.857929   212A      2.869091
     213A      2.877801   214A      2.902290   215A      2.937651
     216A      2.959232   217A      2.977464   218A      2.986870
     219A      3.063340   220A      3.090469   221A      3.150699
     222A      3.183088   223A      3.233991   224A      3.244296
     225A      3.457765   226A      3.495188   227A      3.791794
     228A      3.817818

    Final Occupation by Irrep:
              A
    DOCC [    44 ]

  @RHF Final Energy:  -527.73532882419761

   => Energetics <=

    Nuclear Repulsion Energy =            675.1191125484989470
    One-Electron Energy =               -2056.0788872290568179
    Two-Electron Energy =                 853.2244458563603757
    Total Energy =                       -527.7353288241976088

Computation Completed

Properties will be evaluated at   0.000000,   0.000000,   0.000000 [a0]

Properties computed using the SCF density matrix

  Nuclear Dipole Moment: [e a0]
     X:    -6.8075      Y:    -0.6173      Z:    -0.6405

  Electronic Dipole Moment: [e a0]
     X:     6.9313      Y:     0.8169      Z:     3.0090

  Dipole Moment: [e a0]
     X:     0.1239      Y:     0.1996      Z:     2.3684     Total:     2.3800

  Dipole Moment: [D]
     X:     0.3148      Y:     0.5074      Z:     6.0199     Total:     6.0495

*** tstop() called on ds3 at Mon Apr 27 17:51:29 2020
Module time:
	user time   =     141.96 seconds =       2.37 minutes
	system time =      56.01 seconds =       0.93 minutes
	total time  =        193 seconds =       3.22 minutes
Total time:
	user time   =     141.96 seconds =       2.37 minutes
	system time =      56.01 seconds =       0.93 minutes
	total time  =        193 seconds =       3.22 minutes
                                     G D M A

                                 by Anthony Stone

                           version 2.2.06, 22 June 2011

               Distributed Multipoles from Gaussian wavefunctions

Starting at 17:51:29 on 27 Apr 2020

Using SCF density matrix from file ./SSI/SSI-034HIE-057HIE-1-dimer.test.10034.fchk

                         Distributed Multipole Analysis

Standard DMA

Positions and radii in angstrom
Multipole moments in atomic units, ea_0^k for rank k

C          x = -1.113952  y =  1.402495  z = -3.364186 angstrom
           Maximum rank =  0   Radius =  0.650 angstrom
                   Q00  =  -0.199845

C          x = -0.757952  y =  1.439495  z = -0.786186 angstrom
           Maximum rank =  0   Radius =  0.650 angstrom
                   Q00  =   0.008472

C          x = -0.329952  y =  1.456495  z = -2.075186 angstrom
           Maximum rank =  0   Radius =  0.650 angstrom
                   Q00  =   0.233159

C          x =  1.439048  y =  1.606495  z = -0.763186 angstrom
           Maximum rank =  0   Radius =  0.650 angstrom
                   Q00  =   0.456786

N          x =  0.365048  y =  1.524495  z =  0.012814 angstrom
           Maximum rank =  0   Radius =  0.650 angstrom
                   Q00  =  -0.470190

N          x =  1.039048  y =  1.536495  z = -2.014186 angstrom
           Maximum rank =  0   Radius =  0.650 angstrom
                   Q00  =  -0.766658

H          x = -1.786952  y =  1.369495  z = -0.456186 angstrom
           Maximum rank =  0   Radius =  0.325 angstrom
                   Q00  =   0.095643

H          x =  0.380048  y =  1.502495  z =  1.025814 angstrom
           Maximum rank =  0   Radius =  0.325 angstrom
                   Q00  =   0.214050

H          x = -0.601952  y =  1.951495  z = -4.153186 angstrom
           Maximum rank =  0   Radius =  0.325 angstrom
                   Q00  =   0.117071

H          x = -2.062952  y =  1.910495  z = -3.189186 angstrom
           Maximum rank =  0   Radius =  0.325 angstrom
                   Q00  =   0.089672

H          x =  2.468048  y =  1.671495  z = -0.422186 angstrom
           Maximum rank =  0   Radius =  0.325 angstrom
                   Q00  =   0.113277

H          x = -1.335192  y =  0.382218  z = -3.710726 angstrom
           Maximum rank =  0   Radius =  0.325 angstrom
                   Q00  =   0.104927

C          x = -2.202952  y = -2.040505  z =  1.094814 angstrom
           Maximum rank =  0   Radius =  0.650 angstrom
                   Q00  =  -0.194674

C          x = -0.774952  y = -1.679505  z =  1.402814 angstrom
           Maximum rank =  0   Radius =  0.650 angstrom
                   Q00  =   0.245896

C          x = -0.218952  y = -1.288505  z =  2.580814 angstrom
           Maximum rank =  0   Radius =  0.650 angstrom
                   Q00  =  -0.030916

C          x =  1.363048  y = -1.283505  z =  1.048814 angstrom
           Maximum rank =  0   Radius =  0.650 angstrom
                   Q00  =   0.449348

N          x =  0.227048  y = -1.633505  z =  0.453814 angstrom
           Maximum rank =  0   Radius =  0.650 angstrom
                   Q00  =  -0.757306

N          x =  1.116048  y = -1.048505  z =  2.334814 angstrom
           Maximum rank =  0   Radius =  0.650 angstrom
                   Q00  =  -0.472022

H          x = -2.761952  y = -1.109505  z =  0.995814 angstrom
           Maximum rank =  0   Radius =  0.325 angstrom
                   Q00  =   0.095820

H          x = -2.605952  y = -2.576505  z =  1.945814 angstrom
           Maximum rank =  0   Radius =  0.325 angstrom
                   Q00  =   0.096499

H          x = -0.734952  y = -1.190505  z =  3.527814 angstrom
           Maximum rank =  0   Radius =  0.325 angstrom
                   Q00  =   0.099502

H          x =  2.326048  y = -1.177505  z =  0.559814 angstrom
           Maximum rank =  0   Radius =  0.325 angstrom
                   Q00  =   0.125942

H          x =  1.811048  y = -0.757505  z =  3.015814 angstrom
           Maximum rank =  0   Radius =  0.325 angstrom
                   Q00  =   0.219064

H          x = -2.348332  y = -2.633430  z =  0.179774 angstrom
           Maximum rank =  0   Radius =  0.325 angstrom
                   Q00  =   0.126483

Total multipoles referred to origin at
           x =   0.000000,  y =    0.000000,  z =    0.000000 angstrom
                   Q00  =  -0.000000

Finished at 17:51:29 on 27 Apr 2020

  DMA results are available in the Python driver through the
	  variable('DMA DISTRIBUTED MULTIPOLES')
  and
	  variable('DMA TOTAL MULTIPOLES')
  commands.

    Psi4 stopped on: Monday, 27 April 2020 05:51PM
    Psi4 wall time for execution: 0:03:12.98

*** Psi4 exiting successfully. Buy a developer a beer!
