                               Psi4 1.3.2 release

  ==> Input File <==

--------------------------------------------------------------------------
import numpy as np
set {scf_type pk
basis cc-pvdz
d_convergence 10
gdma_switch   0
gdma_limit    0
gdma_origin   [ 0.0,  0.0,  0.0 ]
}
molecule test {
    units Angstrom
    -1 1
    --
    -1 1
    C               -2.588033096907723     0.636997141594616     0.501507373594088
    O               -1.840033096907723    -0.391002858405384     1.128507373594088
    H               -0.882033096907723    -0.191002858405384     1.021507373594087
    H               -2.417033096907723     0.593997141594616    -0.573492626405912
    H               -2.261033096907723     1.609997141594616     0.870507373594087
    H               -3.660313096907723     0.504037141594616     0.707767373594088
    C                0.489966903092277    -0.924002858405384    -1.381492626405912
    C                1.229966903092277    -0.022002858405384    -0.388492626405912
    O                0.813966903092277     0.023997141594616     0.792507373594088
    O                2.206966903092277     0.653997141594616    -0.789492626405912
    H               -0.442033096907723    -0.425002858405384    -1.654492626405912
    H                0.206966903092277    -1.868002858405384    -0.914492626405912
    H                1.050036903092277    -1.099472858405384    -2.311832626405912

}
e, wfn = energy('scf', return_wfn=True)
gdma(wfn)
dmavals = variable('DMA DISTRIBUTED MULTIPOLES')
charges = np.array(dmavals)
print(charges)
np.save('SSI-030SER-109GLU-1-dimer.npy', np.array(charges))--------------------------------------------------------------------------

*** tstart() called on ds3
*** at Tue Apr 28 15:00:20 2020

   => Loading Basis Set <=

    Name: CC-PVDZ
    Role: ORBITAL
    Keyword: BASIS
    atoms 1, 7-8     entry C          line   138 file /theoryfs2/ds/metcalf/miniconda2/envs/tf2gpu/share/psi4/basis/cc-pvdz.gbs
    atoms 2, 9-10    entry O          line   198 file /theoryfs2/ds/metcalf/miniconda2/envs/tf2gpu/share/psi4/basis/cc-pvdz.gbs
    atoms 3-6, 11-13 entry H          line    22 file /theoryfs2/ds/metcalf/miniconda2/envs/tf2gpu/share/psi4/basis/cc-pvdz.gbs

         ---------------------------------------------------------
                                   SCF
               by Justin Turney, Rob Parrish, Andy Simmonett
                          and Daniel G. A. Smith
                              RHF Reference
                        1 Threads,    500 MiB Core
         ---------------------------------------------------------

  ==> Geometry <==

    Molecular point group: c1
    Full point group: C1

    Geometry (in Angstrom), charge = -1, multiplicity = 1:

       Center              X                  Y                   Z               Mass
    ------------   -----------------  -----------------  -----------------  -----------------
         C           -2.588033096908     0.636997141595     0.501507373594    12.000000000000
         O           -1.840033096908    -0.391002858405     1.128507373594    15.994914619570
         H           -0.882033096908    -0.191002858405     1.021507373594     1.007825032230
         H           -2.417033096908     0.593997141595    -0.573492626406     1.007825032230
         H           -2.261033096908     1.609997141595     0.870507373594     1.007825032230
         H           -3.660313096908     0.504037141595     0.707767373594     1.007825032230
         C            0.489966903092    -0.924002858405    -1.381492626406    12.000000000000
         C            1.229966903092    -0.022002858405    -0.388492626406    12.000000000000
         O            0.813966903092     0.023997141595     0.792507373594    15.994914619570
         O            2.206966903092     0.653997141595    -0.789492626406    15.994914619570
         H           -0.442033096908    -0.425002858405    -1.654492626406     1.007825032230
         H            0.206966903092    -1.868002858405    -0.914492626406     1.007825032230
         H            1.050036903092    -1.099472858405    -2.311832626406     1.007825032230

  Running in c1 symmetry.

  Rotational constants: A =      0.21292  B =      0.05091  C =      0.04737 [cm^-1]
  Rotational constants: A =   6383.25194  B =   1526.22071  C =   1420.04510 [MHz]
  Nuclear repulsion =  233.278639988079476

  Charge       = -1
  Multiplicity = 1
  Electrons    = 50
  Nalpha       = 25
  Nbeta        = 25

  ==> Algorithm <==

  SCF Algorithm Type is PK.
  DIIS enabled.
  MOM disabled.
  Fractional occupation disabled.
  Guess Type is SAD.
  Energy threshold   = 1.00e-06
  Density threshold  = 1.00e-10
  Integral threshold = 0.00e+00

  ==> Primary Basis <==

  Basis Set: CC-PVDZ
    Blend: CC-PVDZ
    Number of shells: 57
    Number of basis function: 119
    Number of Cartesian functions: 125
    Spherical Harmonics?: true
    Max angular momentum: 2

  ==> Pre-Iterations <==

   -------------------------------------------------------
    Irrep   Nso     Nmo     Nalpha   Nbeta   Ndocc  Nsocc
   -------------------------------------------------------
     A        119     119       0       0       0       0
   -------------------------------------------------------
    Total     119     119      25      25      25       0
   -------------------------------------------------------

  ==> Integral Setup <==

  Using integral reordering PK algorithm.
  Sizing the integral batches needed.
  Building batch lookup table.
   Calculation information:
      Number of atoms:                  13
      Number of AO shells:              57
      Number of primitives:            167
      Number of atomic orbitals:       125
      Number of basis functions:       119

      Integral cutoff                 1.00e-12
      Number of threads:                 1

	Batch   1 pq = [       0,    7140] index = [             0,25493370] size =     25493370
  Task number: 3
  Buffer size: 11059200
  Buffer per thread: 2
  We computed 1252119 shell quartets total.
  Whereas there are 1367031 unique shell quartets.

  ==> DiskJK: Disk-Based J/K Matrices <==

    J tasked:                  Yes
    K tasked:                  Yes
    wK tasked:                  No
    Memory [MiB]:              375
    Schwarz Cutoff:          1E-12

    OpenMP threads:              1

  Minimum eigenvalue in the overlap matrix is 5.6184246670E-03.
  Using Symmetric Orthogonalization.

  SCF Guess: Superposition of Atomic Densities via on-the-fly atomic UHF.

  ==> Iterations <==

                        Total Energy        Delta E     RMS |[F,P]|

   @RHF iter SAD:  -340.65161636938683   -3.40652e+02   0.00000e+00
   @RHF iter   1:  -342.08236057065210   -1.43074e+00   5.97646e-03 DIIS
   @RHF iter   2:  -342.25255043553619   -1.70190e-01   3.45404e-03 DIIS
   @RHF iter   3:  -342.31128040510742   -5.87300e-02   4.77177e-04 DIIS
   @RHF iter   4:  -342.31338418648215   -2.10378e-03   1.76086e-04 DIIS
   @RHF iter   5:  -342.31367959371954   -2.95407e-04   3.90927e-05 DIIS
   @RHF iter   6:  -342.31369326784352   -1.36741e-05   1.68688e-05 DIIS
   @RHF iter   7:  -342.31369555053277   -2.28269e-06   3.58346e-06 DIIS
   @RHF iter   8:  -342.31369579193904   -2.41406e-07   1.78349e-06 DIIS
   @RHF iter   9:  -342.31369583215019   -4.02111e-08   7.39331e-07 DIIS
   @RHF iter  10:  -342.31369584406002   -1.19098e-08   2.22429e-07 DIIS
   @RHF iter  11:  -342.31369584521661   -1.15659e-09   5.27158e-08 DIIS
   @RHF iter  12:  -342.31369584526578   -4.91696e-11   1.69473e-08 DIIS
   @RHF iter  13:  -342.31369584526908   -3.29692e-12   4.36765e-09 DIIS
   @RHF iter  14:  -342.31369584526811    9.66338e-13   1.25925e-09 DIIS
   @RHF iter  15:  -342.31369584527181   -3.69482e-12   4.78390e-10 DIIS
   @RHF iter  16:  -342.31369584527152    2.84217e-13   1.48746e-10 DIIS
   @RHF iter  17:  -342.31369584527226   -7.38964e-13   6.62248e-11 DIIS
  Energy and wave function converged.

  ==> Post-Iterations <==

    Orbital Energies [Eh]
    ---------------------

    Doubly Occupied:

       1A    -20.368836     2A    -20.287484     3A    -20.276435
       4A    -11.137947     5A    -11.134619     6A    -11.060996
       7A     -1.177751     8A     -1.166722     9A     -1.057301
      10A     -0.806463    11A     -0.773041    12A     -0.533970
      13A     -0.509685    14A     -0.469151    15A     -0.440722
      16A     -0.422265    17A     -0.418099    18A     -0.415948
      19A     -0.361151    20A     -0.337869    21A     -0.318323
      22A     -0.276453    23A     -0.205576    24A     -0.191297
      25A     -0.184110

    Virtual:

      26A      0.314930    27A      0.354420    28A      0.380878
      29A      0.390164    30A      0.408569    31A      0.433896
      32A      0.464594    33A      0.502013    34A      0.564399
      35A      0.588476    36A      0.684313    37A      0.734563
      38A      0.766541    39A      0.787760    40A      0.812875
      41A      0.869138    42A      0.878470    43A      0.936747
      44A      0.948077    45A      0.966974    46A      1.003756
      47A      1.020354    48A      1.035907    49A      1.046072
      50A      1.054590    51A      1.064976    52A      1.079980
      53A      1.119045    54A      1.207282    55A      1.266217
      56A      1.306477    57A      1.325533    58A      1.336136
      59A      1.350234    60A      1.388588    61A      1.500328
      62A      1.512001    63A      1.535119    64A      1.553076
      65A      1.589915    66A      1.618770    67A      1.662820
      68A      1.675191    69A      1.726940    70A      1.802289
      71A      1.810236    72A      1.833659    73A      1.839689
      74A      1.852020    75A      1.864799    76A      2.001980
      77A      2.026718    78A      2.055560    79A      2.077554
      80A      2.084790    81A      2.092487    82A      2.114642
      83A      2.143966    84A      2.193527    85A      2.211107
      86A      2.229744    87A      2.318229    88A      2.322379
      89A      2.404718    90A      2.421284    91A      2.457670
      92A      2.503545    93A      2.531874    94A      2.572894
      95A      2.653836    96A      2.673299    97A      2.730039
      98A      2.852007    99A      2.902666   100A      2.908501
     101A      2.918739   102A      2.931041   103A      2.987306
     104A      2.991869   105A      3.241697   106A      3.265141
     107A      3.319899   108A      3.400871   109A      3.478324
     110A      3.566650   111A      3.602428   112A      3.632597
     113A      3.754525   114A      3.773623   115A      3.807698
     116A      4.030292   117A      4.089058   118A      4.166429
     119A      4.325235

    Final Occupation by Irrep:
              A
    DOCC [    25 ]

  @RHF Final Energy:  -342.31369584527226

   => Energetics <=

    Nuclear Repulsion Energy =            233.2786399880794761
    One-Electron Energy =                -942.5202433403956093
    Two-Electron Energy =                 366.9279075070438694
    Total Energy =                       -342.3136958452722638

Computation Completed

Properties will be evaluated at   0.000000,   0.000000,   0.000000 [a0]

Properties computed using the SCF density matrix

  Nuclear Dipole Moment: [e a0]
     X:    -7.8742      Y:    -0.8193      Z:    -2.6706

  Electronic Dipole Moment: [e a0]
     X:     5.9142      Y:     0.5342      Z:     2.0100

  Dipole Moment: [e a0]
     X:    -1.9600      Y:    -0.2851      Z:    -0.6606     Total:     2.0879

  Dipole Moment: [D]
     X:    -4.9818      Y:    -0.7248      Z:    -1.6791     Total:     5.3069

*** tstop() called on ds3 at Tue Apr 28 15:00:36 2020
Module time:
	user time   =      10.84 seconds =       0.18 minutes
	system time =       3.84 seconds =       0.06 minutes
	total time  =         16 seconds =       0.27 minutes
Total time:
	user time   =      10.84 seconds =       0.18 minutes
	system time =       3.84 seconds =       0.06 minutes
	total time  =         16 seconds =       0.27 minutes
                                     G D M A

                                 by Anthony Stone

                           version 2.2.06, 22 June 2011

               Distributed Multipoles from Gaussian wavefunctions

Starting at 15:0:36 on 28 Apr 2020

Using SCF density matrix from file ./SSI/SSI-030SER-109GLU-1-dimer.test.27771.fchk

                         Distributed Multipole Analysis

Standard DMA

Positions and radii in angstrom
Multipole moments in atomic units, ea_0^k for rank k

C          x = -2.588033  y =  0.636997  z =  0.501507 angstrom
           Maximum rank =  0   Radius =  0.650 angstrom
                   Q00  =   0.008938

O          x = -1.840033  y = -0.391003  z =  1.128507 angstrom
           Maximum rank =  0   Radius =  0.650 angstrom
                   Q00  =  -0.697378

H          x = -0.882033  y = -0.191003  z =  1.021507 angstrom
           Maximum rank =  0   Radius =  0.325 angstrom
                   Q00  =   0.532052

H          x = -2.417033  y =  0.593997  z = -0.573493 angstrom
           Maximum rank =  0   Radius =  0.325 angstrom
                   Q00  =   0.032033

H          x = -2.261033  y =  1.609997  z =  0.870507 angstrom
           Maximum rank =  0   Radius =  0.325 angstrom
                   Q00  =   0.047850

H          x = -3.660313  y =  0.504037  z =  0.707767 angstrom
           Maximum rank =  0   Radius =  0.325 angstrom
                   Q00  =   0.056470

C          x =  0.489967  y = -0.924003  z = -1.381493 angstrom
           Maximum rank =  0   Radius =  0.650 angstrom
                   Q00  =  -0.293828

C          x =  1.229967  y = -0.022003  z = -0.388493 angstrom
           Maximum rank =  0   Radius =  0.650 angstrom
                   Q00  =   0.939356

O          x =  0.813967  y =  0.023997  z =  0.792507 angstrom
           Maximum rank =  0   Radius =  0.650 angstrom
                   Q00  =  -0.945319

O          x =  2.206967  y =  0.653997  z = -0.789493 angstrom
           Maximum rank =  0   Radius =  0.650 angstrom
                   Q00  =  -0.901365

H          x = -0.442033  y = -0.425003  z = -1.654493 angstrom
           Maximum rank =  0   Radius =  0.325 angstrom
                   Q00  =   0.085599

H          x =  0.206967  y = -1.868003  z = -0.914493 angstrom
           Maximum rank =  0   Radius =  0.325 angstrom
                   Q00  =   0.076973

H          x =  1.050037  y = -1.099473  z = -2.311833 angstrom
           Maximum rank =  0   Radius =  0.325 angstrom
                   Q00  =   0.058620

Total multipoles referred to origin at
           x =   0.000000,  y =    0.000000,  z =    0.000000 angstrom
                   Q00  =  -1.000000

Finished at 15:0:36 on 28 Apr 2020

  DMA results are available in the Python driver through the
	  variable('DMA DISTRIBUTED MULTIPOLES')
  and
	  variable('DMA TOTAL MULTIPOLES')
  commands.

    Psi4 stopped on: Tuesday, 28 April 2020 03:00PM
    Psi4 wall time for execution: 0:00:16.11

*** Psi4 exiting successfully. Buy a developer a beer!
