                               Psi4 1.3.2 release

  ==> Input File <==

--------------------------------------------------------------------------
import numpy as np
set {scf_type pk
basis cc-pvdz
d_convergence 10
gdma_switch   0
gdma_limit    0
gdma_origin   [ 0.0,  0.0,  0.0 ]
}
molecule test {
    units Angstrom
    0 1
    --
    0 1
    C                1.417446473795029    -1.498722698680328    -2.630740829655005
    C                2.755446473795029    -1.054722698680328    -3.083740829655005
    C                0.842446473795029    -2.701722698680328    -3.459740829655005
    H                1.534446473795029    -1.827722698680329    -1.603740829655005
    H                0.707446473795029    -0.673722698680329    -2.620740829655005
    H                3.442446473795029    -1.903722698680328    -3.094740829655005
    H                3.127446473795029    -0.335722698680328    -2.350740829655005
    H                0.679446473795029    -2.403722698680328    -4.496740829655004
    H                1.524446473795029    -3.552722698680328    -3.421740829655005
    H                2.738836473795029    -0.578209698680329    -4.075030829655005
    H               -0.126933526204971    -2.918882698680328    -2.987360829655005
    C                1.853446473795029     1.532277301319672     2.483259170344995
    C               -0.740553526204971     0.534277301319671    -0.155740829655005
    C               -1.857553526204971     0.321277301319671     0.650259170344995
    C                0.462446473795029     0.925277301319671     0.446259170344995
    C                0.553446473795029     1.118277301319672     1.825259170344995
    C               -1.778553526204971     0.499277301319672     2.031259170344995
    C               -0.578553526204971     0.899277301319672     2.603259170344995
    O               -3.064553526204971    -0.026722698680328     0.156259170344995
    H               -0.821553526204971     0.413277301319671    -1.223740829655005
    H                1.334446473795029     1.090277301319671    -0.172740829655005
    H               -2.635553526204971     0.315277301319672     2.649259170344995
    H               -3.720553526204970    -0.094722698680328     0.849259170344995
    H                1.609446473795029     2.318277301319672     3.195259170344995
    H                2.518446473795029     1.970277301319671     1.737259170344995
    H               -0.527553526204971     1.042277301319672     3.673259170344995
    H                2.371346473795029     0.719872301319671     3.014089170344995

}
e, wfn = energy('scf', return_wfn=True)
gdma(wfn)
dmavals = variable('DMA DISTRIBUTED MULTIPOLES')
charges = np.array(dmavals)
print(charges)
np.save('SSI-007ARG-062TYR-1-dimer.npy', np.array(charges))--------------------------------------------------------------------------

*** tstart() called on ds3
*** at Tue Apr 28 14:39:32 2020

   => Loading Basis Set <=

    Name: CC-PVDZ
    Role: ORBITAL
    Keyword: BASIS
    atoms 1-3, 12-18  entry C          line   138 file /theoryfs2/ds/metcalf/miniconda2/envs/tf2gpu/share/psi4/basis/cc-pvdz.gbs
    atoms 4-11, 20-27 entry H          line    22 file /theoryfs2/ds/metcalf/miniconda2/envs/tf2gpu/share/psi4/basis/cc-pvdz.gbs
    atoms 19          entry O          line   198 file /theoryfs2/ds/metcalf/miniconda2/envs/tf2gpu/share/psi4/basis/cc-pvdz.gbs

         ---------------------------------------------------------
                                   SCF
               by Justin Turney, Rob Parrish, Andy Simmonett
                          and Daniel G. A. Smith
                              RHF Reference
                        1 Threads,    500 MiB Core
         ---------------------------------------------------------

  ==> Geometry <==

    Molecular point group: c1
    Full point group: C1

    Geometry (in Angstrom), charge = 0, multiplicity = 1:

       Center              X                  Y                   Z               Mass
    ------------   -----------------  -----------------  -----------------  -----------------
         C            1.417446473795    -1.498722698680    -2.630740829655    12.000000000000
         C            2.755446473795    -1.054722698680    -3.083740829655    12.000000000000
         C            0.842446473795    -2.701722698680    -3.459740829655    12.000000000000
         H            1.534446473795    -1.827722698680    -1.603740829655     1.007825032230
         H            0.707446473795    -0.673722698680    -2.620740829655     1.007825032230
         H            3.442446473795    -1.903722698680    -3.094740829655     1.007825032230
         H            3.127446473795    -0.335722698680    -2.350740829655     1.007825032230
         H            0.679446473795    -2.403722698680    -4.496740829655     1.007825032230
         H            1.524446473795    -3.552722698680    -3.421740829655     1.007825032230
         H            2.738836473795    -0.578209698680    -4.075030829655     1.007825032230
         H           -0.126933526205    -2.918882698680    -2.987360829655     1.007825032230
         C            1.853446473795     1.532277301320     2.483259170345    12.000000000000
         C           -0.740553526205     0.534277301320    -0.155740829655    12.000000000000
         C           -1.857553526205     0.321277301320     0.650259170345    12.000000000000
         C            0.462446473795     0.925277301320     0.446259170345    12.000000000000
         C            0.553446473795     1.118277301320     1.825259170345    12.000000000000
         C           -1.778553526205     0.499277301320     2.031259170345    12.000000000000
         C           -0.578553526205     0.899277301320     2.603259170345    12.000000000000
         O           -3.064553526205    -0.026722698680     0.156259170345    15.994914619570
         H           -0.821553526205     0.413277301320    -1.223740829655     1.007825032230
         H            1.334446473795     1.090277301320    -0.172740829655     1.007825032230
         H           -2.635553526205     0.315277301320     2.649259170345     1.007825032230
         H           -3.720553526205    -0.094722698680     0.849259170345     1.007825032230
         H            1.609446473795     2.318277301320     3.195259170345     1.007825032230
         H            2.518446473795     1.970277301320     1.737259170345     1.007825032230
         H           -0.527553526205     1.042277301320     3.673259170345     1.007825032230
         H            2.371346473795     0.719872301320     3.014089170345     1.007825032230

  Running in c1 symmetry.

  Rotational constants: A =      0.04033  B =      0.01579  C =      0.01187 [cm^-1]
  Rotational constants: A =   1209.18018  B =    473.50872  C =    355.78932 [MHz]
  Nuclear repulsion =  565.884850002677922

  Charge       = 0
  Multiplicity = 1
  Electrons    = 84
  Nalpha       = 42
  Nbeta        = 42

  ==> Algorithm <==

  SCF Algorithm Type is PK.
  DIIS enabled.
  MOM disabled.
  Fractional occupation disabled.
  Guess Type is SAD.
  Energy threshold   = 1.00e-06
  Density threshold  = 1.00e-10
  Integral threshold = 0.00e+00

  ==> Primary Basis <==

  Basis Set: CC-PVDZ
    Blend: CC-PVDZ
    Number of shells: 114
    Number of basis function: 234
    Number of Cartesian functions: 245
    Spherical Harmonics?: true
    Max angular momentum: 2

  ==> Pre-Iterations <==

   -------------------------------------------------------
    Irrep   Nso     Nmo     Nalpha   Nbeta   Ndocc  Nsocc
   -------------------------------------------------------
     A        234     234       0       0       0       0
   -------------------------------------------------------
    Total     234     234      42      42      42       0
   -------------------------------------------------------

  ==> Integral Setup <==

  Using integral reordering PK algorithm.
  Sizing the integral batches needed.
  Building batch lookup table.
   Calculation information:
      Number of atoms:                  27
      Number of AO shells:             114
      Number of primitives:            322
      Number of atomic orbitals:       245
      Number of basis functions:       234

      Integral cutoff                 1.00e-12
      Number of threads:                 1

	Batch   1 pq = [       0,    9405] index = [             0,44231715] size =     44231715
	Batch   2 pq = [    9405,   13301] index = [      44231715,88464951] size =     44233236
	Batch   3 pq = [   13301,   16290] index = [      88464951,132690195] size =     44225244
	Batch   4 pq = [   16290,   18810] index = [     132690195,176917455] size =     44227260
	Batch   5 pq = [   18810,   21030] index = [     176917455,221140965] size =     44223510
	Batch   6 pq = [   21030,   23037] index = [     221140965,265363203] size =     44222238
	Batch   7 pq = [   23037,   24883] index = [     265363203,309594286] size =     44231083
	Batch   8 pq = [   24883,   26601] index = [     309594286,353819901] size =     44225615
	Batch   9 pq = [   26601,   27495] index = [     353819901,378001260] size =     24181359
  Task number: 35
  Buffer size: 11059200
  Buffer per thread: 2
  We computed 17539528 shell quartets total.
  Whereas there are 21487290 unique shell quartets.

  ==> DiskJK: Disk-Based J/K Matrices <==

    J tasked:                  Yes
    K tasked:                  Yes
    wK tasked:                  No
    Memory [MiB]:              375
    Schwarz Cutoff:          1E-12

    OpenMP threads:              1

  Minimum eigenvalue in the overlap matrix is 3.1981313906E-04.
  Using Symmetric Orthogonalization.

  SCF Guess: Superposition of Atomic Densities via on-the-fly atomic UHF.

  ==> Iterations <==

                        Total Energy        Delta E     RMS |[F,P]|

   @RHF iter SAD:  -461.73471203323470   -4.61735e+02   0.00000e+00
   @RHF iter   1:  -462.59977088902764   -8.65059e-01   2.83204e-03 DIIS
   @RHF iter   2:  -462.84411841931814   -2.44348e-01   1.20260e-03 DIIS
   @RHF iter   3:  -462.88419438733365   -4.00760e-02   2.69441e-04 DIIS
   @RHF iter   4:  -462.88746166290571   -3.26728e-03   1.05362e-04 DIIS
   @RHF iter   5:  -462.88781735806594   -3.55695e-04   2.04415e-05 DIIS
   @RHF iter   6:  -462.88783712875767   -1.97707e-05   6.42768e-06 DIIS
   @RHF iter   7:  -462.88783923346307   -2.10471e-06   1.97795e-06 DIIS
   @RHF iter   8:  -462.88783953416873   -3.00706e-07   7.91491e-07 DIIS
   @RHF iter   9:  -462.88783959506429   -6.08956e-08   3.69450e-07 DIIS
   @RHF iter  10:  -462.88783960956670   -1.45024e-08   1.65753e-07 DIIS
   @RHF iter  11:  -462.88783961422735   -4.66065e-09   6.10464e-08 DIIS
   @RHF iter  12:  -462.88783961480101   -5.73664e-10   2.47054e-08 DIIS
   @RHF iter  13:  -462.88783961485575   -5.47402e-11   8.07058e-09 DIIS
   @RHF iter  14:  -462.88783961485933   -3.58114e-12   1.97154e-09 DIIS
   @RHF iter  15:  -462.88783961485944   -1.13687e-13   7.93387e-10 DIIS
   @RHF iter  16:  -462.88783961486115   -1.70530e-12   3.04069e-10 DIIS
   @RHF iter  17:  -462.88783961486087    2.84217e-13   1.41771e-10 DIIS
   @RHF iter  18:  -462.88783961485996    9.09495e-13   6.52528e-11 DIIS
  Energy and wave function converged.

  ==> Post-Iterations <==

    Orbital Energies [Eh]
    ---------------------

    Doubly Occupied:

       1A    -20.582206     2A    -11.299785     3A    -11.240122
       4A    -11.237710     5A    -11.232594     6A    -11.231463
       7A    -11.230669     8A    -11.228538     9A    -11.215915
      10A    -11.214771    11A    -11.211487    12A     -1.407541
      13A     -1.149720    14A     -1.054163    15A     -1.035669
      16A     -1.017821    17A     -0.925746    18A     -0.922700
      19A     -0.845676    20A     -0.805016    21A     -0.792434
      22A     -0.734619    23A     -0.670885    24A     -0.643791
      25A     -0.624866    26A     -0.606860    27A     -0.592672
      28A     -0.589255    29A     -0.585988    30A     -0.571617
      31A     -0.566564    32A     -0.553309    33A     -0.532270
      34A     -0.525848    35A     -0.497848    36A     -0.485617
      37A     -0.479211    38A     -0.466256    39A     -0.464603
      40A     -0.451055    41A     -0.338498    42A     -0.300373

    Virtual:

      43A      0.129153    44A      0.155838    45A      0.169037
      46A      0.179703    47A      0.192580    48A      0.211403
      49A      0.215216    50A      0.227736    51A      0.238126
      52A      0.256339    53A      0.263683    54A      0.269218
      55A      0.279938    56A      0.282906    57A      0.286057
      58A      0.305242    59A      0.330748    60A      0.340429
      61A      0.367126    62A      0.375254    63A      0.390049
      64A      0.429613    65A      0.432912    66A      0.455225
      67A      0.486675    68A      0.498761    69A      0.509438
      70A      0.586279    71A      0.601441    72A      0.613705
      73A      0.614920    74A      0.622075    75A      0.628812
      76A      0.640299    77A      0.655449    78A      0.672500
      79A      0.689320    80A      0.696314    81A      0.712901
      82A      0.731010    83A      0.738014    84A      0.759528
      85A      0.764971    86A      0.771854    87A      0.783052
      88A      0.786417    89A      0.797980    90A      0.815771
      91A      0.829604    92A      0.840871    93A      0.851277
      94A      0.876039    95A      0.879126    96A      0.886138
      97A      0.896574    98A      0.900030    99A      0.901842
     100A      0.904821   101A      0.909488   102A      0.913897
     103A      0.916022   104A      0.920896   105A      0.935303
     106A      0.939126   107A      0.945228   108A      0.947866
     109A      0.965302   110A      0.982931   111A      1.003665
     112A      1.020935   113A      1.037402   114A      1.059766
     115A      1.115578   116A      1.135244   117A      1.137257
     118A      1.140417   119A      1.146213   120A      1.176012
     121A      1.209263   122A      1.224596   123A      1.238865
     124A      1.259175   125A      1.281854   126A      1.287700
     127A      1.291070   128A      1.311681   129A      1.315820
     130A      1.351731   131A      1.365500   132A      1.396945
     133A      1.401840   134A      1.461907   135A      1.484329
     136A      1.487947   137A      1.513827   138A      1.524928
     139A      1.536398   140A      1.558261   141A      1.621502
     142A      1.622297   143A      1.644042   144A      1.679415
     145A      1.681584   146A      1.688947   147A      1.697130
     148A      1.707952   149A      1.732027   150A      1.750531
     151A      1.782166   152A      1.798905   153A      1.803078
     154A      1.855443   155A      1.859815   156A      1.873205
     157A      1.885900   158A      1.890048   159A      1.891666
     160A      1.899193   161A      1.907509   162A      1.916262
     163A      1.917860   164A      1.927543   165A      1.946929
     166A      1.951762   167A      1.962911   168A      1.969547
     169A      1.971332   170A      1.982484   171A      1.991390
     172A      2.002009   173A      2.004366   174A      2.022980
     175A      2.030793   176A      2.048455   177A      2.060948
     178A      2.067341   179A      2.074784   180A      2.079567
     181A      2.135097   182A      2.140785   183A      2.149940
     184A      2.160696   185A      2.171171   186A      2.200164
     187A      2.230642   188A      2.260799   189A      2.271157
     190A      2.275724   191A      2.305691   192A      2.320292
     193A      2.336017   194A      2.351158   195A      2.368246
     196A      2.372517   197A      2.415473   198A      2.469969
     199A      2.477909   200A      2.501571   201A      2.503334
     202A      2.522848   203A      2.531686   204A      2.538511
     205A      2.585193   206A      2.604552   207A      2.610447
     208A      2.632573   209A      2.665338   210A      2.754990
     211A      2.762921   212A      2.769157   213A      2.774026
     214A      2.786166   215A      2.794864   216A      2.817211
     217A      2.828107   218A      2.844842   219A      2.896186
     220A      2.915211   221A      2.961312   222A      2.963515
     223A      2.986439   224A      3.002766   225A      3.079317
     226A      3.090736   227A      3.115551   228A      3.262883
     229A      3.284209   230A      3.351748   231A      3.591324
     232A      3.669548   233A      3.996114   234A      4.191527

    Final Occupation by Irrep:
              A
    DOCC [    42 ]

  @RHF Final Energy:  -462.88783961485996

   => Energetics <=

    Nuclear Repulsion Energy =            565.8848500026779220
    One-Electron Energy =               -1749.2178758755819672
    Two-Electron Energy =                 720.4451862580441457
    Total Energy =                       -462.8878396148598995

Computation Completed

Properties will be evaluated at   0.000000,   0.000000,   0.000000 [a0]

Properties computed using the SCF density matrix

  Nuclear Dipole Moment: [e a0]
     X:    12.8812      Y:    -6.0183      Z:   -10.2448

  Electronic Dipole Moment: [e a0]
     X:   -12.9734      Y:     6.0881      Z:    10.8794

  Dipole Moment: [e a0]
     X:    -0.0923      Y:     0.0698      Z:     0.6346     Total:     0.6451

  Dipole Moment: [D]
     X:    -0.2346      Y:     0.1773      Z:     1.6131     Total:     1.6396

*** tstop() called on ds3 at Tue Apr 28 14:44:17 2020
Module time:
	user time   =     129.86 seconds =       2.16 minutes
	system time =      57.10 seconds =       0.95 minutes
	total time  =        285 seconds =       4.75 minutes
Total time:
	user time   =     129.86 seconds =       2.16 minutes
	system time =      57.10 seconds =       0.95 minutes
	total time  =        285 seconds =       4.75 minutes
                                     G D M A

                                 by Anthony Stone

                           version 2.2.06, 22 June 2011

               Distributed Multipoles from Gaussian wavefunctions

Starting at 14:44:17 on 28 Apr 2020

Using SCF density matrix from file ./SSI/SSI-007ARG-062TYR-1-dimer.test.7072.fchk

                         Distributed Multipole Analysis

Standard DMA

Positions and radii in angstrom
Multipole moments in atomic units, ea_0^k for rank k

C          x =  1.417446  y = -1.498723  z = -2.630741 angstrom
           Maximum rank =  0   Radius =  0.650 angstrom
                   Q00  =  -0.081185

C          x =  2.755446  y = -1.054723  z = -3.083741 angstrom
           Maximum rank =  0   Radius =  0.650 angstrom
                   Q00  =  -0.221710

C          x =  0.842446  y = -2.701723  z = -3.459741 angstrom
           Maximum rank =  0   Radius =  0.650 angstrom
                   Q00  =  -0.256152

H          x =  1.534446  y = -1.827723  z = -1.603741 angstrom
           Maximum rank =  0   Radius =  0.325 angstrom
                   Q00  =   0.046847

H          x =  0.707446  y = -0.673723  z = -2.620741 angstrom
           Maximum rank =  0   Radius =  0.325 angstrom
                   Q00  =   0.045523

H          x =  3.442446  y = -1.903723  z = -3.094741 angstrom
           Maximum rank =  0   Radius =  0.325 angstrom
                   Q00  =   0.073611

H          x =  3.127446  y = -0.335723  z = -2.350741 angstrom
           Maximum rank =  0   Radius =  0.325 angstrom
                   Q00  =   0.071135

H          x =  0.679446  y = -2.403723  z = -4.496741 angstrom
           Maximum rank =  0   Radius =  0.325 angstrom
                   Q00  =   0.078948

H          x =  1.524446  y = -3.552723  z = -3.421741 angstrom
           Maximum rank =  0   Radius =  0.325 angstrom
                   Q00  =   0.083489

H          x =  2.738836  y = -0.578210  z = -4.075031 angstrom
           Maximum rank =  0   Radius =  0.325 angstrom
                   Q00  =   0.073588

H          x = -0.126934  y = -2.918883  z = -2.987361 angstrom
           Maximum rank =  0   Radius =  0.325 angstrom
                   Q00  =   0.085080

C          x =  1.853446  y =  1.532277  z =  2.483259 angstrom
           Maximum rank =  0   Radius =  0.650 angstrom
                   Q00  =  -0.196241

C          x = -0.740554  y =  0.534277  z = -0.155741 angstrom
           Maximum rank =  0   Radius =  0.650 angstrom
                   Q00  =  -0.126955

C          x = -1.857554  y =  0.321277  z =  0.650259 angstrom
           Maximum rank =  0   Radius =  0.650 angstrom
                   Q00  =   0.275858

C          x =  0.462446  y =  0.925277  z =  0.446259 angstrom
           Maximum rank =  0   Radius =  0.650 angstrom
                   Q00  =  -0.007694

C          x =  0.553446  y =  1.118277  z =  1.825259 angstrom
           Maximum rank =  0   Radius =  0.650 angstrom
                   Q00  =  -0.148001

C          x = -1.778554  y =  0.499277  z =  2.031259 angstrom
           Maximum rank =  0   Radius =  0.650 angstrom
                   Q00  =  -0.177537

C          x = -0.578554  y =  0.899277  z =  2.603259 angstrom
           Maximum rank =  0   Radius =  0.650 angstrom
                   Q00  =   0.038055

O          x = -3.064554  y = -0.026723  z =  0.156259 angstrom
           Maximum rank =  0   Radius =  0.650 angstrom
                   Q00  =  -0.632215

H          x = -0.821554  y =  0.413277  z = -1.223741 angstrom
           Maximum rank =  0   Radius =  0.325 angstrom
                   Q00  =   0.077943

H          x =  1.334446  y =  1.090277  z = -0.172741 angstrom
           Maximum rank =  0   Radius =  0.325 angstrom
                   Q00  =   0.065745

H          x = -2.635554  y =  0.315277  z =  2.649259 angstrom
           Maximum rank =  0   Radius =  0.325 angstrom
                   Q00  =   0.067487

H          x = -3.720554  y = -0.094723  z =  0.849259 angstrom
           Maximum rank =  0   Radius =  0.325 angstrom
                   Q00  =   0.405958

H          x =  1.609446  y =  2.318277  z =  3.195259 angstrom
           Maximum rank =  0   Radius =  0.325 angstrom
                   Q00  =   0.094342

H          x =  2.518446  y =  1.970277  z =  1.737259 angstrom
           Maximum rank =  0   Radius =  0.325 angstrom
                   Q00  =   0.097457

H          x = -0.527554  y =  1.042277  z =  3.673259 angstrom
           Maximum rank =  0   Radius =  0.325 angstrom
                   Q00  =   0.065999

H          x =  2.371346  y =  0.719872  z =  3.014089 angstrom
           Maximum rank =  0   Radius =  0.325 angstrom
                   Q00  =   0.100627

Total multipoles referred to origin at
           x =   0.000000,  y =    0.000000,  z =    0.000000 angstrom
                   Q00  =  -0.000000

Finished at 14:44:17 on 28 Apr 2020

  DMA results are available in the Python driver through the
	  variable('DMA DISTRIBUTED MULTIPOLES')
  and
	  variable('DMA TOTAL MULTIPOLES')
  commands.

    Psi4 stopped on: Tuesday, 28 April 2020 02:44PM
    Psi4 wall time for execution: 0:04:45.12

*** Psi4 exiting successfully. Buy a developer a beer!
