                               Psi4 1.3.2 release

  ==> Input File <==

--------------------------------------------------------------------------
import numpy as np
set {scf_type pk
basis cc-pvdz
d_convergence 10
gdma_switch   0
gdma_limit    0
gdma_origin   [ 0.0,  0.0,  0.0 ]
}
molecule test {
    units Angstrom
    0 1
    --
    0 1
    C                2.888275095160069     0.665399305573065     1.446138047451525
    C               -0.764724904839931     0.468399305573065     0.458138047451525
    C                0.416275095160069    -0.146600694426935     0.962138047451525
    C                1.436275095160070     0.878399305573065     1.018138047451525
    C                0.842275095160069     2.028399305573065     0.564138047451525
    C               -1.954724904839930    -0.217600694426935     0.270138047451525
    C               -1.968724904839930    -1.551600694426935     0.573138047451525
    C                0.396275095160069    -1.543600694426935     1.232138047451525
    C               -0.822724904839931    -2.220600694426935     1.065138047451525
    N               -0.477724904839931     1.785399305573065     0.216138047451525
    H               -1.117724904839931     2.488399305573065    -0.132861952548475
    H               -2.821724904839931     0.278399305573065    -0.134861952548475
    H                1.341275095160070     2.988399305573065     0.476138047451525
    H               -2.877724904839931    -2.117600694426935     0.418138047451525
    H                1.278275095160069    -2.054600694426935     1.591138047451525
    H                2.923275095160069    -0.065600694426935     2.253138047451525
    H                3.253275095160069     1.606399305573065     1.842138047451525
    H               -0.878724904839931    -3.278600694426935     1.278138047451525
    H                3.519135095160069     0.309829305573065     0.618137047451525
    C               -0.265724904839931    -0.662600694426935    -2.843861952548475
    C                0.027275095160069     0.298399305573065    -3.977861952548475
    H               -0.149724904839931    -1.705600694426935    -3.129861952548475
    H                0.414275095160069    -0.463600694426935    -2.017861952548475
    H               -1.272724904839931    -0.509600694426935    -2.473861952548475
    H                1.077275095160070     0.223399305573065    -4.255861952548476
    H               -0.610884904839931     0.024389305573065    -4.830899952548475
    H               -0.178754904839931     1.325639305573065    -3.642702952548475

}
e, wfn = energy('scf', return_wfn=True)
gdma(wfn)
dmavals = variable('DMA DISTRIBUTED MULTIPOLES')
charges = np.array(dmavals)
print(charges)
np.save('SSI-255TRP-261VAL-1-dimer.npy', np.array(charges))--------------------------------------------------------------------------

*** tstart() called on ds3
*** at Tue Apr 28 11:12:09 2020

   => Loading Basis Set <=

    Name: CC-PVDZ
    Role: ORBITAL
    Keyword: BASIS
    atoms 1-9, 20-21   entry C          line   138 file /theoryfs2/ds/metcalf/miniconda2/envs/tf2gpu/share/psi4/basis/cc-pvdz.gbs
    atoms 10           entry N          line   168 file /theoryfs2/ds/metcalf/miniconda2/envs/tf2gpu/share/psi4/basis/cc-pvdz.gbs
    atoms 11-19, 22-27 entry H          line    22 file /theoryfs2/ds/metcalf/miniconda2/envs/tf2gpu/share/psi4/basis/cc-pvdz.gbs

         ---------------------------------------------------------
                                   SCF
               by Justin Turney, Rob Parrish, Andy Simmonett
                          and Daniel G. A. Smith
                              RHF Reference
                        1 Threads,    500 MiB Core
         ---------------------------------------------------------

  ==> Geometry <==

    Molecular point group: c1
    Full point group: C1

    Geometry (in Angstrom), charge = 0, multiplicity = 1:

       Center              X                  Y                   Z               Mass
    ------------   -----------------  -----------------  -----------------  -----------------
         C            2.888275095160     0.665399305573     1.446138047452    12.000000000000
         C           -0.764724904840     0.468399305573     0.458138047452    12.000000000000
         C            0.416275095160    -0.146600694427     0.962138047452    12.000000000000
         C            1.436275095160     0.878399305573     1.018138047452    12.000000000000
         C            0.842275095160     2.028399305573     0.564138047452    12.000000000000
         C           -1.954724904840    -0.217600694427     0.270138047452    12.000000000000
         C           -1.968724904840    -1.551600694427     0.573138047452    12.000000000000
         C            0.396275095160    -1.543600694427     1.232138047452    12.000000000000
         C           -0.822724904840    -2.220600694427     1.065138047452    12.000000000000
         N           -0.477724904840     1.785399305573     0.216138047452    14.003074004430
         H           -1.117724904840     2.488399305573    -0.132861952548     1.007825032230
         H           -2.821724904840     0.278399305573    -0.134861952548     1.007825032230
         H            1.341275095160     2.988399305573     0.476138047452     1.007825032230
         H           -2.877724904840    -2.117600694427     0.418138047452     1.007825032230
         H            1.278275095160    -2.054600694427     1.591138047452     1.007825032230
         H            2.923275095160    -0.065600694427     2.253138047452     1.007825032230
         H            3.253275095160     1.606399305573     1.842138047452     1.007825032230
         H           -0.878724904840    -3.278600694427     1.278138047452     1.007825032230
         H            3.519135095160     0.309829305573     0.618137047452     1.007825032230
         C           -0.265724904840    -0.662600694427    -2.843861952548    12.000000000000
         C            0.027275095160     0.298399305573    -3.977861952548    12.000000000000
         H           -0.149724904840    -1.705600694427    -3.129861952548     1.007825032230
         H            0.414275095160    -0.463600694427    -2.017861952548     1.007825032230
         H           -1.272724904840    -0.509600694427    -2.473861952548     1.007825032230
         H            1.077275095160     0.223399305573    -4.255861952548     1.007825032230
         H           -0.610884904840     0.024389305573    -4.830899952548     1.007825032230
         H           -0.178754904840     1.325639305573    -3.642702952548     1.007825032230

  Running in c1 symmetry.

  Rotational constants: A =      0.03059  B =      0.02532  C =      0.01901 [cm^-1]
  Rotational constants: A =    917.04499  B =    759.03873  C =    569.85039 [MHz]
  Nuclear repulsion =  669.322953807810791

  Charge       = 0
  Multiplicity = 1
  Electrons    = 88
  Nalpha       = 44
  Nbeta        = 44

  ==> Algorithm <==

  SCF Algorithm Type is PK.
  DIIS enabled.
  MOM disabled.
  Fractional occupation disabled.
  Guess Type is SAD.
  Energy threshold   = 1.00e-06
  Density threshold  = 1.00e-10
  Integral threshold = 0.00e+00

  ==> Primary Basis <==

  Basis Set: CC-PVDZ
    Blend: CC-PVDZ
    Number of shells: 117
    Number of basis function: 243
    Number of Cartesian functions: 255
    Spherical Harmonics?: true
    Max angular momentum: 2

  ==> Pre-Iterations <==

   -------------------------------------------------------
    Irrep   Nso     Nmo     Nalpha   Nbeta   Ndocc  Nsocc
   -------------------------------------------------------
     A        243     243       0       0       0       0
   -------------------------------------------------------
    Total     243     243      44      44      44       0
   -------------------------------------------------------

  ==> Integral Setup <==

  Using integral reordering PK algorithm.
  Sizing the integral batches needed.
  Building batch lookup table.
   Calculation information:
      Number of atoms:                  27
      Number of AO shells:             117
      Number of primitives:            339
      Number of atomic orbitals:       255
      Number of basis functions:       243

      Integral cutoff                 1.00e-12
      Number of threads:                 1

	Batch   1 pq = [       0,    9405] index = [             0,44231715] size =     44231715
	Batch   2 pq = [    9405,   13301] index = [      44231715,88464951] size =     44233236
	Batch   3 pq = [   13301,   16290] index = [      88464951,132690195] size =     44225244
	Batch   4 pq = [   16290,   18810] index = [     132690195,176917455] size =     44227260
	Batch   5 pq = [   18810,   21030] index = [     176917455,221140965] size =     44223510
	Batch   6 pq = [   21030,   23037] index = [     221140965,265363203] size =     44222238
	Batch   7 pq = [   23037,   24883] index = [     265363203,309594286] size =     44231083
	Batch   8 pq = [   24883,   26601] index = [     309594286,353819901] size =     44225615
	Batch   9 pq = [   26601,   28214] index = [     353819901,398029005] size =     44209104
	Batch  10 pq = [   28214,   29646] index = [     398029005,439457481] size =     41428476
  Task number: 40
  Buffer size: 11059200
  Buffer per thread: 2
  We computed 24968514 shell quartets total.
  Whereas there are 23829156 unique shell quartets.
     4.78 percent of shell quartets recomputed by reordering.

  ==> DiskJK: Disk-Based J/K Matrices <==

    J tasked:                  Yes
    K tasked:                  Yes
    wK tasked:                  No
    Memory [MiB]:              375
    Schwarz Cutoff:          1E-12

    OpenMP threads:              1

  Minimum eigenvalue in the overlap matrix is 2.6302859230E-04.
  Using Symmetric Orthogonalization.

  SCF Guess: Superposition of Atomic Densities via on-the-fly atomic UHF.

  ==> Iterations <==

                        Total Energy        Delta E     RMS |[F,P]|

   @RHF iter SAD:  -478.91114875667779   -4.78911e+02   0.00000e+00
   @RHF iter   1:  -479.48954372018164   -5.78395e-01   2.58339e-03 DIIS
   @RHF iter   2:  -479.72007549617700   -2.30532e-01   1.12592e-03 DIIS
   @RHF iter   3:  -479.75987364711477   -3.97982e-02   2.93682e-04 DIIS
   @RHF iter   4:  -479.76351443240793   -3.64079e-03   1.35154e-04 DIIS
   @RHF iter   5:  -479.76411932503970   -6.04893e-04   2.03757e-05 DIIS
   @RHF iter   6:  -479.76414822358504   -2.88985e-05   9.54419e-06 DIIS
   @RHF iter   7:  -479.76415418693682   -5.96335e-06   3.76966e-06 DIIS
   @RHF iter   8:  -479.76415576626903   -1.57933e-06   1.48397e-06 DIIS
   @RHF iter   9:  -479.76415606999825   -3.03729e-07   6.42799e-07 DIIS
   @RHF iter  10:  -479.76415613046049   -6.04622e-08   2.99591e-07 DIIS
   @RHF iter  11:  -479.76415614608311   -1.56226e-08   1.23837e-07 DIIS
   @RHF iter  12:  -479.76415614882984   -2.74673e-09   3.99541e-08 DIIS
   @RHF iter  13:  -479.76415614902430   -1.94461e-10   1.08502e-08 DIIS
   @RHF iter  14:  -479.76415614903084   -6.53699e-12   4.44143e-09 DIIS
   @RHF iter  15:  -479.76415614903823   -7.38964e-12   1.70139e-09 DIIS
   @RHF iter  16:  -479.76415614903755    6.82121e-13   6.81501e-10 DIIS
   @RHF iter  17:  -479.76415614903487    2.67164e-12   3.59448e-10 DIIS
   @RHF iter  18:  -479.76415614903607   -1.19371e-12   1.58645e-10 DIIS
   @RHF iter  19:  -479.76415614903010    5.96856e-12   5.74694e-11 DIIS
  Energy and wave function converged.

  ==> Post-Iterations <==

    Orbital Energies [Eh]
    ---------------------

    Doubly Occupied:

       1A    -15.602757     2A    -11.266689     3A    -11.263415
       4A    -11.236211     5A    -11.230161     6A    -11.229100
       7A    -11.227287     8A    -11.224445     9A    -11.224205
      10A    -11.223291    11A    -11.210352    12A    -11.198391
      13A     -1.291388    14A     -1.125095    15A     -1.069178
      16A     -1.010946    17A     -0.995903    18A     -0.983047
      19A     -0.931282    20A     -0.836923    21A     -0.824647
      22A     -0.802222    23A     -0.751562    24A     -0.720709
      25A     -0.660022    26A     -0.640646    27A     -0.602512
      28A     -0.595755    29A     -0.590972    30A     -0.588975
      31A     -0.583896    32A     -0.565480    33A     -0.554079
      34A     -0.535517    35A     -0.525521    36A     -0.495341
      37A     -0.493084    38A     -0.476599    39A     -0.471062
      40A     -0.470076    41A     -0.456032    42A     -0.372400
      43A     -0.292831    44A     -0.276172

    Virtual:

      45A      0.124553    46A      0.166368    47A      0.170125
      48A      0.186528    49A      0.200668    50A      0.204826
      51A      0.218843    52A      0.229293    53A      0.231284
      54A      0.254108    55A      0.261907    56A      0.266981
      57A      0.270726    58A      0.274036    59A      0.285568
      60A      0.295442    61A      0.310094    62A      0.316078
      63A      0.371648    64A      0.382140    65A      0.397249
      66A      0.408200    67A      0.418131    68A      0.443282
      69A      0.467907    70A      0.479057    71A      0.500855
      72A      0.512148    73A      0.580154    74A      0.590866
      75A      0.593963    76A      0.609967    77A      0.622021
      78A      0.637696    79A      0.642431    80A      0.658186
      81A      0.675106    82A      0.680068    83A      0.698032
      84A      0.713953    85A      0.723533    86A      0.724903
      87A      0.733907    88A      0.749817    89A      0.758748
      90A      0.763252    91A      0.772208    92A      0.775441
      93A      0.791042    94A      0.795151    95A      0.834130
      96A      0.853908    97A      0.868174    98A      0.872152
      99A      0.875621   100A      0.884514   101A      0.886097
     102A      0.897663   103A      0.903831   104A      0.906954
     105A      0.909396   106A      0.924978   107A      0.928959
     108A      0.945865   109A      0.950211   110A      0.953708
     111A      0.957180   112A      0.973236   113A      0.988129
     114A      1.000405   115A      1.010891   116A      1.040956
     117A      1.051275   118A      1.074262   119A      1.093930
     120A      1.122438   121A      1.130603   122A      1.134626
     123A      1.145843   124A      1.151485   125A      1.161466
     126A      1.190826   127A      1.210328   128A      1.217547
     129A      1.221547   130A      1.227009   131A      1.245863
     132A      1.270810   133A      1.279764   134A      1.293691
     135A      1.307040   136A      1.327546   137A      1.337957
     138A      1.355560   139A      1.361799   140A      1.413285
     141A      1.439192   142A      1.486468   143A      1.503079
     144A      1.509933   145A      1.552695   146A      1.566263
     147A      1.587668   148A      1.597698   149A      1.633437
     150A      1.643346   151A      1.659609   152A      1.682634
     153A      1.690017   154A      1.694399   155A      1.708621
     156A      1.751327   157A      1.762344   158A      1.779301
     159A      1.791863   160A      1.803718   161A      1.830238
     162A      1.843928   163A      1.870887   164A      1.874238
     165A      1.884475   166A      1.891758   167A      1.896284
     168A      1.901594   169A      1.918815   170A      1.924556
     171A      1.932481   172A      1.939202   173A      1.951484
     174A      1.953318   175A      1.966276   176A      1.971431
     177A      1.975783   178A      1.977175   179A      1.991121
     180A      2.005500   181A      2.017476   182A      2.038459
     183A      2.046053   184A      2.063934   185A      2.075978
     186A      2.088456   187A      2.095996   188A      2.108658
     189A      2.113904   190A      2.135795   191A      2.143933
     192A      2.150398   193A      2.155989   194A      2.166978
     195A      2.182206   196A      2.211237   197A      2.262057
     198A      2.269394   199A      2.299420   200A      2.300692
     201A      2.313374   202A      2.327330   203A      2.344893
     204A      2.361194   205A      2.391524   206A      2.399336
     207A      2.442740   208A      2.458996   209A      2.466793
     210A      2.494226   211A      2.538056   212A      2.572872
     213A      2.583947   214A      2.592394   215A      2.604861
     216A      2.628188   217A      2.669288   218A      2.679393
     219A      2.697257   220A      2.767729   221A      2.771963
     222A      2.776717   223A      2.785888   224A      2.790564
     225A      2.811185   226A      2.821519   227A      2.851180
     228A      2.861945   229A      2.869658   230A      2.878277
     231A      2.900341   232A      2.948987   233A      2.986909
     234A      2.999427   235A      3.018566   236A      3.055952
     237A      3.064576   238A      3.110002   239A      3.197045
     240A      3.282380   241A      3.354443   242A      3.744447
     243A      3.928139

    Final Occupation by Irrep:
              A
    DOCC [    44 ]

  @RHF Final Energy:  -479.76415614903010

   => Energetics <=

    Nuclear Repulsion Energy =            669.3229538078107907
    One-Electron Energy =               -1976.7218651195219081
    Two-Electron Energy =                 827.6347551626810173
    Total Energy =                       -479.7641561490301001

Computation Completed

Properties will be evaluated at   0.000000,   0.000000,   0.000000 [a0]

Properties computed using the SCF density matrix

  Nuclear Dipole Moment: [e a0]
     X:     3.6564      Y:    -0.8961      Z:   -11.3832

  Electronic Dipole Moment: [e a0]
     X:    -3.7427      Y:     1.6028      Z:    11.2534

  Dipole Moment: [e a0]
     X:    -0.0863      Y:     0.7066      Z:    -0.1298     Total:     0.7236

  Dipole Moment: [D]
     X:    -0.2193      Y:     1.7961      Z:    -0.3298     Total:     1.8393

*** tstop() called on ds3 at Tue Apr 28 11:16:31 2020
Module time:
	user time   =     194.53 seconds =       3.24 minutes
	system time =      70.03 seconds =       1.17 minutes
	total time  =        262 seconds =       4.37 minutes
Total time:
	user time   =     194.53 seconds =       3.24 minutes
	system time =      70.03 seconds =       1.17 minutes
	total time  =        262 seconds =       4.37 minutes
                                     G D M A

                                 by Anthony Stone

                           version 2.2.06, 22 June 2011

               Distributed Multipoles from Gaussian wavefunctions

Starting at 11:16:31 on 28 Apr 2020

Using SCF density matrix from file ./SSI/SSI-255TRP-261VAL-1-dimer.test.903.fchk

                         Distributed Multipole Analysis

Standard DMA

Positions and radii in angstrom
Multipole moments in atomic units, ea_0^k for rank k

C          x =  2.888275  y =  0.665399  z =  1.446138 angstrom
           Maximum rank =  0   Radius =  0.650 angstrom
                   Q00  =  -0.207235

C          x = -0.764725  y =  0.468399  z =  0.458138 angstrom
           Maximum rank =  0   Radius =  0.650 angstrom
                   Q00  =   0.238120

C          x =  0.416275  y = -0.146601  z =  0.962138 angstrom
           Maximum rank =  0   Radius =  0.650 angstrom
                   Q00  =  -0.061367

C          x =  1.436275  y =  0.878399  z =  1.018138 angstrom
           Maximum rank =  0   Radius =  0.650 angstrom
                   Q00  =  -0.130268

C          x =  0.842275  y =  2.028399  z =  0.564138 angstrom
           Maximum rank =  0   Radius =  0.650 angstrom
                   Q00  =   0.069933

C          x = -1.954725  y = -0.217601  z =  0.270138 angstrom
           Maximum rank =  0   Radius =  0.650 angstrom
                   Q00  =  -0.110436

C          x = -1.968725  y = -1.551601  z =  0.573138 angstrom
           Maximum rank =  0   Radius =  0.650 angstrom
                   Q00  =  -0.037380

C          x =  0.396275  y = -1.543601  z =  1.232138 angstrom
           Maximum rank =  0   Radius =  0.650 angstrom
                   Q00  =  -0.090659

C          x = -0.822725  y = -2.220601  z =  1.065138 angstrom
           Maximum rank =  0   Radius =  0.650 angstrom
                   Q00  =  -0.077080

N          x = -0.477725  y =  1.785399  z =  0.216138 angstrom
           Maximum rank =  0   Radius =  0.650 angstrom
                   Q00  =  -0.493096

H          x = -1.117725  y =  2.488399  z = -0.132862 angstrom
           Maximum rank =  0   Radius =  0.325 angstrom
                   Q00  =   0.220826

H          x = -2.821725  y =  0.278399  z = -0.134862 angstrom
           Maximum rank =  0   Radius =  0.325 angstrom
                   Q00  =   0.071320

H          x =  1.341275  y =  2.988399  z =  0.476138 angstrom
           Maximum rank =  0   Radius =  0.325 angstrom
                   Q00  =   0.101063

H          x = -2.877725  y = -2.117601  z =  0.418138 angstrom
           Maximum rank =  0   Radius =  0.325 angstrom
                   Q00  =   0.063322

H          x =  1.278275  y = -2.054601  z =  1.591138 angstrom
           Maximum rank =  0   Radius =  0.325 angstrom
                   Q00  =   0.074554

H          x =  2.923275  y = -0.065601  z =  2.253138 angstrom
           Maximum rank =  0   Radius =  0.325 angstrom
                   Q00  =   0.103879

H          x =  3.253275  y =  1.606399  z =  1.842138 angstrom
           Maximum rank =  0   Radius =  0.325 angstrom
                   Q00  =   0.106331

H          x = -0.878725  y = -3.278601  z =  1.278138 angstrom
           Maximum rank =  0   Radius =  0.325 angstrom
                   Q00  =   0.062813

H          x =  3.519135  y =  0.309829  z =  0.618137 angstrom
           Maximum rank =  0   Radius =  0.325 angstrom
                   Q00  =   0.101741

C          x = -0.265725  y = -0.662601  z = -2.843862 angstrom
           Maximum rank =  0   Radius =  0.650 angstrom
                   Q00  =  -0.237908

C          x =  0.027275  y =  0.298399  z = -3.977862 angstrom
           Maximum rank =  0   Radius =  0.650 angstrom
                   Q00  =  -0.219839

H          x = -0.149725  y = -1.705601  z = -3.129862 angstrom
           Maximum rank =  0   Radius =  0.325 angstrom
                   Q00  =   0.074481

H          x =  0.414275  y = -0.463601  z = -2.017862 angstrom
           Maximum rank =  0   Radius =  0.325 angstrom
                   Q00  =   0.086159

H          x = -1.272725  y = -0.509601  z = -2.473862 angstrom
           Maximum rank =  0   Radius =  0.325 angstrom
                   Q00  =   0.074061

H          x =  1.077275  y =  0.223399  z = -4.255862 angstrom
           Maximum rank =  0   Radius =  0.325 angstrom
                   Q00  =   0.077118

H          x = -0.610885  y =  0.024389  z = -4.830900 angstrom
           Maximum rank =  0   Radius =  0.325 angstrom
                   Q00  =   0.070782

H          x = -0.178755  y =  1.325639  z = -3.642703 angstrom
           Maximum rank =  0   Radius =  0.325 angstrom
                   Q00  =   0.068763

Total multipoles referred to origin at
           x =   0.000000,  y =    0.000000,  z =    0.000000 angstrom
                   Q00  =  -0.000000

Finished at 11:16:32 on 28 Apr 2020

  DMA results are available in the Python driver through the
	  variable('DMA DISTRIBUTED MULTIPOLES')
  and
	  variable('DMA TOTAL MULTIPOLES')
  commands.

    Psi4 stopped on: Tuesday, 28 April 2020 11:16AM
    Psi4 wall time for execution: 0:04:22.84

*** Psi4 exiting successfully. Buy a developer a beer!
