                               Psi4 1.3.2 release

  ==> Input File <==

--------------------------------------------------------------------------
import numpy as np
set {scf_type pk
basis cc-pvdz
d_convergence 10
gdma_switch   0
gdma_limit    0
gdma_origin   [ 0.0,  0.0,  0.0 ]
}
molecule test {
    units Angstrom
    0 1
    --
    0 1
    C                0.432532251219442    -2.337476848612036     4.741839302756683
    C                1.896532251219442     0.005523151387963     2.215839302756682
    C                0.771532251219442    -0.521476848612037     2.896839302756682
    C                1.253532251219442    -1.511476848612037     3.816839302756682
    C                2.603532251219442    -1.552476848612037     3.665839302756682
    C                0.523532251219442     1.472523151387963     0.957839302756682
    C                1.787532251219442     0.997523151387963     1.253839302756682
    C               -0.609467748780558     0.968523151387963     1.611839302756682
    C               -0.497467748780558    -0.023476848612037     2.580839302756682
    N                2.993532251219442    -0.644476848612037     2.711839302756682
    H                0.401532251219442     2.253523151387963     0.220839302756682
    H                2.671532251219442     1.401523151387963     0.789839302756682
    H               -1.583467748780558     1.355523151387963     1.350839302756682
    H               -1.365467748780558    -0.395476848612037     3.097839302756682
    H                3.954532251219442    -0.418476848612037     2.459839302756682
    H                3.271532251219442    -2.208476848612037     4.214839302756682
    H                0.898532251219442    -3.303476848612037     4.829839302756683
    H               -0.552467748780558    -2.492476848612037     4.300839302756683
    H                0.327266251219442    -1.923626848612037     5.755569302756683
    C               -1.455467748780558     1.260523151387963    -6.117160697243317
    C               -0.634467748780558     0.662523151387963    -2.460160697243317
    C               -0.550467748780558     1.100523151387963    -3.777160697243318
    C               -1.720467748780558    -0.098476848612037    -2.050160697243318
    C               -1.549467748780558     0.779523151387963    -4.694160697243317
    C               -2.721467748780559    -0.420476848612037    -2.957160697243318
    C               -2.634467748780558     0.018523151387963    -4.274160697243317
    H                0.148532251219442     0.906523151387963    -1.759160697243318
    H                0.295532251219442     1.698523151387963    -4.086160697243317
    H               -1.785467748780558    -0.439476848612037    -1.025160697243318
    H               -3.572467748780558    -1.004476848612037    -2.635160697243318
    H               -1.202467748780558     2.321523151387964    -6.086160697243317
    H               -2.425467748780558     1.171523151387963    -6.609160697243317
    H               -3.421467748780558    -0.235476848612037    -4.969160697243317
    H               -0.688876748780558     0.737493151387963    -6.707730697243317

}
e, wfn = energy('scf', return_wfn=True)
gdma(wfn)
dmavals = variable('DMA DISTRIBUTED MULTIPOLES')
charges = np.array(dmavals)
print(charges)
np.save('SSI-010TRP-058PHE-1-dimer.npy', np.array(charges))--------------------------------------------------------------------------

*** tstart() called on ds3
*** at Mon Apr 27 17:08:36 2020

   => Loading Basis Set <=

    Name: CC-PVDZ
    Role: ORBITAL
    Keyword: BASIS
    atoms 1-9, 20-26   entry C          line   138 file /theoryfs2/ds/metcalf/miniconda2/envs/tf2gpu/share/psi4/basis/cc-pvdz.gbs
    atoms 10           entry N          line   168 file /theoryfs2/ds/metcalf/miniconda2/envs/tf2gpu/share/psi4/basis/cc-pvdz.gbs
    atoms 11-19, 27-34 entry H          line    22 file /theoryfs2/ds/metcalf/miniconda2/envs/tf2gpu/share/psi4/basis/cc-pvdz.gbs

         ---------------------------------------------------------
                                   SCF
               by Justin Turney, Rob Parrish, Andy Simmonett
                          and Daniel G. A. Smith
                              RHF Reference
                        1 Threads,    500 MiB Core
         ---------------------------------------------------------

  ==> Geometry <==

    Molecular point group: c1
    Full point group: C1

    Geometry (in Angstrom), charge = 0, multiplicity = 1:

       Center              X                  Y                   Z               Mass
    ------------   -----------------  -----------------  -----------------  -----------------
         C            0.432532251219    -2.337476848612     4.741839302757    12.000000000000
         C            1.896532251219     0.005523151388     2.215839302757    12.000000000000
         C            0.771532251219    -0.521476848612     2.896839302757    12.000000000000
         C            1.253532251219    -1.511476848612     3.816839302757    12.000000000000
         C            2.603532251219    -1.552476848612     3.665839302757    12.000000000000
         C            0.523532251219     1.472523151388     0.957839302757    12.000000000000
         C            1.787532251219     0.997523151388     1.253839302757    12.000000000000
         C           -0.609467748781     0.968523151388     1.611839302757    12.000000000000
         C           -0.497467748781    -0.023476848612     2.580839302757    12.000000000000
         N            2.993532251219    -0.644476848612     2.711839302757    14.003074004430
         H            0.401532251219     2.253523151388     0.220839302757     1.007825032230
         H            2.671532251219     1.401523151388     0.789839302757     1.007825032230
         H           -1.583467748781     1.355523151388     1.350839302757     1.007825032230
         H           -1.365467748781    -0.395476848612     3.097839302757     1.007825032230
         H            3.954532251219    -0.418476848612     2.459839302757     1.007825032230
         H            3.271532251219    -2.208476848612     4.214839302757     1.007825032230
         H            0.898532251219    -3.303476848612     4.829839302757     1.007825032230
         H           -0.552467748781    -2.492476848612     4.300839302757     1.007825032230
         H            0.327266251219    -1.923626848612     5.755569302757     1.007825032230
         C           -1.455467748781     1.260523151388    -6.117160697243    12.000000000000
         C           -0.634467748781     0.662523151388    -2.460160697243    12.000000000000
         C           -0.550467748781     1.100523151388    -3.777160697243    12.000000000000
         C           -1.720467748781    -0.098476848612    -2.050160697243    12.000000000000
         C           -1.549467748781     0.779523151388    -4.694160697243    12.000000000000
         C           -2.721467748781    -0.420476848612    -2.957160697243    12.000000000000
         C           -2.634467748781     0.018523151388    -4.274160697243    12.000000000000
         H            0.148532251219     0.906523151388    -1.759160697243     1.007825032230
         H            0.295532251219     1.698523151388    -4.086160697243     1.007825032230
         H           -1.785467748781    -0.439476848612    -1.025160697243     1.007825032230
         H           -3.572467748781    -1.004476848612    -2.635160697243     1.007825032230
         H           -1.202467748781     2.321523151388    -6.086160697243     1.007825032230
         H           -2.425467748781     1.171523151388    -6.609160697243     1.007825032230
         H           -3.421467748781    -0.235476848612    -4.969160697243     1.007825032230
         H           -0.688876748781     0.737493151388    -6.707730697243     1.007825032230

  Running in c1 symmetry.

  Rotational constants: A =      0.03843  B =      0.00515  C =      0.00488 [cm^-1]
  Rotational constants: A =   1152.15398  B =    154.46140  C =    146.34726 [MHz]
  Nuclear repulsion = 1025.721764167639321

  Charge       = 0
  Multiplicity = 1
  Electrons    = 120
  Nalpha       = 60
  Nbeta        = 60

  ==> Algorithm <==

  SCF Algorithm Type is PK.
  DIIS enabled.
  MOM disabled.
  Fractional occupation disabled.
  Guess Type is SAD.
  Energy threshold   = 1.00e-06
  Density threshold  = 1.00e-10
  Integral threshold = 0.00e+00

  ==> Primary Basis <==

  Basis Set: CC-PVDZ
    Blend: CC-PVDZ
    Number of shells: 153
    Number of basis function: 323
    Number of Cartesian functions: 340
    Spherical Harmonics?: true
    Max angular momentum: 2

  ==> Pre-Iterations <==

   -------------------------------------------------------
    Irrep   Nso     Nmo     Nalpha   Nbeta   Ndocc  Nsocc
   -------------------------------------------------------
     A        323     323       0       0       0       0
   -------------------------------------------------------
    Total     323     323      60      60      60       0
   -------------------------------------------------------

  ==> Integral Setup <==

  Using integral reordering PK algorithm.
  Sizing the integral batches needed.
  Building batch lookup table.
   Calculation information:
      Number of atoms:                  34
      Number of AO shells:             153
      Number of primitives:            459
      Number of atomic orbitals:       340
      Number of basis functions:       323

      Integral cutoff                 1.00e-12
      Number of threads:                 1

	Batch   1 pq = [       0,    9405] index = [             0,44231715] size =     44231715
	Batch   2 pq = [    9405,   13301] index = [      44231715,88464951] size =     44233236
	Batch   3 pq = [   13301,   16290] index = [      88464951,132690195] size =     44225244
	Batch   4 pq = [   16290,   18810] index = [     132690195,176917455] size =     44227260
	Batch   5 pq = [   18810,   21030] index = [     176917455,221140965] size =     44223510
	Batch   6 pq = [   21030,   23037] index = [     221140965,265363203] size =     44222238
	Batch   7 pq = [   23037,   24883] index = [     265363203,309594286] size =     44231083
	Batch   8 pq = [   24883,   26601] index = [     309594286,353819901] size =     44225615
	Batch   9 pq = [   26601,   28214] index = [     353819901,398029005] size =     44209104
	Batch  10 pq = [   28214,   29740] index = [     398029005,442248670] size =     44219665
	Batch  11 pq = [   29740,   31191] index = [     442248670,486454836] size =     44206166
	Batch  12 pq = [   31191,   32578] index = [     486454836,530679331] size =     44224495
	Batch  13 pq = [   32578,   33908] index = [     530679331,574893186] size =     44213855
	Batch  14 pq = [   33908,   35188] index = [     574893186,619115266] size =     44222080
	Batch  15 pq = [   35188,   36423] index = [     619115266,663335676] size =     44220410
	Batch  16 pq = [   36423,   37617] index = [     663335676,707538153] size =     44202477
	Batch  17 pq = [   37617,   38775] index = [     707538153,751769700] size =     44231547
	Batch  18 pq = [   38775,   39899] index = [     751769700,795985050] size =     44215350
	Batch  19 pq = [   39899,   40992] index = [     795985050,840192528] size =     44207478
	Batch  20 pq = [   40992,   42057] index = [     840192528,884416653] size =     44224125
	Batch  21 pq = [   42057,   43095] index = [     884416653,928611060] size =     44194407
	Batch  22 pq = [   43095,   44109] index = [     928611060,972823995] size =     44212935
	Batch  23 pq = [   44109,   45100] index = [     972823995,1017027550] size =     44203555
	Batch  24 pq = [   45100,   46070] index = [    1017027550,1061245485] size =     44217935
	Batch  25 pq = [   46070,   47020] index = [    1061245485,1105463710] size =     44218225
	Batch  26 pq = [   47020,   47951] index = [    1105463710,1149673176] size =     44209466
	Batch  27 pq = [   47951,   48864] index = [    1149673176,1193869680] size =     44196504
	Batch  28 pq = [   48864,   49761] index = [    1193869680,1238103441] size =     44233761
	Batch  29 pq = [   49761,   50642] index = [    1238103441,1282331403] size =     44227962
	Batch  30 pq = [   50642,   51508] index = [    1282331403,1326562786] size =     44231383
	Batch  31 pq = [   51508,   52326] index = [    1326562786,1369031301] size =     42468515
  Task number: 124
  Buffer size: 11059200
  Buffer per thread: 2
  We computed 56727933 shell quartets total.
  Whereas there are 69401871 unique shell quartets.

  ==> DiskJK: Disk-Based J/K Matrices <==

    J tasked:                  Yes
    K tasked:                  Yes
    wK tasked:                  No
    Memory [MiB]:              375
    Schwarz Cutoff:          1E-12

    OpenMP threads:              1

  Minimum eigenvalue in the overlap matrix is 2.3711901634E-04.
  Using Symmetric Orthogonalization.

  SCF Guess: Superposition of Atomic Densities via on-the-fly atomic UHF.

  ==> Iterations <==

                        Total Energy        Delta E     RMS |[F,P]|

   @RHF iter SAD:  -669.64025463822384   -6.69640e+02   0.00000e+00
   @RHF iter   1:  -669.94694612929311   -3.06691e-01   2.16362e-03 DIIS
   @RHF iter   2:  -670.24057449918655   -2.93628e-01   9.42185e-04 DIIS
   @RHF iter   3:  -670.28972245460932   -4.91480e-02   2.52838e-04 DIIS
   @RHF iter   4:  -670.29431626324185   -4.59381e-03   1.11466e-04 DIIS
   @RHF iter   5:  -670.29503817713908   -7.21914e-04   1.66528e-05 DIIS
   @RHF iter   6:  -670.29507042452929   -3.22474e-05   7.46506e-06 DIIS
   @RHF iter   7:  -670.29507722406584   -6.79954e-06   2.95991e-06 DIIS
   @RHF iter   8:  -670.29507900902661   -1.78496e-06   1.26035e-06 DIIS
   @RHF iter   9:  -670.29507940625990   -3.97233e-07   5.61120e-07 DIIS
   @RHF iter  10:  -670.29507948697471   -8.07148e-08   2.44125e-07 DIIS
   @RHF iter  11:  -670.29507950621462   -1.92399e-08   9.44426e-08 DIIS
   @RHF iter  12:  -670.29507950873563   -2.52101e-09   3.58465e-08 DIIS
   @RHF iter  13:  -670.29507950896914   -2.33513e-10   1.01251e-08 DIIS
   @RHF iter  14:  -670.29507950897835   -9.20863e-12   4.17316e-09 DIIS
   @RHF iter  15:  -670.29507950898267   -4.32010e-12   1.73470e-09 DIIS
   @RHF iter  16:  -670.29507950898721   -4.54747e-12   8.31990e-10 DIIS
   @RHF iter  17:  -670.29507950898710    1.13687e-13   3.78188e-10 DIIS
   @RHF iter  18:  -670.29507950898778   -6.82121e-13   1.44866e-10 DIIS
   @RHF iter  19:  -670.29507950898414    3.63798e-12   6.10555e-11 DIIS
  Energy and wave function converged.

  ==> Post-Iterations <==

    Orbital Energies [Eh]
    ---------------------

    Doubly Occupied:

       1A    -15.602736     2A    -11.264933     3A    -11.263424
       4A    -11.234100     5A    -11.231791     6A    -11.231663
       7A    -11.230295     8A    -11.227880     9A    -11.226020
      10A    -11.225307    11A    -11.224623    12A    -11.223656
      13A    -11.223524    14A    -11.222430    15A    -11.221704
      16A    -11.220672    17A    -11.217195    18A     -1.297464
      19A     -1.147342    20A     -1.130899    21A     -1.076730
      22A     -1.038633    23A     -1.005654    24A     -0.999749
      25A     -0.989977    26A     -0.934206    27A     -0.925582
      28A     -0.841776    29A     -0.818645    30A     -0.805308
      31A     -0.789001    32A     -0.755571    33A     -0.720942
      34A     -0.684406    35A     -0.664842    36A     -0.645030
      37A     -0.625524    38A     -0.622984    39A     -0.606101
      40A     -0.594505    41A     -0.591319    42A     -0.576650
      43A     -0.572207    44A     -0.570395    45A     -0.555506
      46A     -0.553264    47A     -0.541408    48A     -0.530907
      49A     -0.528518    50A     -0.496516    51A     -0.481400
      52A     -0.478670    53A     -0.474781    54A     -0.472565
      55A     -0.462966    56A     -0.374730    57A     -0.326232
      58A     -0.315679    59A     -0.296757    60A     -0.276486

    Virtual:

      61A      0.123218    62A      0.141270    63A      0.149007
      64A      0.165722    65A      0.178532    66A      0.185180
      67A      0.191922    68A      0.200994    69A      0.214169
      70A      0.219136    71A      0.225782    72A      0.230036
      73A      0.239894    74A      0.254036    75A      0.262242
      76A      0.268097    77A      0.276014    78A      0.281633
      79A      0.294389    80A      0.297810    81A      0.303403
      82A      0.322915    83A      0.372108    84A      0.374203
      85A      0.379587    86A      0.388728    87A      0.406535
      88A      0.422031    89A      0.436405    90A      0.455890
      91A      0.467946    92A      0.476742    93A      0.481137
      94A      0.483536    95A      0.498938    96A      0.509655
      97A      0.512523    98A      0.568570    99A      0.593887
     100A      0.601945   101A      0.611928   102A      0.633325
     103A      0.640282   104A      0.644133   105A      0.665025
     106A      0.681662   107A      0.688591   108A      0.698463
     109A      0.701876   110A      0.706223   111A      0.717226
     112A      0.719588   113A      0.727717   114A      0.734131
     115A      0.738646   116A      0.742306   117A      0.745444
     118A      0.747159   119A      0.751783   120A      0.755860
     121A      0.758678   122A      0.759717   123A      0.769787
     124A      0.777424   125A      0.781290   126A      0.788551
     127A      0.791318   128A      0.796943   129A      0.828285
     130A      0.831656   131A      0.846012   132A      0.852192
     133A      0.870253   134A      0.876881   135A      0.879456
     136A      0.883577   137A      0.888315   138A      0.891893
     139A      0.899836   140A      0.901378   141A      0.911912
     142A      0.918818   143A      0.923584   144A      0.931145
     145A      0.939090   146A      0.945966   147A      0.951346
     148A      0.953545   149A      0.956580   150A      0.965672
     151A      0.986072   152A      0.994110   153A      1.011987
     154A      1.014685   155A      1.037057   156A      1.055706
     157A      1.068651   158A      1.073085   159A      1.088957
     160A      1.103356   161A      1.131469   162A      1.140103
     163A      1.141046   164A      1.148846   165A      1.154719
     166A      1.162495   167A      1.184717   168A      1.196102
     169A      1.207505   170A      1.212885   171A      1.223863
     172A      1.233448   173A      1.236499   174A      1.245236
     175A      1.256263   176A      1.257278   177A      1.274276
     178A      1.281061   179A      1.284953   180A      1.294437
     181A      1.304851   182A      1.310214   183A      1.319967
     184A      1.326666   185A      1.329770   186A      1.339654
     187A      1.346673   188A      1.359986   189A      1.375775
     190A      1.419932   191A      1.431781   192A      1.445653
     193A      1.518367   194A      1.522812   195A      1.533367
     196A      1.547493   197A      1.562342   198A      1.571428
     199A      1.597775   200A      1.616505   201A      1.625967
     202A      1.637980   203A      1.650724   204A      1.681953
     205A      1.692805   206A      1.695903   207A      1.703312
     208A      1.740589   209A      1.741896   210A      1.750746
     211A      1.763726   212A      1.769673   213A      1.779350
     214A      1.791708   215A      1.797551   216A      1.813413
     217A      1.821687   218A      1.828487   219A      1.831366
     220A      1.861675   221A      1.881066   222A      1.889449
     223A      1.896320   224A      1.901872   225A      1.905085
     226A      1.909433   227A      1.914157   228A      1.920027
     229A      1.923418   230A      1.927109   231A      1.936385
     232A      1.943572   233A      1.946937   234A      1.961387
     235A      1.969887   236A      1.978405   237A      1.982040
     238A      1.996492   239A      2.002069   240A      2.003964
     241A      2.010858   242A      2.027535   243A      2.044448
     244A      2.048515   245A      2.065532   246A      2.073325
     247A      2.081251   248A      2.084427   249A      2.092245
     250A      2.102137   251A      2.109621   252A      2.118442
     253A      2.126753   254A      2.143495   255A      2.146260
     256A      2.163485   257A      2.166343   258A      2.173190
     259A      2.174658   260A      2.189622   261A      2.198266
     262A      2.215248   263A      2.232943   264A      2.250216
     265A      2.266799   266A      2.283637   267A      2.286338
     268A      2.296769   269A      2.303132   270A      2.308863
     271A      2.327578   272A      2.345502   273A      2.350875
     274A      2.359652   275A      2.364383   276A      2.404018
     277A      2.409916   278A      2.457598   279A      2.462143
     280A      2.467355   281A      2.481774   282A      2.522582
     283A      2.541964   284A      2.543928   285A      2.591037
     286A      2.603134   287A      2.635102   288A      2.638903
     289A      2.661507   290A      2.688225   291A      2.720277
     292A      2.740403   293A      2.768714   294A      2.771809
     295A      2.776051   296A      2.777127   297A      2.782534
     298A      2.797596   299A      2.815230   300A      2.827616
     301A      2.837413   302A      2.851924   303A      2.859276
     304A      2.878961   305A      2.895272   306A      2.918757
     307A      2.974843   308A      2.992636   309A      3.019340
     310A      3.039465   311A      3.040856   312A      3.049825
     313A      3.082085   314A      3.121270   315A      3.170070
     316A      3.209786   317A      3.214988   318A      3.311473
     319A      3.314968   320A      3.384348   321A      3.736341
     322A      3.961832   323A      3.984872

    Final Occupation by Irrep:
              A
    DOCC [    60 ]

  @RHF Final Energy:  -670.29507950898414

   => Energetics <=

    Nuclear Repulsion Energy =           1025.7217641676393214
    One-Electron Energy =               -2943.0541285285726190
    Two-Electron Energy =                1247.0372848519491527
    Total Energy =                       -670.2950795089841449

Computation Completed

Properties will be evaluated at   0.000000,   0.000000,   0.000000 [a0]

Properties computed using the SCF density matrix

  Nuclear Dipole Moment: [e a0]
     X:    -4.3479      Y:    -0.5374      Z:    -6.4366

  Electronic Dipole Moment: [e a0]
     X:     5.1990      Y:     0.3887      Z:     6.6303

  Dipole Moment: [e a0]
     X:     0.8511      Y:    -0.1488      Z:     0.1937     Total:     0.8854

  Dipole Moment: [D]
     X:     2.1633      Y:    -0.3781      Z:     0.4922     Total:     2.2505

*** tstop() called on ds3 at Mon Apr 27 17:30:39 2020
Module time:
	user time   =     561.23 seconds =       9.35 minutes
	system time =     240.58 seconds =       4.01 minutes
	total time  =       1323 seconds =      22.05 minutes
Total time:
	user time   =     561.23 seconds =       9.35 minutes
	system time =     240.58 seconds =       4.01 minutes
	total time  =       1323 seconds =      22.05 minutes
                                     G D M A

                                 by Anthony Stone

                           version 2.2.06, 22 June 2011

               Distributed Multipoles from Gaussian wavefunctions

Starting at 17:30:39 on 27 Apr 2020

Using SCF density matrix from file ./SSI/SSI-010TRP-058PHE-1-dimer.test.17534.fchk

                         Distributed Multipole Analysis

Standard DMA

Positions and radii in angstrom
Multipole moments in atomic units, ea_0^k for rank k

C          x =  0.432532  y = -2.337477  z =  4.741839 angstrom
           Maximum rank =  0   Radius =  0.650 angstrom
                   Q00  =  -0.218561

C          x =  1.896532  y =  0.005523  z =  2.215839 angstrom
           Maximum rank =  0   Radius =  0.650 angstrom
                   Q00  =   0.296496

C          x =  0.771532  y = -0.521477  z =  2.896839 angstrom
           Maximum rank =  0   Radius =  0.650 angstrom
                   Q00  =  -0.047545

C          x =  1.253532  y = -1.511477  z =  3.816839 angstrom
           Maximum rank =  0   Radius =  0.650 angstrom
                   Q00  =  -0.121614

C          x =  2.603532  y = -1.552477  z =  3.665839 angstrom
           Maximum rank =  0   Radius =  0.650 angstrom
                   Q00  =   0.074568

C          x =  0.523532  y =  1.472523  z =  0.957839 angstrom
           Maximum rank =  0   Radius =  0.650 angstrom
                   Q00  =  -0.085104

C          x =  1.787532  y =  0.997523  z =  1.253839 angstrom
           Maximum rank =  0   Radius =  0.650 angstrom
                   Q00  =  -0.120136

C          x = -0.609468  y =  0.968523  z =  1.611839 angstrom
           Maximum rank =  0   Radius =  0.650 angstrom
                   Q00  =  -0.086198

C          x = -0.497468  y = -0.023477  z =  2.580839 angstrom
           Maximum rank =  0   Radius =  0.650 angstrom
                   Q00  =  -0.098067

N          x =  2.993532  y = -0.644477  z =  2.711839 angstrom
           Maximum rank =  0   Radius =  0.650 angstrom
                   Q00  =  -0.496244

H          x =  0.401532  y =  2.253523  z =  0.220839 angstrom
           Maximum rank =  0   Radius =  0.325 angstrom
                   Q00  =   0.066445

H          x =  2.671532  y =  1.401523  z =  0.789839 angstrom
           Maximum rank =  0   Radius =  0.325 angstrom
                   Q00  =   0.074400

H          x = -1.583468  y =  1.355523  z =  1.350839 angstrom
           Maximum rank =  0   Radius =  0.325 angstrom
                   Q00  =   0.063744

H          x = -1.365468  y = -0.395477  z =  3.097839 angstrom
           Maximum rank =  0   Radius =  0.325 angstrom
                   Q00  =   0.071308

H          x =  3.954532  y = -0.418477  z =  2.459839 angstrom
           Maximum rank =  0   Radius =  0.325 angstrom
                   Q00  =   0.216123

H          x =  3.271532  y = -2.208477  z =  4.214839 angstrom
           Maximum rank =  0   Radius =  0.325 angstrom
                   Q00  =   0.100580

H          x =  0.898532  y = -3.303477  z =  4.829839 angstrom
           Maximum rank =  0   Radius =  0.325 angstrom
                   Q00  =   0.105877

H          x = -0.552468  y = -2.492477  z =  4.300839 angstrom
           Maximum rank =  0   Radius =  0.325 angstrom
                   Q00  =   0.104021

H          x =  0.327266  y = -1.923627  z =  5.755569 angstrom
           Maximum rank =  0   Radius =  0.325 angstrom
                   Q00  =   0.099641

C          x = -1.455468  y =  1.260523  z = -6.117161 angstrom
           Maximum rank =  0   Radius =  0.650 angstrom
                   Q00  =  -0.197340

C          x = -0.634468  y =  0.662523  z = -2.460161 angstrom
           Maximum rank =  0   Radius =  0.650 angstrom
                   Q00  =  -0.069709

C          x = -0.550468  y =  1.100523  z = -3.777161 angstrom
           Maximum rank =  0   Radius =  0.650 angstrom
                   Q00  =  -0.061316

C          x = -1.720468  y = -0.098477  z = -2.050161 angstrom
           Maximum rank =  0   Radius =  0.650 angstrom
                   Q00  =  -0.076452

C          x = -1.549468  y =  0.779523  z = -4.694161 angstrom
           Maximum rank =  0   Radius =  0.650 angstrom
                   Q00  =  -0.102131

C          x = -2.721468  y = -0.420477  z = -2.957161 angstrom
           Maximum rank =  0   Radius =  0.650 angstrom
                   Q00  =  -0.079409

C          x = -2.634468  y =  0.018523  z = -4.274161 angstrom
           Maximum rank =  0   Radius =  0.650 angstrom
                   Q00  =  -0.006471

H          x =  0.148532  y =  0.906523  z = -1.759161 angstrom
           Maximum rank =  0   Radius =  0.325 angstrom
                   Q00  =   0.064828

H          x =  0.295532  y =  1.698523  z = -4.086161 angstrom
           Maximum rank =  0   Radius =  0.325 angstrom
                   Q00  =   0.050025

H          x = -1.785468  y = -0.439477  z = -1.025161 angstrom
           Maximum rank =  0   Radius =  0.325 angstrom
                   Q00  =   0.065432

H          x = -3.572468  y = -1.004477  z = -2.635161 angstrom
           Maximum rank =  0   Radius =  0.325 angstrom
                   Q00  =   0.061594

H          x = -1.202468  y =  2.321523  z = -6.086161 angstrom
           Maximum rank =  0   Radius =  0.325 angstrom
                   Q00  =   0.095805

H          x = -2.425468  y =  1.171523  z = -6.609161 angstrom
           Maximum rank =  0   Radius =  0.325 angstrom
                   Q00  =   0.097238

H          x = -3.421468  y = -0.235477  z = -4.969161 angstrom
           Maximum rank =  0   Radius =  0.325 angstrom
                   Q00  =   0.054982

H          x = -0.688877  y =  0.737493  z = -6.707731 angstrom
           Maximum rank =  0   Radius =  0.325 angstrom
                   Q00  =   0.103190

Total multipoles referred to origin at
           x =   0.000000,  y =    0.000000,  z =    0.000000 angstrom
                   Q00  =  -0.000000

Finished at 17:30:39 on 27 Apr 2020

  DMA results are available in the Python driver through the
	  variable('DMA DISTRIBUTED MULTIPOLES')
  and
	  variable('DMA TOTAL MULTIPOLES')
  commands.

    Psi4 stopped on: Monday, 27 April 2020 05:30PM
    Psi4 wall time for execution: 0:22:02.83

*** Psi4 exiting successfully. Buy a developer a beer!
