                               Psi4 1.3.2 release

  ==> Input File <==

--------------------------------------------------------------------------
import numpy as np
set {scf_type pk
basis cc-pvdz
d_convergence 10
gdma_switch   0
gdma_limit    0
gdma_origin   [ 0.0,  0.0,  0.0 ]
}
molecule test {
    units Angstrom
    0 1
    --
    0 1
    C                1.211974896929559    -0.795829256572471    -1.315983676696969
    C                2.141974896929559     0.282170743427528    -0.759983676696969
    H                1.039974896929559    -1.569829256572471    -0.568983676696969
    H                0.254974896929559    -0.355829256572472    -1.591983676696969
    H                1.653974896929559    -1.245829256572471    -2.205983676696969
    H                1.695974896929559     0.649170743427528     0.160016323303031
    H                3.137114896929559    -0.126369256572472    -0.530224676696969
    H                2.214014896929559     1.135120743427529    -1.450843676696969
    C               -0.948025103070441     0.451170743427528     1.087016323303031
    C               -2.405025103070441     0.057170743427528     0.985016323303031
    H               -0.333025103070441    -0.423829256572472     1.307016323303031
    H               -0.639025103070441     0.892170743427528     0.142016323303031
    H               -0.800025103070441     1.184170743427529     1.879016323303031
    H               -2.972025103070441     0.875170743427529     0.548016323303031
    H               -2.753795103070441    -0.119019256572472     2.013276323303031
    H               -2.508845103070441    -0.831789256572471     0.345511323303031

}
e, wfn = energy('scf', return_wfn=True)
gdma(wfn)
dmavals = variable('DMA DISTRIBUTED MULTIPOLES')
charges = np.array(dmavals)
print(charges)
np.save('SSI-016LEU-065LEU-1-dimer.npy', np.array(charges))--------------------------------------------------------------------------

*** tstart() called on ds3
*** at Mon Apr 27 12:48:28 2020

   => Loading Basis Set <=

    Name: CC-PVDZ
    Role: ORBITAL
    Keyword: BASIS
    atoms 1-2, 9-10  entry C          line   138 file /theoryfs2/ds/metcalf/miniconda2/envs/tf2gpu/share/psi4/basis/cc-pvdz.gbs
    atoms 3-8, 11-16 entry H          line    22 file /theoryfs2/ds/metcalf/miniconda2/envs/tf2gpu/share/psi4/basis/cc-pvdz.gbs

         ---------------------------------------------------------
                                   SCF
               by Justin Turney, Rob Parrish, Andy Simmonett
                          and Daniel G. A. Smith
                              RHF Reference
                        1 Threads,    500 MiB Core
         ---------------------------------------------------------

  ==> Geometry <==

    Molecular point group: c1
    Full point group: C1

    Geometry (in Angstrom), charge = 0, multiplicity = 1:

       Center              X                  Y                   Z               Mass
    ------------   -----------------  -----------------  -----------------  -----------------
         C            1.211974896930    -0.795829256572    -1.315983676697    12.000000000000
         C            2.141974896930     0.282170743428    -0.759983676697    12.000000000000
         H            1.039974896930    -1.569829256572    -0.568983676697     1.007825032230
         H            0.254974896930    -0.355829256572    -1.591983676697     1.007825032230
         H            1.653974896930    -1.245829256572    -2.205983676697     1.007825032230
         H            1.695974896930     0.649170743428     0.160016323303     1.007825032230
         H            3.137114896930    -0.126369256572    -0.530224676697     1.007825032230
         H            2.214014896930     1.135120743428    -1.450843676697     1.007825032230
         C           -0.948025103070     0.451170743428     1.087016323303    12.000000000000
         C           -2.405025103070     0.057170743428     0.985016323303    12.000000000000
         H           -0.333025103070    -0.423829256572     1.307016323303     1.007825032230
         H           -0.639025103070     0.892170743428     0.142016323303     1.007825032230
         H           -0.800025103070     1.184170743428     1.879016323303     1.007825032230
         H           -2.972025103070     0.875170743428     0.548016323303     1.007825032230
         H           -2.753795103070    -0.119019256572     2.013276323303     1.007825032230
         H           -2.508845103070    -0.831789256572     0.345511323303     1.007825032230

  Running in c1 symmetry.

  Rotational constants: A =      0.44541  B =      0.06433  C =      0.05893 [cm^-1]
  Rotational constants: A =  13353.12525  B =   1928.47461  C =   1766.54554 [MHz]
  Nuclear repulsion =  127.573210887450671

  Charge       = 0
  Multiplicity = 1
  Electrons    = 36
  Nalpha       = 18
  Nbeta        = 18

  ==> Algorithm <==

  SCF Algorithm Type is PK.
  DIIS enabled.
  MOM disabled.
  Fractional occupation disabled.
  Guess Type is SAD.
  Energy threshold   = 1.00e-06
  Density threshold  = 1.00e-10
  Integral threshold = 0.00e+00

  ==> Primary Basis <==

  Basis Set: CC-PVDZ
    Blend: CC-PVDZ
    Number of shells: 60
    Number of basis function: 116
    Number of Cartesian functions: 120
    Spherical Harmonics?: true
    Max angular momentum: 2

  ==> Pre-Iterations <==

   -------------------------------------------------------
    Irrep   Nso     Nmo     Nalpha   Nbeta   Ndocc  Nsocc
   -------------------------------------------------------
     A        116     116       0       0       0       0
   -------------------------------------------------------
    Total     116     116      18      18      18       0
   -------------------------------------------------------

  ==> Integral Setup <==

  Using integral reordering PK algorithm.
  Sizing the integral batches needed.
  Building batch lookup table.
   Calculation information:
      Number of atoms:                  16
      Number of AO shells:              60
      Number of primitives:            148
      Number of atomic orbitals:       120
      Number of basis functions:       116

      Integral cutoff                 1.00e-12
      Number of threads:                 1

	Batch   1 pq = [       0,    6786] index = [             0,23028291] size =     23028291
  Task number: 3
  Buffer size: 11059200
  Buffer per thread: 2
  We computed 1589568 shell quartets total.
  Whereas there are 1675365 unique shell quartets.

  ==> DiskJK: Disk-Based J/K Matrices <==

    J tasked:                  Yes
    K tasked:                  Yes
    wK tasked:                  No
    Memory [MiB]:              375
    Schwarz Cutoff:          1E-12

    OpenMP threads:              1

  Minimum eigenvalue in the overlap matrix is 6.3610867253E-03.
  Using Symmetric Orthogonalization.

  SCF Guess: Superposition of Atomic Densities via on-the-fly atomic UHF.

  ==> Iterations <==

                        Total Energy        Delta E     RMS |[F,P]|

   @RHF iter SAD:  -157.42511243692644   -1.57425e+02   0.00000e+00
   @RHF iter   1:  -158.30136173297896   -8.76249e-01   4.23789e-03 DIIS
   @RHF iter   2:  -158.43679079742239   -1.35429e-01   1.79858e-03 DIIS
   @RHF iter   3:  -158.46030071355790   -2.35099e-02   3.52747e-04 DIIS
   @RHF iter   4:  -158.46215913717509   -1.85842e-03   3.87276e-05 DIIS
   @RHF iter   5:  -158.46218294282841   -2.38057e-05   6.27198e-06 DIIS
   @RHF iter   6:  -158.46218356101198   -6.18184e-07   7.93244e-07 DIIS
   @RHF iter   7:  -158.46218356953804   -8.52606e-09   2.29935e-07 DIIS
   @RHF iter   8:  -158.46218357002809   -4.90047e-10   5.18885e-08 DIIS
   @RHF iter   9:  -158.46218357007308   -4.49916e-11   1.05504e-08 DIIS
   @RHF iter  10:  -158.46218357007481   -1.73372e-12   2.71188e-09 DIIS
   @RHF iter  11:  -158.46218357007587   -1.05160e-12   6.71450e-10 DIIS
   @RHF iter  12:  -158.46218357007541    4.54747e-13   1.68517e-10 DIIS
   @RHF iter  13:  -158.46218357007533    8.52651e-14   3.29126e-11 DIIS
  Energy and wave function converged.

  ==> Post-Iterations <==

    Orbital Energies [Eh]
    ---------------------

    Doubly Occupied:

       1A    -11.217807     2A    -11.216996     3A    -11.215971
       4A    -11.214380     5A     -1.025191     6A     -1.016344
       7A     -0.836258     8A     -0.834426     9A     -0.611430
      10A     -0.603533    11A     -0.595234    12A     -0.590411
      13A     -0.503147    14A     -0.500032    15A     -0.489437
      16A     -0.484201    17A     -0.482773    18A     -0.477835

    Virtual:

      19A      0.174001    20A      0.201648    21A      0.224846
      22A      0.228156    23A      0.253092    24A      0.253673
      25A      0.263358    26A      0.275983    27A      0.283166
      28A      0.303677    29A      0.313446    30A      0.364413
      31A      0.387334    32A      0.425126    33A      0.568915
      34A      0.592813    35A      0.602360    36A      0.606209
      37A      0.614398    38A      0.642286    39A      0.661275
      40A      0.689724    41A      0.724702    42A      0.817933
      43A      0.841703    44A      0.872481    45A      0.884427
      46A      0.894663    47A      0.894896    48A      0.902357
      49A      0.911835    50A      0.912643    51A      0.922701
      52A      0.930335    53A      0.953002    54A      0.966549
      55A      0.989491    56A      1.001022    57A      1.117577
      58A      1.127787    59A      1.133847    60A      1.174606
      61A      1.233724    62A      1.246577    63A      1.465423
      64A      1.480247    65A      1.489634    66A      1.502265
      67A      1.545092    68A      1.644779    69A      1.672002
      70A      1.680134    71A      1.693701    72A      1.724489
      73A      1.855386    74A      1.869266    75A      1.872390
      76A      1.889830    77A      1.892041    78A      1.931658
      79A      1.933512    80A      1.938614    81A      1.945443
      82A      1.951148    83A      1.954967    84A      1.958450
      85A      1.973539    86A      1.980582    87A      2.012325
      88A      2.050556    89A      2.118130    90A      2.121518
      91A      2.133961    92A      2.161125    93A      2.282622
      94A      2.306293    95A      2.322442    96A      2.354064
      97A      2.439215    98A      2.448133    99A      2.468102
     100A      2.475814   101A      2.561830   102A      2.579476
     103A      2.590840   104A      2.596038   105A      2.761921
     106A      2.774548   107A      2.794133   108A      2.800624
     109A      2.834664   110A      2.848522   111A      2.858830
     112A      2.868120   113A      2.943146   114A      2.950410
     115A      2.968701   116A      3.005512

    Final Occupation by Irrep:
              A
    DOCC [    18 ]

  @RHF Final Energy:  -158.46218357007533

   => Energetics <=

    Nuclear Repulsion Energy =            127.5732108874506707
    One-Electron Energy =                -464.2399819240947068
    Two-Electron Energy =                 178.2045874665687109
    Total Energy =                       -158.4621835700753252

Computation Completed

Properties will be evaluated at   0.000000,   0.000000,   0.000000 [a0]

Properties computed using the SCF density matrix

  Nuclear Dipole Moment: [e a0]
     X:    -0.0100      Y:     0.0594      Z:     0.0439

  Electronic Dipole Moment: [e a0]
     X:    -0.0035      Y:    -0.0441      Z:    -0.0310

  Dipole Moment: [e a0]
     X:    -0.0135      Y:     0.0152      Z:     0.0129     Total:     0.0241

  Dipole Moment: [D]
     X:    -0.0343      Y:     0.0387      Z:     0.0328     Total:     0.0613

*** tstop() called on ds3 at Mon Apr 27 12:48:41 2020
Module time:
	user time   =       9.46 seconds =       0.16 minutes
	system time =       4.12 seconds =       0.07 minutes
	total time  =         13 seconds =       0.22 minutes
Total time:
	user time   =       9.46 seconds =       0.16 minutes
	system time =       4.12 seconds =       0.07 minutes
	total time  =         13 seconds =       0.22 minutes
                                     G D M A

                                 by Anthony Stone

                           version 2.2.06, 22 June 2011

               Distributed Multipoles from Gaussian wavefunctions

Starting at 12:48:41 on 27 Apr 2020

Using SCF density matrix from file ./SSI/SSI-016LEU-065LEU-1-dimer.test.4145.fchk

                         Distributed Multipole Analysis

Standard DMA

Positions and radii in angstrom
Multipole moments in atomic units, ea_0^k for rank k

C          x =  1.211975  y = -0.795829  z = -1.315984 angstrom
           Maximum rank =  0   Radius =  0.650 angstrom
                   Q00  =  -0.237466

C          x =  2.141975  y =  0.282171  z = -0.759984 angstrom
           Maximum rank =  0   Radius =  0.650 angstrom
                   Q00  =  -0.236839

H          x =  1.039975  y = -1.569829  z = -0.568984 angstrom
           Maximum rank =  0   Radius =  0.325 angstrom
                   Q00  =   0.078880

H          x =  0.254975  y = -0.355829  z = -1.591984 angstrom
           Maximum rank =  0   Radius =  0.325 angstrom
                   Q00  =   0.077460

H          x =  1.653975  y = -1.245829  z = -2.205984 angstrom
           Maximum rank =  0   Radius =  0.325 angstrom
                   Q00  =   0.078206

H          x =  1.695975  y =  0.649171  z =  0.160016 angstrom
           Maximum rank =  0   Radius =  0.325 angstrom
                   Q00  =   0.080054

H          x =  3.137115  y = -0.126369  z = -0.530225 angstrom
           Maximum rank =  0   Radius =  0.325 angstrom
                   Q00  =   0.080569

H          x =  2.214015  y =  1.135121  z = -1.450844 angstrom
           Maximum rank =  0   Radius =  0.325 angstrom
                   Q00  =   0.078333

C          x = -0.948025  y =  0.451171  z =  1.087016 angstrom
           Maximum rank =  0   Radius =  0.650 angstrom
                   Q00  =  -0.244549

C          x = -2.405025  y =  0.057171  z =  0.985016 angstrom
           Maximum rank =  0   Radius =  0.650 angstrom
                   Q00  =  -0.213507

H          x = -0.333025  y = -0.423829  z =  1.307016 angstrom
           Maximum rank =  0   Radius =  0.325 angstrom
                   Q00  =   0.075441

H          x = -0.639025  y =  0.892171  z =  0.142016 angstrom
           Maximum rank =  0   Radius =  0.325 angstrom
                   Q00  =   0.073818

H          x = -0.800025  y =  1.184171  z =  1.879016 angstrom
           Maximum rank =  0   Radius =  0.325 angstrom
                   Q00  =   0.076636

H          x = -2.972025  y =  0.875171  z =  0.548016 angstrom
           Maximum rank =  0   Radius =  0.325 angstrom
                   Q00  =   0.078778

H          x = -2.753795  y = -0.119019  z =  2.013276 angstrom
           Maximum rank =  0   Radius =  0.325 angstrom
                   Q00  =   0.074935

H          x = -2.508845  y = -0.831789  z =  0.345511 angstrom
           Maximum rank =  0   Radius =  0.325 angstrom
                   Q00  =   0.079251

Total multipoles referred to origin at
           x =   0.000000,  y =    0.000000,  z =    0.000000 angstrom
                   Q00  =  -0.000000

Finished at 12:48:41 on 27 Apr 2020

  DMA results are available in the Python driver through the
	  variable('DMA DISTRIBUTED MULTIPOLES')
  and
	  variable('DMA TOTAL MULTIPOLES')
  commands.

    Psi4 stopped on: Monday, 27 April 2020 12:48PM
    Psi4 wall time for execution: 0:00:13.41

*** Psi4 exiting successfully. Buy a developer a beer!
