                               Psi4 1.3.2 release

  ==> Input File <==

--------------------------------------------------------------------------
import numpy as np
set {scf_type pk
basis cc-pvdz
d_convergence 10
gdma_switch   0
gdma_limit    0
gdma_origin   [ 0.0,  0.0,  0.0 ]
}
molecule test {
    units Angstrom
    0 1
    --
    0 1
    C               -0.566103359196775     1.918200007861751     1.011130584112215
    C               -1.534103359196775     1.111200007861751     1.877130584112215
    N                0.825896640803225     1.392200007861751     1.091130584112216
    H               -0.911103359196775     1.890200007861751    -0.028869415887785
    H               -0.585103359196775     2.965200007861751     1.337130584112215
    H               -1.157103359196775     1.100200007861751     2.900130584112215
    H               -1.595103359196775     0.079200007861751     1.520130584112215
    H                0.876896640803225     0.408200007861751     0.837130584112215
    H                1.429896640803225     1.882200007861751     0.439130584112215
    H                1.231896640803225     1.512200007861751     2.011130584112216
    H               -2.538303359196775     1.559430007861751     1.902989584112215
    C               -0.813103359196775    -1.398799992138249    -1.933869415887785
    C                0.348896640803225    -1.142799992138249    -0.979869415887785
    O                0.398896640803225    -1.707799992138249     0.139130584112215
    O                1.215896640803225    -0.323799992138249    -1.353869415887784
    H               -0.452103359196775    -1.474799992138249    -2.961869415887785
    H               -1.472103359196775    -0.535799992138249    -1.857869415887784
    H               -1.396973359196775    -2.295129992138248    -1.677570415887785

}
e, wfn = energy('scf', return_wfn=True)
gdma(wfn)
dmavals = variable('DMA DISTRIBUTED MULTIPOLES')
charges = np.array(dmavals)
print(charges)
np.save('SSI-056LYS-160ASP-1-dimer.npy', np.array(charges))--------------------------------------------------------------------------

*** tstart() called on ds3
*** at Sun Apr 26 22:23:08 2020

   => Loading Basis Set <=

    Name: CC-PVDZ
    Role: ORBITAL
    Keyword: BASIS
    atoms 1-2, 12-13  entry C          line   138 file /theoryfs2/ds/metcalf/miniconda2/envs/tf2gpu/share/psi4/basis/cc-pvdz.gbs
    atoms 3           entry N          line   168 file /theoryfs2/ds/metcalf/miniconda2/envs/tf2gpu/share/psi4/basis/cc-pvdz.gbs
    atoms 4-11, 16-18 entry H          line    22 file /theoryfs2/ds/metcalf/miniconda2/envs/tf2gpu/share/psi4/basis/cc-pvdz.gbs
    atoms 14-15       entry O          line   198 file /theoryfs2/ds/metcalf/miniconda2/envs/tf2gpu/share/psi4/basis/cc-pvdz.gbs

         ---------------------------------------------------------
                                   SCF
               by Justin Turney, Rob Parrish, Andy Simmonett
                          and Daniel G. A. Smith
                              RHF Reference
                        1 Threads,    500 MiB Core
         ---------------------------------------------------------

  ==> Geometry <==

    Molecular point group: c1
    Full point group: C1

    Geometry (in Angstrom), charge = 0, multiplicity = 1:

       Center              X                  Y                   Z               Mass
    ------------   -----------------  -----------------  -----------------  -----------------
         C           -0.566103359197     1.918200007862     1.011130584112    12.000000000000
         C           -1.534103359197     1.111200007862     1.877130584112    12.000000000000
         N            0.825896640803     1.392200007862     1.091130584112    14.003074004430
         H           -0.911103359197     1.890200007862    -0.028869415888     1.007825032230
         H           -0.585103359197     2.965200007862     1.337130584112     1.007825032230
         H           -1.157103359197     1.100200007862     2.900130584112     1.007825032230
         H           -1.595103359197     0.079200007862     1.520130584112     1.007825032230
         H            0.876896640803     0.408200007862     0.837130584112     1.007825032230
         H            1.429896640803     1.882200007862     0.439130584112     1.007825032230
         H            1.231896640803     1.512200007862     2.011130584112     1.007825032230
         H           -2.538303359197     1.559430007862     1.902989584112     1.007825032230
         C           -0.813103359197    -1.398799992138    -1.933869415888    12.000000000000
         C            0.348896640803    -1.142799992138    -0.979869415888    12.000000000000
         O            0.398896640803    -1.707799992138     0.139130584112    15.994914619570
         O            1.215896640803    -0.323799992138    -1.353869415888    15.994914619570
         H           -0.452103359197    -1.474799992138    -2.961869415888     1.007825032230
         H           -1.472103359197    -0.535799992138    -1.857869415888     1.007825032230
         H           -1.396973359197    -2.295129992138    -1.677570415888     1.007825032230

  Running in c1 symmetry.

  Rotational constants: A =      0.11618  B =      0.04194  C =      0.03810 [cm^-1]
  Rotational constants: A =   3482.89030  B =   1257.32349  C =   1142.27532 [MHz]
  Nuclear repulsion =  317.195904642284290

  Charge       = 0
  Multiplicity = 1
  Electrons    = 58
  Nalpha       = 29
  Nbeta        = 29

  ==> Algorithm <==

  SCF Algorithm Type is PK.
  DIIS enabled.
  MOM disabled.
  Fractional occupation disabled.
  Guess Type is SAD.
  Energy threshold   = 1.00e-06
  Density threshold  = 1.00e-10
  Integral threshold = 0.00e+00

  ==> Primary Basis <==

  Basis Set: CC-PVDZ
    Blend: CC-PVDZ
    Number of shells: 75
    Number of basis function: 153
    Number of Cartesian functions: 160
    Spherical Harmonics?: true
    Max angular momentum: 2

  ==> Pre-Iterations <==

   -------------------------------------------------------
    Irrep   Nso     Nmo     Nalpha   Nbeta   Ndocc  Nsocc
   -------------------------------------------------------
     A        153     153       0       0       0       0
   -------------------------------------------------------
    Total     153     153      29      29      29       0
   -------------------------------------------------------

  ==> Integral Setup <==

  Using integral reordering PK algorithm.
  Sizing the integral batches needed.
  Building batch lookup table.
   Calculation information:
      Number of atoms:                  18
      Number of AO shells:              75
      Number of primitives:            209
      Number of atomic orbitals:       160
      Number of basis functions:       153

      Integral cutoff                 1.00e-12
      Number of threads:                 1

	Batch   1 pq = [       0,    9405] index = [             0,44231715] size =     44231715
	Batch   2 pq = [    9405,   11781] index = [      44231715,69401871] size =     25170156
  Task number: 7
  Buffer size: 11059200
  Buffer per thread: 2
  We computed 3904039 shell quartets total.
  Whereas there are 4062675 unique shell quartets.

  ==> DiskJK: Disk-Based J/K Matrices <==

    J tasked:                  Yes
    K tasked:                  Yes
    wK tasked:                  No
    Memory [MiB]:              375
    Schwarz Cutoff:          1E-12

    OpenMP threads:              1

  Minimum eigenvalue in the overlap matrix is 5.2057972575E-03.
  Using Symmetric Orthogonalization.

  SCF Guess: Superposition of Atomic Densities via on-the-fly atomic UHF.

  ==> Iterations <==

                        Total Energy        Delta E     RMS |[F,P]|

   @RHF iter SAD:  -360.69217708185391   -3.60692e+02   0.00000e+00
   @RHF iter   1:  -361.78277140755733   -1.09059e+00   4.69932e-03 DIIS
   @RHF iter   2:  -361.98582041224256   -2.03049e-01   2.56415e-03 DIIS
   @RHF iter   3:  -362.04141821283196   -5.55978e-02   4.36000e-04 DIIS
   @RHF iter   4:  -362.04439961975231   -2.98141e-03   1.45581e-04 DIIS
   @RHF iter   5:  -362.04473407762288   -3.34458e-04   2.48271e-05 DIIS
   @RHF iter   6:  -362.04474726415094   -1.31865e-05   7.67937e-06 DIIS
   @RHF iter   7:  -362.04474810770409   -8.43553e-07   3.20402e-06 DIIS
   @RHF iter   8:  -362.04474826410831   -1.56404e-07   7.63280e-07 DIIS
   @RHF iter   9:  -362.04474828292530   -1.88170e-08   2.74967e-07 DIIS
   @RHF iter  10:  -362.04474828564139   -2.71609e-09   1.01269e-07 DIIS
   @RHF iter  11:  -362.04474828614985   -5.08464e-10   3.20237e-08 DIIS
   @RHF iter  12:  -362.04474828620346   -5.36033e-11   8.75557e-09 DIIS
   @RHF iter  13:  -362.04474828620545   -1.98952e-12   2.65219e-09 DIIS
   @RHF iter  14:  -362.04474828620619   -7.38964e-13   9.53214e-10 DIIS
   @RHF iter  15:  -362.04474828620511    1.08002e-12   3.32805e-10 DIIS
   @RHF iter  16:  -362.04474828620550   -3.97904e-13   1.31078e-10 DIIS
   @RHF iter  17:  -362.04474828620585   -3.41061e-13   5.44891e-11 DIIS
  Energy and wave function converged.

  ==> Post-Iterations <==

    Orbital Energies [Eh]
    ---------------------

    Doubly Occupied:

       1A    -20.421553     2A    -20.416776     3A    -15.735683
       4A    -11.345087     5A    -11.275281     6A    -11.268202
       7A    -11.178256     8A     -1.359582     9A     -1.308811
      10A     -1.192766    11A     -1.079930    12A     -0.927431
      13A     -0.917051    14A     -0.817019    15A     -0.800610
      16A     -0.713683    17A     -0.658385    18A     -0.645068
      19A     -0.592105    20A     -0.566656    21A     -0.554478
      22A     -0.552988    23A     -0.547061    24A     -0.544865
      25A     -0.482994    26A     -0.453589    27A     -0.338441
      28A     -0.327965    29A     -0.321642

    Virtual:

      30A      0.103908    31A      0.154615    32A      0.166753
      33A      0.189049    34A      0.204280    35A      0.232749
      36A      0.249797    37A      0.274262    38A      0.279226
      39A      0.295416    40A      0.297553    41A      0.307815
      42A      0.349725    43A      0.362091    44A      0.447183
      45A      0.499167    46A      0.539833    47A      0.553640
      48A      0.561083    49A      0.578242    50A      0.606829
      51A      0.630310    52A      0.695581    53A      0.727840
      54A      0.748428    55A      0.760305    56A      0.774777
      57A      0.798537    58A      0.822346    59A      0.827722
      60A      0.840796    61A      0.844919    62A      0.869822
      63A      0.882325    64A      0.886075    65A      0.907473
      66A      0.926480    67A      0.938335    68A      0.968249
      69A      0.979225    70A      0.992281    71A      1.008280
      72A      1.031354    73A      1.072958    74A      1.075034
      75A      1.109317    76A      1.167196    77A      1.202754
      78A      1.232361    79A      1.274408    80A      1.332556
      81A      1.395271    82A      1.410157    83A      1.418841
      84A      1.436274    85A      1.452282    86A      1.458638
      87A      1.521882    88A      1.531291    89A      1.558939
      90A      1.593266    91A      1.615216    92A      1.641524
      93A      1.685420    94A      1.719397    95A      1.734232
      96A      1.758748    97A      1.793927    98A      1.826494
      99A      1.856118   100A      1.872801   101A      1.895086
     102A      1.902664   103A      1.912375   104A      1.924540
     105A      1.940580   106A      1.954282   107A      1.974994
     108A      2.004085   109A      2.024911   110A      2.046973
     111A      2.072346   112A      2.080411   113A      2.117237
     114A      2.160291   115A      2.173466   116A      2.186747
     117A      2.238616   118A      2.259138   119A      2.301412
     120A      2.317960   121A      2.323121   122A      2.343806
     123A      2.428580   124A      2.460768   125A      2.488267
     126A      2.512495   127A      2.548028   128A      2.577372
     129A      2.585435   130A      2.628374   131A      2.679407
     132A      2.691395   133A      2.727302   134A      2.771330
     135A      2.799957   136A      2.803626   137A      2.848450
     138A      2.865432   139A      2.894184   140A      2.960552
     141A      2.992290   142A      3.084086   143A      3.118544
     144A      3.151954   145A      3.198556   146A      3.289677
     147A      3.310607   148A      3.484405   149A      3.622220
     150A      3.673273   151A      3.917117   152A      3.926223
     153A      4.045804

    Final Occupation by Irrep:
              A
    DOCC [    29 ]

  @RHF Final Energy:  -362.04474828620585

   => Energetics <=

    Nuclear Repulsion Energy =            317.1959046422842903
    One-Electron Energy =               -1123.7933930883029916
    Two-Electron Energy =                 444.5527401598128563
    Total Energy =                       -362.0447482862058450

Computation Completed

Properties will be evaluated at   0.000000,   0.000000,   0.000000 [a0]

Properties computed using the SCF density matrix

  Nuclear Dipole Moment: [e a0]
     X:    -6.1531      Y:     6.6339      Z:     4.1361

  Electronic Dipole Moment: [e a0]
     X:     5.4219      Y:    -2.8649      Z:    -1.7249

  Dipole Moment: [e a0]
     X:    -0.7312      Y:     3.7690      Z:     2.4112     Total:     4.5336

  Dipole Moment: [D]
     X:    -1.8584      Y:     9.5797      Z:     6.1288     Total:    11.5233

*** tstop() called on ds3 at Sun Apr 26 22:23:48 2020
Module time:
	user time   =      29.47 seconds =       0.49 minutes
	system time =      11.30 seconds =       0.19 minutes
	total time  =         40 seconds =       0.67 minutes
Total time:
	user time   =      29.47 seconds =       0.49 minutes
	system time =      11.30 seconds =       0.19 minutes
	total time  =         40 seconds =       0.67 minutes
                                     G D M A

                                 by Anthony Stone

                           version 2.2.06, 22 June 2011

               Distributed Multipoles from Gaussian wavefunctions

Starting at 22:23:48 on 26 Apr 2020

Using SCF density matrix from file ./SSI/SSI-056LYS-160ASP-1-dimer.test.20626.fchk

                         Distributed Multipole Analysis

Standard DMA

Positions and radii in angstrom
Multipole moments in atomic units, ea_0^k for rank k

C          x = -0.566103  y =  1.918200  z =  1.011131 angstrom
           Maximum rank =  0   Radius =  0.650 angstrom
                   Q00  =  -0.005829

C          x = -1.534103  y =  1.111200  z =  1.877131 angstrom
           Maximum rank =  0   Radius =  0.650 angstrom
                   Q00  =  -0.216351

N          x =  0.825897  y =  1.392200  z =  1.091131 angstrom
           Maximum rank =  0   Radius =  0.650 angstrom
                   Q00  =  -0.107480

H          x = -0.911103  y =  1.890200  z = -0.028869 angstrom
           Maximum rank =  0   Radius =  0.325 angstrom
                   Q00  =   0.130967

H          x = -0.585103  y =  2.965200  z =  1.337131 angstrom
           Maximum rank =  0   Radius =  0.325 angstrom
                   Q00  =   0.088983

H          x = -1.157103  y =  1.100200  z =  2.900131 angstrom
           Maximum rank =  0   Radius =  0.325 angstrom
                   Q00  =   0.080860

H          x = -1.595103  y =  0.079200  z =  1.520131 angstrom
           Maximum rank =  0   Radius =  0.325 angstrom
                   Q00  =   0.122205

H          x =  0.876897  y =  0.408200  z =  0.837131 angstrom
           Maximum rank =  0   Radius =  0.325 angstrom
                   Q00  =   0.280570

H          x =  1.429897  y =  1.882200  z =  0.439131 angstrom
           Maximum rank =  0   Radius =  0.325 angstrom
                   Q00  =   0.249416

H          x =  1.231897  y =  1.512200  z =  2.011131 angstrom
           Maximum rank =  0   Radius =  0.325 angstrom
                   Q00  =   0.218407

H          x = -2.538303  y =  1.559430  z =  1.902990 angstrom
           Maximum rank =  0   Radius =  0.325 angstrom
                   Q00  =   0.119576

C          x = -0.813103  y = -1.398800  z = -1.933869 angstrom
           Maximum rank =  0   Radius =  0.650 angstrom
                   Q00  =  -0.270401

C          x =  0.348897  y = -1.142800  z = -0.979869 angstrom
           Maximum rank =  0   Radius =  0.650 angstrom
                   Q00  =   0.885595

O          x =  0.398897  y = -1.707800  z =  0.139131 angstrom
           Maximum rank =  0   Radius =  0.650 angstrom
                   Q00  =  -0.908597

O          x =  1.215897  y = -0.323800  z = -1.353869 angstrom
           Maximum rank =  0   Radius =  0.650 angstrom
                   Q00  =  -0.920515

H          x = -0.452103  y = -1.474800  z = -2.961869 angstrom
           Maximum rank =  0   Radius =  0.325 angstrom
                   Q00  =   0.099428

H          x = -1.472103  y = -0.535800  z = -1.857869 angstrom
           Maximum rank =  0   Radius =  0.325 angstrom
                   Q00  =   0.071560

H          x = -1.396973  y = -2.295130  z = -1.677570 angstrom
           Maximum rank =  0   Radius =  0.325 angstrom
                   Q00  =   0.081607

Total multipoles referred to origin at
           x =   0.000000,  y =    0.000000,  z =    0.000000 angstrom
                   Q00  =  -0.000000

Finished at 22:23:48 on 26 Apr 2020

  DMA results are available in the Python driver through the
	  variable('DMA DISTRIBUTED MULTIPOLES')
  and
	  variable('DMA TOTAL MULTIPOLES')
  commands.

    Psi4 stopped on: Sunday, 26 April 2020 10:23PM
    Psi4 wall time for execution: 0:00:40.02

*** Psi4 exiting successfully. Buy a developer a beer!
