                               Psi4 1.3.2 release

  ==> Input File <==

--------------------------------------------------------------------------
import numpy as np
set {scf_type pk
basis cc-pvdz
d_convergence 10
gdma_switch   0
gdma_limit    0
gdma_origin   [ 0.0,  0.0,  0.0 ]
}
molecule test {
    units Angstrom
    0 1
    --
    0 1
    C                2.314215785423275    -2.309752704961693     1.837434166613041
    C                1.287215785423276    -1.325752704961692     1.301434166613041
    O                0.600215785423276    -1.658752704961693     0.314434166613041
    O                1.194215785423276    -0.208752704961692     1.877434166613041
    H                2.307215785423276    -2.294752704961692     2.928434166613041
    H                3.293215785423275    -1.945752704961693     1.524434166613041
    H                2.213825785423276    -3.347642704961692     1.487134166613041
    C               -0.934784214576724    -0.011752704961692    -2.702565833386959
    C               -1.108784214576724     1.367247295038307    -0.653565833386959
    N               -0.696784214576724     0.284247295038308    -1.273565833386959
    N               -1.898784214576724     2.228247295038307    -1.279565833386959
    N               -0.729784214576724     1.565247295038308     0.587434166613041
    H               -0.169784214576724    -0.399752704961692    -0.719565833386959
    H               -0.797784214576724     0.884247295038308    -3.312565833386959
    H               -1.943784214576724    -0.400752704961692    -2.848565833386959
    H               -2.216784214576724     2.036247295038307    -2.214565833386958
    H               -2.217784214576724     3.062247295038308    -0.807565833386959
    H               -0.073784214576724     0.907247295038307     1.025434166613041
    H               -1.012784214576724     2.392247295038308     1.087434166613041
    H               -0.206294214576724    -0.764792704961692    -3.037575833386959

}
e, wfn = energy('scf', return_wfn=True)
gdma(wfn)
dmavals = variable('DMA DISTRIBUTED MULTIPOLES')
charges = np.array(dmavals)
print(charges)
np.save('SSI-157ASP-204ARG-1-dimer.npy', np.array(charges))--------------------------------------------------------------------------

*** tstart() called on ds3
*** at Sun Apr 26 18:04:28 2020

   => Loading Basis Set <=

    Name: CC-PVDZ
    Role: ORBITAL
    Keyword: BASIS
    atoms 1-2, 8-9   entry C          line   138 file /theoryfs2/ds/metcalf/miniconda2/envs/tf2gpu/share/psi4/basis/cc-pvdz.gbs
    atoms 3-4        entry O          line   198 file /theoryfs2/ds/metcalf/miniconda2/envs/tf2gpu/share/psi4/basis/cc-pvdz.gbs
    atoms 5-7, 13-20 entry H          line    22 file /theoryfs2/ds/metcalf/miniconda2/envs/tf2gpu/share/psi4/basis/cc-pvdz.gbs
    atoms 10-12      entry N          line   168 file /theoryfs2/ds/metcalf/miniconda2/envs/tf2gpu/share/psi4/basis/cc-pvdz.gbs

         ---------------------------------------------------------
                                   SCF
               by Justin Turney, Rob Parrish, Andy Simmonett
                          and Daniel G. A. Smith
                              RHF Reference
                        1 Threads,    500 MiB Core
         ---------------------------------------------------------

  ==> Geometry <==

    Molecular point group: c1
    Full point group: C1

    Geometry (in Angstrom), charge = 0, multiplicity = 1:

       Center              X                  Y                   Z               Mass
    ------------   -----------------  -----------------  -----------------  -----------------
         C            2.314215785423    -2.309752704962     1.837434166613    12.000000000000
         C            1.287215785423    -1.325752704962     1.301434166613    12.000000000000
         O            0.600215785423    -1.658752704962     0.314434166613    15.994914619570
         O            1.194215785423    -0.208752704962     1.877434166613    15.994914619570
         H            2.307215785423    -2.294752704962     2.928434166613     1.007825032230
         H            3.293215785423    -1.945752704962     1.524434166613     1.007825032230
         H            2.213825785423    -3.347642704962     1.487134166613     1.007825032230
         C           -0.934784214577    -0.011752704962    -2.702565833387    12.000000000000
         C           -1.108784214577     1.367247295038    -0.653565833387    12.000000000000
         N           -0.696784214577     0.284247295038    -1.273565833387    14.003074004430
         N           -1.898784214577     2.228247295038    -1.279565833387    14.003074004430
         N           -0.729784214577     1.565247295038     0.587434166613    14.003074004430
         H           -0.169784214577    -0.399752704962    -0.719565833387     1.007825032230
         H           -0.797784214577     0.884247295038    -3.312565833387     1.007825032230
         H           -1.943784214577    -0.400752704962    -2.848565833387     1.007825032230
         H           -2.216784214577     2.036247295038    -2.214565833387     1.007825032230
         H           -2.217784214577     3.062247295038    -0.807565833387     1.007825032230
         H           -0.073784214577     0.907247295038     1.025434166613     1.007825032230
         H           -1.012784214577     2.392247295038     1.087434166613     1.007825032230
         H           -0.206294214577    -0.764792704962    -3.037575833387     1.007825032230

  Running in c1 symmetry.

  Rotational constants: A =      0.10026  B =      0.02441  C =      0.01998 [cm^-1]
  Rotational constants: A =   3005.63062  B =    731.92197  C =    599.04182 [MHz]
  Nuclear repulsion =  464.319362637381346

  Charge       = 0
  Multiplicity = 1
  Electrons    = 72
  Nalpha       = 36
  Nbeta        = 36

  ==> Algorithm <==

  SCF Algorithm Type is PK.
  DIIS enabled.
  MOM disabled.
  Fractional occupation disabled.
  Guess Type is SAD.
  Energy threshold   = 1.00e-06
  Density threshold  = 1.00e-10
  Integral threshold = 0.00e+00

  ==> Primary Basis <==

  Basis Set: CC-PVDZ
    Blend: CC-PVDZ
    Number of shells: 87
    Number of basis function: 181
    Number of Cartesian functions: 190
    Spherical Harmonics?: true
    Max angular momentum: 2

  ==> Pre-Iterations <==

   -------------------------------------------------------
    Irrep   Nso     Nmo     Nalpha   Nbeta   Ndocc  Nsocc
   -------------------------------------------------------
     A        181     181       0       0       0       0
   -------------------------------------------------------
    Total     181     181      36      36      36       0
   -------------------------------------------------------

  ==> Integral Setup <==

  Using integral reordering PK algorithm.
  Sizing the integral batches needed.
  Building batch lookup table.
   Calculation information:
      Number of atoms:                  20
      Number of AO shells:              87
      Number of primitives:            253
      Number of atomic orbitals:       190
      Number of basis functions:       181

      Integral cutoff                 1.00e-12
      Number of threads:                 1

	Batch   1 pq = [       0,    9405] index = [             0,44231715] size =     44231715
	Batch   2 pq = [    9405,   13301] index = [      44231715,88464951] size =     44233236
	Batch   3 pq = [   13301,   16471] index = [      88464951,135655156] size =     47190205
  Task number: 13
  Buffer size: 11059200
  Buffer per thread: 2
  We computed 5905820 shell quartets total.
  Whereas there are 7328706 unique shell quartets.

  ==> DiskJK: Disk-Based J/K Matrices <==

    J tasked:                  Yes
    K tasked:                  Yes
    wK tasked:                  No
    Memory [MiB]:              375
    Schwarz Cutoff:          1E-12

    OpenMP threads:              1

  Minimum eigenvalue in the overlap matrix is 3.6494860841E-03.
  Using Symmetric Orthogonalization.

  SCF Guess: Superposition of Atomic Densities via on-the-fly atomic UHF.

  ==> Iterations <==

                        Total Energy        Delta E     RMS |[F,P]|

   @RHF iter SAD:  -469.72558453710678   -4.69726e+02   0.00000e+00
   @RHF iter   1:  -470.73690335284039   -1.01132e+00   4.15425e-03 DIIS
   @RHF iter   2:  -470.95437373717255   -2.17470e-01   2.13330e-03 DIIS
   @RHF iter   3:  -471.00874138574750   -5.43676e-02   3.87953e-04 DIIS
   @RHF iter   4:  -471.01184382774153   -3.10244e-03   1.29230e-04 DIIS
   @RHF iter   5:  -471.01219238973181   -3.48562e-04   2.34335e-05 DIIS
   @RHF iter   6:  -471.01220872889502   -1.63392e-05   7.87377e-06 DIIS
   @RHF iter   7:  -471.01221012517453   -1.39628e-06   2.56115e-06 DIIS
   @RHF iter   8:  -471.01221029729447   -1.72120e-07   9.60951e-07 DIIS
   @RHF iter   9:  -471.01221031864151   -2.13470e-08   3.02205e-07 DIIS
   @RHF iter  10:  -471.01221032100443   -2.36292e-09   6.91875e-08 DIIS
   @RHF iter  11:  -471.01221032124312   -2.38686e-10   2.43053e-08 DIIS
   @RHF iter  12:  -471.01221032127268   -2.95586e-11   1.09607e-08 DIIS
   @RHF iter  13:  -471.01221032127512   -2.44427e-12   3.98595e-09 DIIS
   @RHF iter  14:  -471.01221032127353    1.59162e-12   1.11693e-09 DIIS
   @RHF iter  15:  -471.01221032127853   -5.00222e-12   4.24656e-10 DIIS
   @RHF iter  16:  -471.01221032127876   -2.27374e-13   1.39665e-10 DIIS
   @RHF iter  17:  -471.01221032128046   -1.70530e-12   5.94853e-11 DIIS
  Energy and wave function converged.

  ==> Post-Iterations <==

    Orbital Energies [Eh]
    ---------------------

    Doubly Occupied:

       1A    -20.434404     2A    -20.429512     3A    -15.645356
       4A    -15.604553     5A    -15.603376     6A    -11.421675
       7A    -11.304283     8A    -11.278706     9A    -11.173560
      10A     -1.382915    11A     -1.319180    12A     -1.238696
      13A     -1.224771    14A     -1.205807    15A     -0.990535
      16A     -0.925863    17A     -0.877663    18A     -0.814699
      19A     -0.778643    20A     -0.704543    21A     -0.691582
      22A     -0.669144    23A     -0.650193    24A     -0.628650
      25A     -0.598551    26A     -0.581608    27A     -0.563089
      28A     -0.550701    29A     -0.542616    30A     -0.485423
      31A     -0.465338    32A     -0.454568    33A     -0.414634
      34A     -0.347996    35A     -0.344010    36A     -0.336192

    Virtual:

      37A      0.126685    38A      0.158958    39A      0.186361
      40A      0.208776    41A      0.216897    42A      0.237562
      43A      0.245105    44A      0.248385    45A      0.275006
      46A      0.297772    47A      0.308441    48A      0.345360
      49A      0.359793    50A      0.410831    51A      0.436591
      52A      0.451059    53A      0.488044    54A      0.495649
      55A      0.577476    56A      0.596472    57A      0.606569
      58A      0.615189    59A      0.662115    60A      0.674811
      61A      0.680236    62A      0.692895    63A      0.699406
      64A      0.719615    65A      0.730489    66A      0.776355
      67A      0.796575    68A      0.823161    69A      0.829134
      70A      0.835318    71A      0.841757    72A      0.858948
      73A      0.901087    74A      0.908762    75A      0.909408
      76A      0.919387    77A      0.927859    78A      0.946596
      79A      0.960406    80A      0.976365    81A      0.987881
      82A      0.994876    83A      1.055221    84A      1.069684
      85A      1.083941    86A      1.109634    87A      1.122472
      88A      1.149269    89A      1.205580    90A      1.217077
      91A      1.242463    92A      1.269760    93A      1.293118
      94A      1.311053    95A      1.337106    96A      1.337420
      97A      1.372758    98A      1.378127    99A      1.403190
     100A      1.418988   101A      1.456982   102A      1.476893
     103A      1.513065   104A      1.544381   105A      1.571612
     106A      1.584634   107A      1.618665   108A      1.632501
     109A      1.665636   110A      1.686015   111A      1.710680
     112A      1.720808   113A      1.734112   114A      1.735190
     115A      1.807776   116A      1.820390   117A      1.861509
     118A      1.881384   119A      1.889509   120A      1.904443
     121A      1.910367   122A      1.939237   123A      1.951652
     124A      1.953804   125A      1.960903   126A      1.983097
     127A      1.993846   128A      2.009721   129A      2.027255
     130A      2.075073   131A      2.083780   132A      2.126711
     133A      2.152814   134A      2.187100   135A      2.222969
     136A      2.236483   137A      2.278277   138A      2.280953
     139A      2.285967   140A      2.340632   141A      2.358873
     142A      2.415328   143A      2.423031   144A      2.443417
     145A      2.475438   146A      2.485639   147A      2.499950
     148A      2.538166   149A      2.573190   150A      2.581933
     151A      2.612474   152A      2.619458   153A      2.656590
     154A      2.718055   155A      2.727437   156A      2.756165
     157A      2.793324   158A      2.801459   159A      2.848532
     160A      2.873060   161A      2.886946   162A      2.917177
     163A      2.944834   164A      2.984394   165A      3.001841
     166A      3.040437   167A      3.077355   168A      3.123788
     169A      3.156058   170A      3.181201   171A      3.239852
     172A      3.302625   173A      3.377900   174A      3.459055
     175A      3.638004   176A      3.668376   177A      3.780949
     178A      3.806733   179A      3.904788   180A      3.934637
     181A      4.060501

    Final Occupation by Irrep:
              A
    DOCC [    36 ]

  @RHF Final Energy:  -471.01221032128046

   => Energetics <=

    Nuclear Repulsion Energy =            464.3193626373813458
    One-Electron Energy =               -1565.2970691869888924
    Two-Electron Energy =                 629.9654962283270834
    Total Energy =                       -471.0122103212804632

Computation Completed

Properties will be evaluated at   0.000000,   0.000000,   0.000000 [a0]

Properties computed using the SCF density matrix

  Nuclear Dipole Moment: [e a0]
     X:    -0.7547      Y:     0.0999      Z:    -4.5657

  Electronic Dipole Moment: [e a0]
     X:    -1.6891      Y:     2.7257      Z:     2.0654

  Dipole Moment: [e a0]
     X:    -2.4438      Y:     2.8256      Z:    -2.5002     Total:     4.4952

  Dipole Moment: [D]
     X:    -6.2115      Y:     7.1820      Z:    -6.3550     Total:    11.4258

*** tstop() called on ds3 at Sun Apr 26 18:05:34 2020
Module time:
	user time   =      46.46 seconds =       0.77 minutes
	system time =      21.34 seconds =       0.36 minutes
	total time  =         66 seconds =       1.10 minutes
Total time:
	user time   =      46.46 seconds =       0.77 minutes
	system time =      21.34 seconds =       0.36 minutes
	total time  =         66 seconds =       1.10 minutes
                                     G D M A

                                 by Anthony Stone

                           version 2.2.06, 22 June 2011

               Distributed Multipoles from Gaussian wavefunctions

Starting at 18:5:34 on 26 Apr 2020

Using SCF density matrix from file ./SSI/SSI-157ASP-204ARG-1-dimer.test.23084.fchk

                         Distributed Multipole Analysis

Standard DMA

Positions and radii in angstrom
Multipole moments in atomic units, ea_0^k for rank k

C          x =  2.314216  y = -2.309753  z =  1.837434 angstrom
           Maximum rank =  0   Radius =  0.650 angstrom
                   Q00  =  -0.249454

C          x =  1.287216  y = -1.325753  z =  1.301434 angstrom
           Maximum rank =  0   Radius =  0.650 angstrom
                   Q00  =   0.862443

O          x =  0.600216  y = -1.658753  z =  0.314434 angstrom
           Maximum rank =  0   Radius =  0.650 angstrom
                   Q00  =  -0.921981

O          x =  1.194216  y = -0.208753  z =  1.877434 angstrom
           Maximum rank =  0   Radius =  0.650 angstrom
                   Q00  =  -0.926716

H          x =  2.307216  y = -2.294753  z =  2.928434 angstrom
           Maximum rank =  0   Radius =  0.325 angstrom
                   Q00  =   0.092632

H          x =  3.293216  y = -1.945753  z =  1.524434 angstrom
           Maximum rank =  0   Radius =  0.325 angstrom
                   Q00  =   0.100615

H          x =  2.213826  y = -3.347643  z =  1.487134 angstrom
           Maximum rank =  0   Radius =  0.325 angstrom
                   Q00  =   0.080697

C          x = -0.934784  y = -0.011753  z = -2.702566 angstrom
           Maximum rank =  0   Radius =  0.650 angstrom
                   Q00  =  -0.109050

C          x = -1.108784  y =  1.367247  z = -0.653566 angstrom
           Maximum rank =  0   Radius =  0.650 angstrom
                   Q00  =   1.069260

N          x = -0.696784  y =  0.284247  z = -1.273566 angstrom
           Maximum rank =  0   Radius =  0.650 angstrom
                   Q00  =  -0.526092

N          x = -1.898784  y =  2.228247  z = -1.279566 angstrom
           Maximum rank =  0   Radius =  0.650 angstrom
                   Q00  =  -0.588780

N          x = -0.729784  y =  1.565247  z =  0.587434 angstrom
           Maximum rank =  0   Radius =  0.650 angstrom
                   Q00  =  -0.604222

H          x = -0.169784  y = -0.399753  z = -0.719566 angstrom
           Maximum rank =  0   Radius =  0.325 angstrom
                   Q00  =   0.338992

H          x = -0.797784  y =  0.884247  z = -3.312566 angstrom
           Maximum rank =  0   Radius =  0.325 angstrom
                   Q00  =   0.081436

H          x = -1.943784  y = -0.400753  z = -2.848566 angstrom
           Maximum rank =  0   Radius =  0.325 angstrom
                   Q00  =   0.096305

H          x = -2.216784  y =  2.036247  z = -2.214566 angstrom
           Maximum rank =  0   Radius =  0.325 angstrom
                   Q00  =   0.244525

H          x = -2.217784  y =  3.062247  z = -0.807566 angstrom
           Maximum rank =  0   Radius =  0.325 angstrom
                   Q00  =   0.236756

H          x = -0.073784  y =  0.907247  z =  1.025434 angstrom
           Maximum rank =  0   Radius =  0.325 angstrom
                   Q00  =   0.342757

H          x = -1.012784  y =  2.392247  z =  1.087434 angstrom
           Maximum rank =  0   Radius =  0.325 angstrom
                   Q00  =   0.221914

H          x = -0.206294  y = -0.764793  z = -3.037576 angstrom
           Maximum rank =  0   Radius =  0.325 angstrom
                   Q00  =   0.157963

Total multipoles referred to origin at
           x =   0.000000,  y =    0.000000,  z =    0.000000 angstrom
                   Q00  =  -0.000000

Finished at 18:5:34 on 26 Apr 2020

  DMA results are available in the Python driver through the
	  variable('DMA DISTRIBUTED MULTIPOLES')
  and
	  variable('DMA TOTAL MULTIPOLES')
  commands.

    Psi4 stopped on: Sunday, 26 April 2020 06:05PM
    Psi4 wall time for execution: 0:01:05.81

*** Psi4 exiting successfully. Buy a developer a beer!
