                               Psi4 1.3.2 release

  ==> Input File <==

--------------------------------------------------------------------------
import numpy as np
set {scf_type pk
basis cc-pvdz
d_convergence 10
gdma_switch   0
gdma_limit    0
gdma_origin   [ 0.0,  0.0,  0.0 ]
}
molecule test {
    units Angstrom
    -1 1
    --
    -1 1
    C               -2.110407301058645     2.440547471497032    -2.805091755916234
    C               -1.445407301058645     0.529547471497031     0.192908244083766
    C               -0.506407301058645     0.682547471497031    -1.791091755916234
    C               -1.570407301058645     1.534547471497032    -1.753091755916234
    N               -0.457407301058645     0.063547471497031    -0.573091755916234
    N               -2.145407301058645     1.416547471497031    -0.502091755916234
    H                0.229592698941355    -0.639452528502969    -0.304091755916234
    H               -1.700407301058645     0.278547471497031     1.216908244083766
    H                0.207592698941355     0.462547471497031    -2.572091755916234
    H               -1.285407301058645     2.712547471497031    -3.456091755916234
    H               -2.471407301058645     3.337547471497031    -2.293091755916234
    H               -2.909996301058645     1.989477471497031    -3.411061755916234
    C                2.136592698941355    -0.213452528502969     2.210908244083766
    C                1.884592698941355    -1.611452528502969     1.647908244083766
    O                1.414592698941355    -1.789452528502969     0.503908244083766
    O                2.156592698941355    -2.566452528502968     2.396908244083767
    H                2.925592698941355    -0.264452528502969     2.964908244083766
    H                1.222592698941355     0.157547471497031     2.676908244083766
    H                2.456146698941355     0.497957471497031     1.435158244083766

}
e, wfn = energy('scf', return_wfn=True)
gdma(wfn)
dmavals = variable('DMA DISTRIBUTED MULTIPOLES')
charges = np.array(dmavals)
print(charges)
np.save('SSI-051HIE-277ASP-1-dimer.npy', np.array(charges))--------------------------------------------------------------------------

*** tstart() called on ds3
*** at Mon Apr 27 16:28:33 2020

   => Loading Basis Set <=

    Name: CC-PVDZ
    Role: ORBITAL
    Keyword: BASIS
    atoms 1-4, 13-14  entry C          line   138 file /theoryfs2/ds/metcalf/miniconda2/envs/tf2gpu/share/psi4/basis/cc-pvdz.gbs
    atoms 5-6         entry N          line   168 file /theoryfs2/ds/metcalf/miniconda2/envs/tf2gpu/share/psi4/basis/cc-pvdz.gbs
    atoms 7-12, 17-19 entry H          line    22 file /theoryfs2/ds/metcalf/miniconda2/envs/tf2gpu/share/psi4/basis/cc-pvdz.gbs
    atoms 15-16       entry O          line   198 file /theoryfs2/ds/metcalf/miniconda2/envs/tf2gpu/share/psi4/basis/cc-pvdz.gbs

         ---------------------------------------------------------
                                   SCF
               by Justin Turney, Rob Parrish, Andy Simmonett
                          and Daniel G. A. Smith
                              RHF Reference
                        1 Threads,    500 MiB Core
         ---------------------------------------------------------

  ==> Geometry <==

    Molecular point group: c1
    Full point group: C1

    Geometry (in Angstrom), charge = -1, multiplicity = 1:

       Center              X                  Y                   Z               Mass
    ------------   -----------------  -----------------  -----------------  -----------------
         C           -2.110407301059     2.440547471497    -2.805091755916    12.000000000000
         C           -1.445407301059     0.529547471497     0.192908244084    12.000000000000
         C           -0.506407301059     0.682547471497    -1.791091755916    12.000000000000
         C           -1.570407301059     1.534547471497    -1.753091755916    12.000000000000
         N           -0.457407301059     0.063547471497    -0.573091755916    14.003074004430
         N           -2.145407301059     1.416547471497    -0.502091755916    14.003074004430
         H            0.229592698941    -0.639452528503    -0.304091755916     1.007825032230
         H           -1.700407301059     0.278547471497     1.216908244084     1.007825032230
         H            0.207592698941     0.462547471497    -2.572091755916     1.007825032230
         H           -1.285407301059     2.712547471497    -3.456091755916     1.007825032230
         H           -2.471407301059     3.337547471497    -2.293091755916     1.007825032230
         H           -2.909996301059     1.989477471497    -3.411061755916     1.007825032230
         C            2.136592698941    -0.213452528503     2.210908244084    12.000000000000
         C            1.884592698941    -1.611452528503     1.647908244084    12.000000000000
         O            1.414592698941    -1.789452528503     0.503908244084    15.994914619570
         O            2.156592698941    -2.566452528503     2.396908244084    15.994914619570
         H            2.925592698941    -0.264452528503     2.964908244084     1.007825032230
         H            1.222592698941     0.157547471497     2.676908244084     1.007825032230
         H            2.456146698941     0.497957471497     1.435158244084     1.007825032230

  Running in c1 symmetry.

  Rotational constants: A =      0.13701  B =      0.01518  C =      0.01476 [cm^-1]
  Rotational constants: A =   4107.56435  B =    455.02363  C =    442.57757 [MHz]
  Nuclear repulsion =  484.071136343419482

  Charge       = -1
  Multiplicity = 1
  Electrons    = 76
  Nalpha       = 38
  Nbeta        = 38

  ==> Algorithm <==

  SCF Algorithm Type is PK.
  DIIS enabled.
  MOM disabled.
  Fractional occupation disabled.
  Guess Type is SAD.
  Energy threshold   = 1.00e-06
  Density threshold  = 1.00e-10
  Integral threshold = 0.00e+00

  ==> Primary Basis <==

  Basis Set: CC-PVDZ
    Blend: CC-PVDZ
    Number of shells: 87
    Number of basis function: 185
    Number of Cartesian functions: 195
    Spherical Harmonics?: true
    Max angular momentum: 2

  ==> Pre-Iterations <==

   -------------------------------------------------------
    Irrep   Nso     Nmo     Nalpha   Nbeta   Ndocc  Nsocc
   -------------------------------------------------------
     A        185     185       0       0       0       0
   -------------------------------------------------------
    Total     185     185      38      38      38       0
   -------------------------------------------------------

  ==> Integral Setup <==

  Using integral reordering PK algorithm.
  Sizing the integral batches needed.
  Building batch lookup table.
   Calculation information:
      Number of atoms:                  19
      Number of AO shells:              87
      Number of primitives:            265
      Number of atomic orbitals:       195
      Number of basis functions:       185

      Integral cutoff                 1.00e-12
      Number of threads:                 1

	Batch   1 pq = [       0,    9405] index = [             0,44231715] size =     44231715
	Batch   2 pq = [    9405,   13301] index = [      44231715,88464951] size =     44233236
	Batch   3 pq = [   13301,   16290] index = [      88464951,132690195] size =     44225244
	Batch   4 pq = [   16290,   17205] index = [     132690195,148014615] size =     15324420
  Task number: 14
  Buffer size: 11059200
  Buffer per thread: 2
  We computed 5479955 shell quartets total.
  Whereas there are 7328706 unique shell quartets.

  ==> DiskJK: Disk-Based J/K Matrices <==

    J tasked:                  Yes
    K tasked:                  Yes
    wK tasked:                  No
    Memory [MiB]:              375
    Schwarz Cutoff:          1E-12

    OpenMP threads:              1

  Minimum eigenvalue in the overlap matrix is 1.1898930428E-03.
  Using Symmetric Orthogonalization.

  SCF Guess: Superposition of Atomic Densities via on-the-fly atomic UHF.

  ==> Iterations <==

                        Total Energy        Delta E     RMS |[F,P]|

   @RHF iter SAD:  -489.78792420037371   -4.89788e+02   0.00000e+00
   @RHF iter   1:  -490.85089694936801   -1.06297e+00   4.13544e-03 DIIS
   @RHF iter   2:  -491.07443909214680   -2.23542e-01   2.34853e-03 DIIS
   @RHF iter   3:  -491.14497692581659   -7.05378e-02   4.00179e-04 DIIS
   @RHF iter   4:  -491.14836906561260   -3.39214e-03   1.57842e-04 DIIS
   @RHF iter   5:  -491.14889818333694   -5.29118e-04   3.41579e-05 DIIS
   @RHF iter   6:  -491.14892530899061   -2.71257e-05   1.45143e-05 DIIS
   @RHF iter   7:  -491.14893066150057   -5.35251e-06   3.69398e-06 DIIS
   @RHF iter   8:  -491.14893147541261   -8.13912e-07   1.88287e-06 DIIS
   @RHF iter   9:  -491.14893167940807   -2.03995e-07   7.56687e-07 DIIS
   @RHF iter  10:  -491.14893171793199   -3.85239e-08   1.95345e-07 DIIS
   @RHF iter  11:  -491.14893172032924   -2.39726e-09   5.82111e-08 DIIS
   @RHF iter  12:  -491.14893172046379   -1.34548e-10   2.96445e-08 DIIS
   @RHF iter  13:  -491.14893172049972   -3.59250e-11   1.17450e-08 DIIS
   @RHF iter  14:  -491.14893172050438   -4.66116e-12   3.92195e-09 DIIS
   @RHF iter  15:  -491.14893172050910   -4.71800e-12   1.73139e-09 DIIS
   @RHF iter  16:  -491.14893172050881    2.84217e-13   5.90159e-10 DIIS
   @RHF iter  17:  -491.14893172050898   -1.70530e-13   2.50019e-10 DIIS
   @RHF iter  18:  -491.14893172050847    5.11591e-13   6.71951e-11 DIIS
  Energy and wave function converged.

  ==> Post-Iterations <==

    Orbital Energies [Eh]
    ---------------------

    Doubly Occupied:

       1A    -20.297124     2A    -20.281478     3A    -15.472856
       4A    -15.409718     5A    -11.166294     6A    -11.144382
       7A    -11.130809     8A    -11.130231     9A    -11.125395
      10A    -11.071563    11A     -1.211072    12A     -1.183786
      13A     -1.067713    14A     -1.026208    15A     -0.920993
      16A     -0.829241    17A     -0.817137    18A     -0.685263
      19A     -0.645213    20A     -0.612240    21A     -0.528298
      22A     -0.495217    23A     -0.488800    24A     -0.475690
      25A     -0.446511    26A     -0.442006    27A     -0.435225
      28A     -0.427383    29A     -0.423657    30A     -0.414764
      31A     -0.367589    32A     -0.335086    33A     -0.298348
      34A     -0.253939    35A     -0.216471    36A     -0.198032
      37A     -0.192436    38A     -0.190211

    Virtual:

      39A      0.290532    40A      0.305921    41A      0.312796
      42A      0.325993    43A      0.335654    44A      0.355655
      45A      0.367082    46A      0.389235    47A      0.396752
      48A      0.403074    49A      0.456292    50A      0.461208
      51A      0.480987    52A      0.524140    53A      0.555983
      54A      0.570854    55A      0.592201    56A      0.609979
      57A      0.677005    58A      0.711498    59A      0.725135
      60A      0.731426    61A      0.750229    62A      0.780996
      63A      0.790758    64A      0.822106    65A      0.834417
      66A      0.843111    67A      0.863621    68A      0.885152
      69A      0.904671    70A      0.918890    71A      0.930192
      72A      0.948752    73A      0.952056    74A      0.966694
      75A      0.974495    76A      1.000086    77A      1.010800
      78A      1.014608    79A      1.030352    80A      1.037169
      81A      1.054155    82A      1.065824    83A      1.076667
      84A      1.091305    85A      1.108741    86A      1.174902
      87A      1.192130    88A      1.208425    89A      1.214645
      90A      1.223533    91A      1.261213    92A      1.280195
      93A      1.287863    94A      1.321792    95A      1.326016
      96A      1.355477    97A      1.399074    98A      1.420476
      99A      1.425351   100A      1.445924   101A      1.470809
     102A      1.512741   103A      1.542253   104A      1.552834
     105A      1.563322   106A      1.570889   107A      1.597179
     108A      1.623850   109A      1.640650   110A      1.647933
     111A      1.681200   112A      1.712973   113A      1.726919
     114A      1.740047   115A      1.778176   116A      1.814119
     117A      1.816624   118A      1.825764   119A      1.895715
     120A      1.913218   121A      1.925441   122A      1.941790
     123A      1.985746   124A      1.992331   125A      2.032021
     126A      2.036460   127A      2.050979   128A      2.058664
     129A      2.068604   130A      2.071576   131A      2.097380
     132A      2.122389   133A      2.130410   134A      2.157956
     135A      2.176258   136A      2.190659   137A      2.202962
     138A      2.241891   139A      2.305275   140A      2.314248
     141A      2.335453   142A      2.347951   143A      2.356010
     144A      2.389300   145A      2.412852   146A      2.444995
     147A      2.463799   148A      2.490169   149A      2.514272
     150A      2.574262   151A      2.591960   152A      2.633960
     153A      2.653321   154A      2.678209   155A      2.712830
     156A      2.736346   157A      2.778053   158A      2.806079
     159A      2.840249   160A      2.857829   161A      2.897093
     162A      2.903146   163A      2.921682   164A      2.934323
     165A      2.954268   166A      2.955434   167A      2.974148
     168A      3.002321   169A      3.038206   170A      3.088333
     171A      3.219301   172A      3.233125   173A      3.258237
     174A      3.283017   175A      3.314716   176A      3.351445
     177A      3.358579   178A      3.599566   179A      3.620566
     180A      3.738063   181A      3.800286   182A      3.954497
     183A      4.046642   184A      4.086748   185A      4.177205

    Final Occupation by Irrep:
              A
    DOCC [    38 ]

  @RHF Final Energy:  -491.14893172050847

   => Energetics <=

    Nuclear Repulsion Energy =            484.0711363434194823
    One-Electron Energy =               -1642.7233756580292265
    Two-Electron Energy =                 667.5033075941012157
    Total Energy =                       -491.1489317205084717

Computation Completed

Properties will be evaluated at   0.000000,   0.000000,   0.000000 [a0]

Properties computed using the SCF density matrix

  Nuclear Dipole Moment: [e a0]
     X:    -1.2181      Y:     7.9735      Z:    -3.4915

  Electronic Dipole Moment: [e a0]
     X:    -0.2864      Y:    -5.2141      Z:     1.5159

  Dipole Moment: [e a0]
     X:    -1.5045      Y:     2.7595      Z:    -1.9756     Total:     3.7123

  Dipole Moment: [D]
     X:    -3.8240      Y:     7.0138      Z:    -5.0214     Total:     9.4356

*** tstop() called on ds3 at Mon Apr 27 16:29:46 2020
Module time:
	user time   =      49.52 seconds =       0.83 minutes
	system time =      27.24 seconds =       0.45 minutes
	total time  =         73 seconds =       1.22 minutes
Total time:
	user time   =      49.52 seconds =       0.83 minutes
	system time =      27.24 seconds =       0.45 minutes
	total time  =         73 seconds =       1.22 minutes
                                     G D M A

                                 by Anthony Stone

                           version 2.2.06, 22 June 2011

               Distributed Multipoles from Gaussian wavefunctions

Starting at 16:29:46 on 27 Apr 2020

Using SCF density matrix from file ./SSI/SSI-051HIE-277ASP-1-dimer.test.26939.fchk

                         Distributed Multipole Analysis

Standard DMA

Positions and radii in angstrom
Multipole moments in atomic units, ea_0^k for rank k

C          x = -2.110407  y =  2.440547  z = -2.805092 angstrom
           Maximum rank =  0   Radius =  0.650 angstrom
                   Q00  =  -0.185896

C          x = -1.445407  y =  0.529547  z =  0.192908 angstrom
           Maximum rank =  0   Radius =  0.650 angstrom
                   Q00  =   0.465456

C          x = -0.506407  y =  0.682547  z = -1.791092 angstrom
           Maximum rank =  0   Radius =  0.650 angstrom
                   Q00  =   0.029016

C          x = -1.570407  y =  1.534547  z = -1.753092 angstrom
           Maximum rank =  0   Radius =  0.650 angstrom
                   Q00  =   0.181407

N          x = -0.457407  y =  0.063547  z = -0.573092 angstrom
           Maximum rank =  0   Radius =  0.650 angstrom
                   Q00  =  -0.488271

N          x = -2.145407  y =  1.416547  z = -0.502092 angstrom
           Maximum rank =  0   Radius =  0.650 angstrom
                   Q00  =  -0.793362

H          x =  0.229593  y = -0.639453  z = -0.304092 angstrom
           Maximum rank =  0   Radius =  0.325 angstrom
                   Q00  =   0.323375

H          x = -1.700407  y =  0.278547  z =  1.216908 angstrom
           Maximum rank =  0   Radius =  0.325 angstrom
                   Q00  =   0.114970

H          x =  0.207593  y =  0.462547  z = -2.572092 angstrom
           Maximum rank =  0   Radius =  0.325 angstrom
                   Q00  =   0.077654

H          x = -1.285407  y =  2.712547  z = -3.456092 angstrom
           Maximum rank =  0   Radius =  0.325 angstrom
                   Q00  =   0.080968

H          x = -2.471407  y =  3.337547  z = -2.293092 angstrom
           Maximum rank =  0   Radius =  0.325 angstrom
                   Q00  =   0.095191

H          x = -2.909996  y =  1.989477  z = -3.411062 angstrom
           Maximum rank =  0   Radius =  0.325 angstrom
                   Q00  =   0.083260

C          x =  2.136593  y = -0.213453  z =  2.210908 angstrom
           Maximum rank =  0   Radius =  0.650 angstrom
                   Q00  =  -0.290857

C          x =  1.884593  y = -1.611453  z =  1.647908 angstrom
           Maximum rank =  0   Radius =  0.650 angstrom
                   Q00  =   0.946298

O          x =  1.414593  y = -1.789453  z =  0.503908 angstrom
           Maximum rank =  0   Radius =  0.650 angstrom
                   Q00  =  -0.955429

O          x =  2.156593  y = -2.566453  z =  2.396908 angstrom
           Maximum rank =  0   Radius =  0.650 angstrom
                   Q00  =  -0.900076

H          x =  2.925593  y = -0.264453  z =  2.964908 angstrom
           Maximum rank =  0   Radius =  0.325 angstrom
                   Q00  =   0.072409

H          x =  1.222593  y =  0.157547  z =  2.676908 angstrom
           Maximum rank =  0   Radius =  0.325 angstrom
                   Q00  =   0.086627

H          x =  2.456147  y =  0.497957  z =  1.435158 angstrom
           Maximum rank =  0   Radius =  0.325 angstrom
                   Q00  =   0.057260

Total multipoles referred to origin at
           x =   0.000000,  y =    0.000000,  z =    0.000000 angstrom
                   Q00  =  -1.000000

Finished at 16:29:46 on 27 Apr 2020

  DMA results are available in the Python driver through the
	  variable('DMA DISTRIBUTED MULTIPOLES')
  and
	  variable('DMA TOTAL MULTIPOLES')
  commands.

    Psi4 stopped on: Monday, 27 April 2020 04:29PM
    Psi4 wall time for execution: 0:01:13.22

*** Psi4 exiting successfully. Buy a developer a beer!
