                               Psi4 1.3.2 release

  ==> Input File <==

--------------------------------------------------------------------------
import numpy as np
set {scf_type pk
basis cc-pvdz
d_convergence 10
gdma_switch   0
gdma_limit    0
gdma_origin   [ 0.0,  0.0,  0.0 ]
}
molecule test {
    units Angstrom
    1 1
    --
    1 1
    C                0.088453308678278    -3.796547820726573     1.269760765580302
    C               -0.320546691321722     0.402452179273427     2.346760765580302
    C               -1.481546691321722    -0.346547820726573     2.013760765580302
    C                0.927453308678278    -0.194547820726573     2.246760765580302
    C               -1.349546691321722    -1.715547820726573     1.655760765580302
    C                1.046453308678278    -1.557547820726573     1.874760765580302
    C               -0.079546691321722    -2.330547820726573     1.595760765580302
    O               -0.358546691321722     1.728452179273427     2.727760765580301
    H               -2.457546691321722     0.113452179273427     2.054760765580302
    H               -1.257546691321722     2.066452179273427     2.773760765580302
    H                1.808453308678278     0.384452179273427     2.482760765580302
    H               -2.238546691321722    -2.287547820726573     1.436760765580302
    H                2.033453308678278    -2.000547820726573     1.826760765580302
    H               -0.342546691321722    -4.363547820726573     2.096760765580302
    H                1.150453308678278    -4.025547820726573     1.255760765580302
    H               -0.373814691321722    -4.145048820726573     0.334420765580302
    C                0.059453308678278     2.003452179273427    -1.105239234419698
    C                1.504453308678278     2.017452179273427    -0.639239234419698
    C               -0.058546691321722     0.738452179273427    -3.187239234419698
    N               -0.228546691321722     0.804452179273427    -1.871239234419698
    N                0.458453308678278     1.746452179273427    -3.861239234419698
    N               -0.317546691321722    -0.381547820726573    -3.804239234419699
    H               -0.594546691321722     1.997452179273427    -0.231239234419698
    H               -0.181546691321722     2.900452179273427    -1.678239234419698
    H                2.191453308678278     2.149452179273427    -1.472239234419698
    H                1.729453308678278     1.071452179273427    -0.146239234419698
    H               -0.617546691321722     0.005452179273427    -1.386239234419698
    H                0.662453308678278     2.625452179273427    -3.404239234419698
    H                0.628453308678278     1.666452179273427    -4.858239234419699
    H               -0.719546691321722    -1.156547820726573    -3.289239234419698
    H               -0.114546691321722    -0.496547820726573    -4.785239234419699
    H                1.594618008678278     2.829652179273427     0.097110765580302

}
e, wfn = energy('scf', return_wfn=True)
gdma(wfn)
dmavals = variable('DMA DISTRIBUTED MULTIPOLES')
charges = np.array(dmavals)
print(charges)
np.save('SSI-112TYR-190ARG-1-dimer.npy', np.array(charges))--------------------------------------------------------------------------

*** tstart() called on ds3
*** at Mon Apr 27 22:02:12 2020

   => Loading Basis Set <=

    Name: CC-PVDZ
    Role: ORBITAL
    Keyword: BASIS
    atoms 1-7, 17-19  entry C          line   138 file /theoryfs2/ds/metcalf/miniconda2/envs/tf2gpu/share/psi4/basis/cc-pvdz.gbs
    atoms 8           entry O          line   198 file /theoryfs2/ds/metcalf/miniconda2/envs/tf2gpu/share/psi4/basis/cc-pvdz.gbs
    atoms 9-16, 23-32 entry H          line    22 file /theoryfs2/ds/metcalf/miniconda2/envs/tf2gpu/share/psi4/basis/cc-pvdz.gbs
    atoms 20-22       entry N          line   168 file /theoryfs2/ds/metcalf/miniconda2/envs/tf2gpu/share/psi4/basis/cc-pvdz.gbs

         ---------------------------------------------------------
                                   SCF
               by Justin Turney, Rob Parrish, Andy Simmonett
                          and Daniel G. A. Smith
                              RHF Reference
                        1 Threads,    500 MiB Core
         ---------------------------------------------------------

  ==> Geometry <==

    Molecular point group: c1
    Full point group: C1

    Geometry (in Angstrom), charge = 1, multiplicity = 1:

       Center              X                  Y                   Z               Mass
    ------------   -----------------  -----------------  -----------------  -----------------
         C            0.088453308678    -3.796547820727     1.269760765580    12.000000000000
         C           -0.320546691322     0.402452179273     2.346760765580    12.000000000000
         C           -1.481546691322    -0.346547820727     2.013760765580    12.000000000000
         C            0.927453308678    -0.194547820727     2.246760765580    12.000000000000
         C           -1.349546691322    -1.715547820727     1.655760765580    12.000000000000
         C            1.046453308678    -1.557547820727     1.874760765580    12.000000000000
         C           -0.079546691322    -2.330547820727     1.595760765580    12.000000000000
         O           -0.358546691322     1.728452179273     2.727760765580    15.994914619570
         H           -2.457546691322     0.113452179273     2.054760765580     1.007825032230
         H           -1.257546691322     2.066452179273     2.773760765580     1.007825032230
         H            1.808453308678     0.384452179273     2.482760765580     1.007825032230
         H           -2.238546691322    -2.287547820727     1.436760765580     1.007825032230
         H            2.033453308678    -2.000547820727     1.826760765580     1.007825032230
         H           -0.342546691322    -4.363547820727     2.096760765580     1.007825032230
         H            1.150453308678    -4.025547820727     1.255760765580     1.007825032230
         H           -0.373814691322    -4.145048820727     0.334420765580     1.007825032230
         C            0.059453308678     2.003452179273    -1.105239234420    12.000000000000
         C            1.504453308678     2.017452179273    -0.639239234420    12.000000000000
         C           -0.058546691322     0.738452179273    -3.187239234420    12.000000000000
         N           -0.228546691322     0.804452179273    -1.871239234420    14.003074004430
         N            0.458453308678     1.746452179273    -3.861239234420    14.003074004430
         N           -0.317546691322    -0.381547820727    -3.804239234420    14.003074004430
         H           -0.594546691322     1.997452179273    -0.231239234420     1.007825032230
         H           -0.181546691322     2.900452179273    -1.678239234420     1.007825032230
         H            2.191453308678     2.149452179273    -1.472239234420     1.007825032230
         H            1.729453308678     1.071452179273    -0.146239234420     1.007825032230
         H           -0.617546691322     0.005452179273    -1.386239234420     1.007825032230
         H            0.662453308678     2.625452179273    -3.404239234420     1.007825032230
         H            0.628453308678     1.666452179273    -4.858239234420     1.007825032230
         H           -0.719546691322    -1.156547820727    -3.289239234420     1.007825032230
         H           -0.114546691322    -0.496547820727    -4.785239234420     1.007825032230
         H            1.594618008678     2.829652179273     0.097110765580     1.007825032230

  Running in c1 symmetry.

  Rotational constants: A =      0.02742  B =      0.01200  C =      0.00963 [cm^-1]
  Rotational constants: A =    822.12325  B =    359.72457  C =    288.65110 [MHz]
  Nuclear repulsion =  886.018734639892159

  Charge       = 1
  Multiplicity = 1
  Electrons    = 106
  Nalpha       = 53
  Nbeta        = 53

  ==> Algorithm <==

  SCF Algorithm Type is PK.
  DIIS enabled.
  MOM disabled.
  Fractional occupation disabled.
  Guess Type is SAD.
  Energy threshold   = 1.00e-06
  Density threshold  = 1.00e-10
  Integral threshold = 0.00e+00

  ==> Primary Basis <==

  Basis Set: CC-PVDZ
    Blend: CC-PVDZ
    Number of shells: 138
    Number of basis function: 286
    Number of Cartesian functions: 300
    Spherical Harmonics?: true
    Max angular momentum: 2

  ==> Pre-Iterations <==

   -------------------------------------------------------
    Irrep   Nso     Nmo     Nalpha   Nbeta   Ndocc  Nsocc
   -------------------------------------------------------
     A        286     286       0       0       0       0
   -------------------------------------------------------
    Total     286     286      53      53      53       0
   -------------------------------------------------------

  ==> Integral Setup <==

  Using integral reordering PK algorithm.
  Sizing the integral batches needed.
  Building batch lookup table.
   Calculation information:
      Number of atoms:                  32
      Number of AO shells:             138
      Number of primitives:            398
      Number of atomic orbitals:       300
      Number of basis functions:       286

      Integral cutoff                 1.00e-12
      Number of threads:                 1

	Batch   1 pq = [       0,    9405] index = [             0,44231715] size =     44231715
	Batch   2 pq = [    9405,   13301] index = [      44231715,88464951] size =     44233236
	Batch   3 pq = [   13301,   16290] index = [      88464951,132690195] size =     44225244
	Batch   4 pq = [   16290,   18810] index = [     132690195,176917455] size =     44227260
	Batch   5 pq = [   18810,   21030] index = [     176917455,221140965] size =     44223510
	Batch   6 pq = [   21030,   23037] index = [     221140965,265363203] size =     44222238
	Batch   7 pq = [   23037,   24883] index = [     265363203,309594286] size =     44231083
	Batch   8 pq = [   24883,   26601] index = [     309594286,353819901] size =     44225615
	Batch   9 pq = [   26601,   28214] index = [     353819901,398029005] size =     44209104
	Batch  10 pq = [   28214,   29740] index = [     398029005,442248670] size =     44219665
	Batch  11 pq = [   29740,   31191] index = [     442248670,486454836] size =     44206166
	Batch  12 pq = [   31191,   32578] index = [     486454836,530679331] size =     44224495
	Batch  13 pq = [   32578,   33908] index = [     530679331,574893186] size =     44213855
	Batch  14 pq = [   33908,   35188] index = [     574893186,619115266] size =     44222080
	Batch  15 pq = [   35188,   36423] index = [     619115266,663335676] size =     44220410
	Batch  16 pq = [   36423,   37617] index = [     663335676,707538153] size =     44202477
	Batch  17 pq = [   37617,   38775] index = [     707538153,751769700] size =     44231547
	Batch  18 pq = [   38775,   39899] index = [     751769700,795985050] size =     44215350
	Batch  19 pq = [   39899,   41041] index = [     795985050,842202361] size =     46217311
  Task number: 77
  Buffer size: 11059200
  Buffer per thread: 2
  We computed 44530083 shell quartets total.
  Whereas there are 45998436 unique shell quartets.

  ==> DiskJK: Disk-Based J/K Matrices <==

    J tasked:                  Yes
    K tasked:                  Yes
    wK tasked:                  No
    Memory [MiB]:              375
    Schwarz Cutoff:          1E-12

    OpenMP threads:              1

  Minimum eigenvalue in the overlap matrix is 3.5209702456E-04.
  Using Symmetric Orthogonalization.

  SCF Guess: Superposition of Atomic Densities via on-the-fly atomic UHF.

  ==> Iterations <==

                        Total Energy        Delta E     RMS |[F,P]|

   @RHF iter SAD:  -626.32904416293718   -6.26329e+02   0.00000e+00
   @RHF iter   1:  -626.92385404937420   -5.94810e-01   2.54065e-03 DIIS
   @RHF iter   2:  -627.20362796472784   -2.79774e-01   1.02949e-03 DIIS
   @RHF iter   3:  -627.24495385102875   -4.13259e-02   2.60025e-04 DIIS
   @RHF iter   4:  -627.24894680242892   -3.99295e-03   9.38423e-05 DIIS
   @RHF iter   5:  -627.24936784524891   -4.21043e-04   1.99225e-05 DIIS
   @RHF iter   6:  -627.24939755160744   -2.97064e-05   6.93876e-06 DIIS
   @RHF iter   7:  -627.24940074311803   -3.19151e-06   1.95472e-06 DIIS
   @RHF iter   8:  -627.24940113133664   -3.88219e-07   7.38746e-07 DIIS
   @RHF iter   9:  -627.24940117285007   -4.15134e-08   2.33372e-07 DIIS
   @RHF iter  10:  -627.24940117893516   -6.08509e-09   9.25663e-08 DIIS
   @RHF iter  11:  -627.24940118039297   -1.45781e-09   3.88402e-08 DIIS
   @RHF iter  12:  -627.24940118078462   -3.91651e-10   2.09492e-08 DIIS
   @RHF iter  13:  -627.24940118087886   -9.42464e-11   7.94307e-09 DIIS
   @RHF iter  14:  -627.24940118088557   -6.70752e-12   2.64110e-09 DIIS
   @RHF iter  15:  -627.24940118089341   -7.84439e-12   8.79712e-10 DIIS
   @RHF iter  16:  -627.24940118089069    2.72848e-12   3.71560e-10 DIIS
   @RHF iter  17:  -627.24940118089546   -4.77485e-12   1.57787e-10 DIIS
   @RHF iter  18:  -627.24940118089626   -7.95808e-13   7.12028e-11 DIIS
  Energy and wave function converged.

  ==> Post-Iterations <==

    Orbital Energies [Eh]
    ---------------------

    Doubly Occupied:

       1A    -20.682322     2A    -15.781107     3A    -15.780105
       4A    -15.768349     5A    -11.578158     6A    -11.420707
       7A    -11.401674     8A    -11.350713     9A    -11.343972
      10A    -11.342117    11A    -11.337202    12A    -11.335154
      13A    -11.328787    14A    -11.316759    15A     -1.539544
      16A     -1.490623    17A     -1.395064    18A     -1.385076
      19A     -1.240400    20A     -1.173911    21A     -1.131364
      22A     -1.107709    23A     -1.051858    24A     -1.018827
      25A     -0.998869    26A     -0.970380    27A     -0.939922
      28A     -0.927900    29A     -0.893619    30A     -0.852716
      31A     -0.847132    32A     -0.824734    33A     -0.812850
      34A     -0.786914    35A     -0.756513    36A     -0.748618
      37A     -0.737434    38A     -0.704289    39A     -0.691856
      40A     -0.679199    41A     -0.677901    42A     -0.661747
      43A     -0.658782    44A     -0.657555    45A     -0.639223
      46A     -0.618440    47A     -0.609686    48A     -0.591721
      49A     -0.582129    50A     -0.563523    51A     -0.559989
      52A     -0.431929    53A     -0.401537

    Virtual:

      54A     -0.002666    55A      0.024047    56A      0.029218
      57A      0.038401    58A      0.046134    59A      0.054438
      60A      0.065924    61A      0.080106    62A      0.099449
      63A      0.108403    64A      0.111938    65A      0.127326
      66A      0.132950    67A      0.142296    68A      0.167425
      69A      0.168446    70A      0.173555    71A      0.180285
      72A      0.185405    73A      0.193318    74A      0.213747
      75A      0.232357    76A      0.240836    77A      0.268357
      78A      0.276719    79A      0.301080    80A      0.320972
      81A      0.344349    82A      0.350531    83A      0.356994
      84A      0.387722    85A      0.395633    86A      0.409199
      87A      0.439742    88A      0.466679    89A      0.476672
      90A      0.499685    91A      0.524822    92A      0.529501
      93A      0.537755    94A      0.538149    95A      0.546399
      96A      0.550262    97A      0.564180    98A      0.569662
      99A      0.576544   100A      0.588430   101A      0.607230
     102A      0.614217   103A      0.629557   104A      0.644113
     105A      0.644485   106A      0.661655   107A      0.676391
     108A      0.677115   109A      0.688960   110A      0.696429
     111A      0.700840   112A      0.716046   113A      0.731223
     114A      0.735573   115A      0.743681   116A      0.758807
     117A      0.768601   118A      0.775649   119A      0.785105
     120A      0.789637   121A      0.791997   122A      0.793986
     123A      0.801354   124A      0.810118   125A      0.824240
     126A      0.828797   127A      0.840524   128A      0.845185
     129A      0.856827   130A      0.858662   131A      0.865487
     132A      0.867715   133A      0.885037   134A      0.899519
     135A      0.909114   136A      0.924956   137A      0.938488
     138A      0.952157   139A      0.977350   140A      0.991628
     141A      1.007245   142A      1.022503   143A      1.044123
     144A      1.054088   145A      1.061420   146A      1.071392
     147A      1.105517   148A      1.124698   149A      1.126040
     150A      1.148085   151A      1.156795   152A      1.159062
     153A      1.162162   154A      1.177887   155A      1.188741
     156A      1.198275   157A      1.205330   158A      1.207766
     159A      1.227839   160A      1.233076   161A      1.257573
     162A      1.266063   163A      1.286680   164A      1.287617
     165A      1.337721   166A      1.375904   167A      1.387590
     168A      1.397767   169A      1.411135   170A      1.415880
     171A      1.463887   172A      1.466100   173A      1.501608
     174A      1.515370   175A      1.524681   176A      1.532473
     177A      1.553098   178A      1.591440   179A      1.594944
     180A      1.609093   181A      1.629929   182A      1.643923
     183A      1.649580   184A      1.664058   185A      1.682859
     186A      1.687430   187A      1.703084   188A      1.714552
     189A      1.720148   190A      1.725133   191A      1.730018
     192A      1.745843   193A      1.764575   194A      1.767390
     195A      1.775938   196A      1.788079   197A      1.803353
     198A      1.807630   199A      1.808767   200A      1.822344
     201A      1.824305   202A      1.836224   203A      1.844888
     204A      1.848815   205A      1.858081   206A      1.864231
     207A      1.875000   208A      1.882138   209A      1.888393
     210A      1.910929   211A      1.918003   212A      1.925996
     213A      1.937571   214A      1.949115   215A      1.965481
     216A      1.973934   217A      1.983782   218A      2.003064
     219A      2.021160   220A      2.032564   221A      2.035921
     222A      2.075326   223A      2.079583   224A      2.099312
     225A      2.107653   226A      2.129897   227A      2.150057
     228A      2.155388   229A      2.167023   230A      2.190991
     231A      2.204883   232A      2.244245   233A      2.253831
     234A      2.263946   235A      2.273983   236A      2.281370
     237A      2.285451   238A      2.305255   239A      2.338383
     240A      2.341442   241A      2.357402   242A      2.363801
     243A      2.377035   244A      2.386461   245A      2.403076
     246A      2.419467   247A      2.428851   248A      2.453575
     249A      2.473916   250A      2.502325   251A      2.512049
     252A      2.518512   253A      2.576258   254A      2.618474
     255A      2.628914   256A      2.650590   257A      2.671566
     258A      2.674151   259A      2.697331   260A      2.702515
     261A      2.719743   262A      2.760025   263A      2.765039
     264A      2.775488   265A      2.794243   266A      2.809236
     267A      2.840980   268A      2.844098   269A      2.861245
     270A      2.901248   271A      2.909312   272A      2.953413
     273A      2.965108   274A      3.023111   275A      3.074457
     276A      3.101125   277A      3.131186   278A      3.142667
     279A      3.156786   280A      3.243705   281A      3.447269
     282A      3.560948   283A      3.609672   284A      3.674477
     285A      3.815117   286A      4.092948

    Final Occupation by Irrep:
              A
    DOCC [    53 ]

  @RHF Final Energy:  -627.24940118089626

   => Energetics <=

    Nuclear Repulsion Energy =            886.0187346398921591
    One-Electron Energy =               -2596.2790471654193425
    Two-Electron Energy =                1083.0109113446310403
    Total Energy =                       -627.2494011808962568

Computation Completed

Properties will be evaluated at   0.000000,   0.000000,   0.000000 [a0]

Properties computed using the SCF density matrix

  Nuclear Dipole Moment: [e a0]
     X:     2.7182      Y:    -0.6216      Z:    -6.4205

  Electronic Dipole Moment: [e a0]
     X:    -3.1936      Y:     1.6702      Z:     1.1807

  Dipole Moment: [e a0]
     X:    -0.4755      Y:     1.0486      Z:    -5.2398     Total:     5.3648

  Dipole Moment: [D]
     X:    -1.2085      Y:     2.6652      Z:   -13.3182     Total:    13.6359

*** tstop() called on ds3 at Mon Apr 27 22:14:20 2020
Module time:
	user time   =     355.35 seconds =       5.92 minutes
	system time =     138.96 seconds =       2.32 minutes
	total time  =        728 seconds =      12.13 minutes
Total time:
	user time   =     355.35 seconds =       5.92 minutes
	system time =     138.96 seconds =       2.32 minutes
	total time  =        728 seconds =      12.13 minutes
                                     G D M A

                                 by Anthony Stone

                           version 2.2.06, 22 June 2011

               Distributed Multipoles from Gaussian wavefunctions

Starting at 22:14:20 on 27 Apr 2020

Using SCF density matrix from file ./SSI/SSI-112TYR-190ARG-1-dimer.test.30422.fchk

                         Distributed Multipole Analysis

Standard DMA

Positions and radii in angstrom
Multipole moments in atomic units, ea_0^k for rank k

C          x =  0.088453  y = -3.796548  z =  1.269761 angstrom
           Maximum rank =  0   Radius =  0.650 angstrom
                   Q00  =  -0.200580

C          x = -0.320547  y =  0.402452  z =  2.346761 angstrom
           Maximum rank =  0   Radius =  0.650 angstrom
                   Q00  =   0.288318

C          x = -1.481547  y = -0.346548  z =  2.013761 angstrom
           Maximum rank =  0   Radius =  0.650 angstrom
                   Q00  =  -0.203742

C          x =  0.927453  y = -0.194548  z =  2.246761 angstrom
           Maximum rank =  0   Radius =  0.650 angstrom
                   Q00  =  -0.112177

C          x = -1.349547  y = -1.715548  z =  1.655761 angstrom
           Maximum rank =  0   Radius =  0.650 angstrom
                   Q00  =  -0.048576

C          x =  1.046453  y = -1.557548  z =  1.874761 angstrom
           Maximum rank =  0   Radius =  0.650 angstrom
                   Q00  =   0.016983

C          x = -0.079547  y = -2.330548  z =  1.595761 angstrom
           Maximum rank =  0   Radius =  0.650 angstrom
                   Q00  =  -0.134182

O          x = -0.358547  y =  1.728452  z =  2.727761 angstrom
           Maximum rank =  0   Radius =  0.650 angstrom
                   Q00  =  -0.674602

H          x = -2.457547  y =  0.113452  z =  2.054761 angstrom
           Maximum rank =  0   Radius =  0.325 angstrom
                   Q00  =   0.088929

H          x = -1.257547  y =  2.066452  z =  2.773761 angstrom
           Maximum rank =  0   Radius =  0.325 angstrom
                   Q00  =   0.413017

H          x =  1.808453  y =  0.384452  z =  2.482761 angstrom
           Maximum rank =  0   Radius =  0.325 angstrom
                   Q00  =   0.093169

H          x = -2.238547  y = -2.287548  z =  1.436761 angstrom
           Maximum rank =  0   Radius =  0.325 angstrom
                   Q00  =   0.082349

H          x =  2.033453  y = -2.000548  z =  1.826761 angstrom
           Maximum rank =  0   Radius =  0.325 angstrom
                   Q00  =   0.080484

H          x = -0.342547  y = -4.363548  z =  2.096761 angstrom
           Maximum rank =  0   Radius =  0.325 angstrom
                   Q00  =   0.117959

H          x =  1.150453  y = -4.025548  z =  1.255761 angstrom
           Maximum rank =  0   Radius =  0.325 angstrom
                   Q00  =   0.105481

H          x = -0.373815  y = -4.145049  z =  0.334421 angstrom
           Maximum rank =  0   Radius =  0.325 angstrom
                   Q00  =   0.092572

C          x =  0.059453  y =  2.003452  z = -1.105239 angstrom
           Maximum rank =  0   Radius =  0.650 angstrom
                   Q00  =   0.004226

C          x =  1.504453  y =  2.017452  z = -0.639239 angstrom
           Maximum rank =  0   Radius =  0.650 angstrom
                   Q00  =  -0.221961

C          x = -0.058547  y =  0.738452  z = -3.187239 angstrom
           Maximum rank =  0   Radius =  0.650 angstrom
                   Q00  =   1.080454

N          x = -0.228547  y =  0.804452  z = -1.871239 angstrom
           Maximum rank =  0   Radius =  0.650 angstrom
                   Q00  =  -0.507272

N          x =  0.458453  y =  1.746452  z = -3.861239 angstrom
           Maximum rank =  0   Radius =  0.650 angstrom
                   Q00  =  -0.587978

N          x = -0.317547  y = -0.381548  z = -3.804239 angstrom
           Maximum rank =  0   Radius =  0.650 angstrom
                   Q00  =  -0.591035

H          x = -0.594547  y =  1.997452  z = -0.231239 angstrom
           Maximum rank =  0   Radius =  0.325 angstrom
                   Q00  =   0.127015

H          x = -0.181547  y =  2.900452  z = -1.678239 angstrom
           Maximum rank =  0   Radius =  0.325 angstrom
                   Q00  =   0.062699

H          x =  2.191453  y =  2.149452  z = -1.472239 angstrom
           Maximum rank =  0   Radius =  0.325 angstrom
                   Q00  =   0.082197

H          x =  1.729453  y =  1.071452  z = -0.146239 angstrom
           Maximum rank =  0   Radius =  0.325 angstrom
                   Q00  =   0.114031

H          x = -0.617547  y =  0.005452  z = -1.386239 angstrom
           Maximum rank =  0   Radius =  0.325 angstrom
                   Q00  =   0.244097

H          x =  0.662453  y =  2.625452  z = -3.404239 angstrom
           Maximum rank =  0   Radius =  0.325 angstrom
                   Q00  =   0.273408

H          x =  0.628453  y =  1.666452  z = -4.858239 angstrom
           Maximum rank =  0   Radius =  0.325 angstrom
                   Q00  =   0.265494

H          x = -0.719547  y = -1.156548  z = -3.289239 angstrom
           Maximum rank =  0   Radius =  0.325 angstrom
                   Q00  =   0.265268

H          x = -0.114547  y = -0.496548  z = -4.785239 angstrom
           Maximum rank =  0   Radius =  0.325 angstrom
                   Q00  =   0.263375

H          x =  1.594618  y =  2.829652  z =  0.097111 angstrom
           Maximum rank =  0   Radius =  0.325 angstrom
                   Q00  =   0.120580

Total multipoles referred to origin at
           x =   0.000000,  y =    0.000000,  z =    0.000000 angstrom
                   Q00  =   1.000000

Finished at 22:14:20 on 27 Apr 2020

  DMA results are available in the Python driver through the
	  variable('DMA DISTRIBUTED MULTIPOLES')
  and
	  variable('DMA TOTAL MULTIPOLES')
  commands.

    Psi4 stopped on: Monday, 27 April 2020 10:14PM
    Psi4 wall time for execution: 0:12:08.12

*** Psi4 exiting successfully. Buy a developer a beer!
