                               Psi4 1.3.2 release

  ==> Input File <==

--------------------------------------------------------------------------
import numpy as np
set {scf_type pk
basis cc-pvdz
d_convergence 10
gdma_switch   0
gdma_limit    0
gdma_origin   [ 0.0,  0.0,  0.0 ]
}
molecule test {
    units Angstrom
    0 1
    --
    0 1
    C               -2.679910965522523     0.330190525266159     0.761299139954264
    C               -2.070910965522523     0.534190525266159     2.168299139954264
    C               -2.860910965522523    -1.156809474733841     0.516299139954264
    O               -1.938910965522523    -1.933809474733841     0.435299139954264
    N               -4.098910965522523    -1.630809474733841     0.553299139954264
    H               -3.629910965522523     0.847190525266159     0.677299139954264
    H               -2.003910965522523     0.738190525266159     0.009299139954264
    H               -1.919910965522523     1.600190525266159     2.333299139954264
    H               -1.089910965522523     0.058190525266159     2.195299139954264
    H               -4.238910965522523    -2.621809474733841     0.440299139954264
    H               -4.881910965522523    -0.994809474733841     0.666299139954264
    H               -2.693530965522523     0.121748525266159     2.975909139954264
    C                4.148089034477477     1.396190525266159     0.499299139954264
    C                0.836089034477477    -0.240809474733841    -0.270700860045736
    C                0.658089034477477     0.062190525266159    -1.610700860045736
    C                1.967089034477477     0.181190525266159     0.382299139954264
    C                2.956089034477477     0.908190525266159    -0.246700860045736
    C                1.638089034477477     0.759190525266159    -2.280700860045736
    C                2.787089034477477     1.201190525266159    -1.605700860045736
    H                0.105089034477477    -0.811809474733841     0.267299139954264
    H               -0.235910965522523    -0.257809474733841    -2.128700860045736
    H                2.079089034477477    -0.060809474733841     1.430299139954264
    H                1.523089034477477     0.972190525266159    -3.332700860045736
    H                3.964089034477477     1.332190525266159     1.573299139954264
    H                4.258089034477476     2.452190525266158     0.257299139954264
    H                3.540089034477477     1.767190525266159    -2.132700860045736
    H                5.088819034477477     0.879256525266159     0.258879139954264

}
e, wfn = energy('scf', return_wfn=True)
gdma(wfn)
dmavals = variable('DMA DISTRIBUTED MULTIPOLES')
charges = np.array(dmavals)
print(charges)
np.save('SSI-089GLN-117PHE-1-dimer.npy', np.array(charges))--------------------------------------------------------------------------

*** tstart() called on ds3
*** at Mon Apr 27 18:43:31 2020

   => Loading Basis Set <=

    Name: CC-PVDZ
    Role: ORBITAL
    Keyword: BASIS
    atoms 1-3, 13-19  entry C          line   138 file /theoryfs2/ds/metcalf/miniconda2/envs/tf2gpu/share/psi4/basis/cc-pvdz.gbs
    atoms 4           entry O          line   198 file /theoryfs2/ds/metcalf/miniconda2/envs/tf2gpu/share/psi4/basis/cc-pvdz.gbs
    atoms 5           entry N          line   168 file /theoryfs2/ds/metcalf/miniconda2/envs/tf2gpu/share/psi4/basis/cc-pvdz.gbs
    atoms 6-12, 20-27 entry H          line    22 file /theoryfs2/ds/metcalf/miniconda2/envs/tf2gpu/share/psi4/basis/cc-pvdz.gbs

         ---------------------------------------------------------
                                   SCF
               by Justin Turney, Rob Parrish, Andy Simmonett
                          and Daniel G. A. Smith
                              RHF Reference
                        1 Threads,    500 MiB Core
         ---------------------------------------------------------

  ==> Geometry <==

    Molecular point group: c1
    Full point group: C1

    Geometry (in Angstrom), charge = 0, multiplicity = 1:

       Center              X                  Y                   Z               Mass
    ------------   -----------------  -----------------  -----------------  -----------------
         C           -2.679910965523     0.330190525266     0.761299139954    12.000000000000
         C           -2.070910965523     0.534190525266     2.168299139954    12.000000000000
         C           -2.860910965523    -1.156809474734     0.516299139954    12.000000000000
         O           -1.938910965523    -1.933809474734     0.435299139954    15.994914619570
         N           -4.098910965523    -1.630809474734     0.553299139954    14.003074004430
         H           -3.629910965523     0.847190525266     0.677299139954     1.007825032230
         H           -2.003910965523     0.738190525266     0.009299139954     1.007825032230
         H           -1.919910965523     1.600190525266     2.333299139954     1.007825032230
         H           -1.089910965523     0.058190525266     2.195299139954     1.007825032230
         H           -4.238910965523    -2.621809474734     0.440299139954     1.007825032230
         H           -4.881910965523    -0.994809474734     0.666299139954     1.007825032230
         H           -2.693530965523     0.121748525266     2.975909139954     1.007825032230
         C            4.148089034477     1.396190525266     0.499299139954    12.000000000000
         C            0.836089034477    -0.240809474734    -0.270700860046    12.000000000000
         C            0.658089034477     0.062190525266    -1.610700860046    12.000000000000
         C            1.967089034477     0.181190525266     0.382299139954    12.000000000000
         C            2.956089034477     0.908190525266    -0.246700860046    12.000000000000
         C            1.638089034477     0.759190525266    -2.280700860046    12.000000000000
         C            2.787089034477     1.201190525266    -1.605700860046    12.000000000000
         H            0.105089034477    -0.811809474734     0.267299139954     1.007825032230
         H           -0.235910965523    -0.257809474734    -2.128700860046     1.007825032230
         H            2.079089034477    -0.060809474734     1.430299139954     1.007825032230
         H            1.523089034477     0.972190525266    -3.332700860046     1.007825032230
         H            3.964089034477     1.332190525266     1.573299139954     1.007825032230
         H            4.258089034477     2.452190525266     0.257299139954     1.007825032230
         H            3.540089034477     1.767190525266    -2.132700860046     1.007825032230
         H            5.088819034477     0.879256525266     0.258879139954     1.007825032230

  Running in c1 symmetry.

  Rotational constants: A =      0.06218  B =      0.01175  C =      0.01083 [cm^-1]
  Rotational constants: A =   1864.19056  B =    352.25140  C =    324.62960 [MHz]
  Nuclear repulsion =  648.656922355825600

  Charge       = 0
  Multiplicity = 1
  Electrons    = 90
  Nalpha       = 45
  Nbeta        = 45

  ==> Algorithm <==

  SCF Algorithm Type is PK.
  DIIS enabled.
  MOM disabled.
  Fractional occupation disabled.
  Guess Type is SAD.
  Energy threshold   = 1.00e-06
  Density threshold  = 1.00e-10
  Integral threshold = 0.00e+00

  ==> Primary Basis <==

  Basis Set: CC-PVDZ
    Blend: CC-PVDZ
    Number of shells: 117
    Number of basis function: 243
    Number of Cartesian functions: 255
    Spherical Harmonics?: true
    Max angular momentum: 2

  ==> Pre-Iterations <==

   -------------------------------------------------------
    Irrep   Nso     Nmo     Nalpha   Nbeta   Ndocc  Nsocc
   -------------------------------------------------------
     A        243     243       0       0       0       0
   -------------------------------------------------------
    Total     243     243      45      45      45       0
   -------------------------------------------------------

  ==> Integral Setup <==

  Using integral reordering PK algorithm.
  Sizing the integral batches needed.
  Building batch lookup table.
   Calculation information:
      Number of atoms:                  27
      Number of AO shells:             117
      Number of primitives:            339
      Number of atomic orbitals:       255
      Number of basis functions:       243

      Integral cutoff                 1.00e-12
      Number of threads:                 1

	Batch   1 pq = [       0,    9405] index = [             0,44231715] size =     44231715
	Batch   2 pq = [    9405,   13301] index = [      44231715,88464951] size =     44233236
	Batch   3 pq = [   13301,   16290] index = [      88464951,132690195] size =     44225244
	Batch   4 pq = [   16290,   18810] index = [     132690195,176917455] size =     44227260
	Batch   5 pq = [   18810,   21030] index = [     176917455,221140965] size =     44223510
	Batch   6 pq = [   21030,   23037] index = [     221140965,265363203] size =     44222238
	Batch   7 pq = [   23037,   24883] index = [     265363203,309594286] size =     44231083
	Batch   8 pq = [   24883,   26601] index = [     309594286,353819901] size =     44225615
	Batch   9 pq = [   26601,   28214] index = [     353819901,398029005] size =     44209104
	Batch  10 pq = [   28214,   29646] index = [     398029005,439457481] size =     41428476
  Task number: 40
  Buffer size: 11059200
  Buffer per thread: 2
  We computed 20789106 shell quartets total.
  Whereas there are 23829156 unique shell quartets.

  ==> DiskJK: Disk-Based J/K Matrices <==

    J tasked:                  Yes
    K tasked:                  Yes
    wK tasked:                  No
    Memory [MiB]:              375
    Schwarz Cutoff:          1E-12

    OpenMP threads:              1

  Minimum eigenvalue in the overlap matrix is 2.8774175137E-04.
  Using Symmetric Orthogonalization.

  SCF Guess: Superposition of Atomic Densities via on-the-fly atomic UHF.

  ==> Iterations <==

                        Total Energy        Delta E     RMS |[F,P]|

   @RHF iter SAD:  -515.61677406794286   -5.15617e+02   0.00000e+00
   @RHF iter   1:  -516.47256212959826   -8.55788e-01   2.98171e-03 DIIS
   @RHF iter   2:  -516.72867828737378   -2.56116e-01   1.52550e-03 DIIS
   @RHF iter   3:  -516.78532926815399   -5.66510e-02   3.52629e-04 DIIS
   @RHF iter   4:  -516.78969917985660   -4.36991e-03   1.45169e-04 DIIS
   @RHF iter   5:  -516.79038740210683   -6.88222e-04   2.14785e-05 DIIS
   @RHF iter   6:  -516.79042111249146   -3.37104e-05   9.31960e-06 DIIS
   @RHF iter   7:  -516.79042670450337   -5.59201e-06   3.57604e-06 DIIS
   @RHF iter   8:  -516.79042781178464   -1.10728e-06   1.36275e-06 DIIS
   @RHF iter   9:  -516.79042796886540   -1.57081e-07   4.35939e-07 DIIS
   @RHF iter  10:  -516.79042798020623   -1.13408e-08   1.56731e-07 DIIS
   @RHF iter  11:  -516.79042798196122   -1.75498e-09   5.29814e-08 DIIS
   @RHF iter  12:  -516.79042798217301   -2.11799e-10   2.10224e-08 DIIS
   @RHF iter  13:  -516.79042798222281   -4.97948e-11   9.89057e-09 DIIS
   @RHF iter  14:  -516.79042798223350   -1.06866e-11   4.03622e-09 DIIS
   @RHF iter  15:  -516.79042798223782   -4.32010e-12   1.35296e-09 DIIS
   @RHF iter  16:  -516.79042798224555   -7.73070e-12   4.39271e-10 DIIS
   @RHF iter  17:  -516.79042798224327    2.27374e-12   1.43278e-10 DIIS
   @RHF iter  18:  -516.79042798224418   -9.09495e-13   6.13650e-11 DIIS
  Energy and wave function converged.

  ==> Post-Iterations <==

    Orbital Energies [Eh]
    ---------------------

    Doubly Occupied:

       1A    -20.507782     2A    -15.586903     3A    -11.344843
       4A    -11.244410     5A    -11.234083     6A    -11.228009
       7A    -11.224183     8A    -11.221123     9A    -11.220859
      10A    -11.215900    11A    -11.212511    12A    -11.210926
      13A     -1.386679    14A     -1.214921    15A     -1.145186
      16A     -1.050919    17A     -1.038729    18A     -0.999968
      19A     -0.923914    20A     -0.891650    21A     -0.814043
      22A     -0.788887    23A     -0.784905    24A     -0.725959
      25A     -0.681457    26A     -0.671446    27A     -0.622846
      28A     -0.621110    29A     -0.616743    30A     -0.595604
      31A     -0.577179    32A     -0.571393    33A     -0.566110
      34A     -0.554621    35A     -0.527678    36A     -0.526425
      37A     -0.505908    38A     -0.504846    39A     -0.477318
      40A     -0.474049    41A     -0.469404    42A     -0.411269
      43A     -0.406669    44A     -0.321247    45A     -0.311291

    Virtual:

      46A      0.144899    47A      0.153294    48A      0.166214
      49A      0.189586    50A      0.196297    51A      0.213359
      52A      0.217303    53A      0.220260    54A      0.232739
      55A      0.243019    56A      0.258301    57A      0.268460
      58A      0.270371    59A      0.279964    60A      0.285991
      61A      0.299278    62A      0.327021    63A      0.359494
      64A      0.380509    65A      0.381032    66A      0.394135
      67A      0.415598    68A      0.462168    69A      0.470193
      70A      0.481667    71A      0.505050    72A      0.522142
      73A      0.564266    74A      0.575819    75A      0.604625
      76A      0.614771    77A      0.627333    78A      0.641497
      79A      0.655144    80A      0.674612    81A      0.690167
      82A      0.706491    83A      0.709264    84A      0.721303
      85A      0.729602    86A      0.743053    87A      0.752164
      88A      0.758922    89A      0.769693    90A      0.773167
      91A      0.779411    92A      0.787036    93A      0.796968
      94A      0.814145    95A      0.834264    96A      0.842042
      97A      0.850056    98A      0.867001    99A      0.873021
     100A      0.883495   101A      0.888940   102A      0.889329
     103A      0.893976   104A      0.907756   105A      0.914026
     106A      0.921466   107A      0.927212   108A      0.943833
     109A      0.945411   110A      0.954475   111A      0.970499
     112A      0.985713   113A      0.989565   114A      1.004935
     115A      1.025320   116A      1.031198   117A      1.057813
     118A      1.069883   119A      1.080117   120A      1.113675
     121A      1.137442   122A      1.152691   123A      1.156105
     124A      1.175676   125A      1.206542   126A      1.214489
     127A      1.243020   128A      1.264553   129A      1.270821
     130A      1.278391   131A      1.305833   132A      1.314421
     133A      1.319172   134A      1.332070   135A      1.343408
     136A      1.344664   137A      1.381935   138A      1.389633
     139A      1.427797   140A      1.442457   141A      1.458257
     142A      1.481572   143A      1.516797   144A      1.523786
     145A      1.538592   146A      1.560603   147A      1.580256
     148A      1.613140   149A      1.640261   150A      1.681851
     151A      1.692336   152A      1.701606   153A      1.746988
     154A      1.757520   155A      1.761802   156A      1.774140
     157A      1.781766   158A      1.808095   159A      1.829571
     160A      1.846400   161A      1.864373   162A      1.872759
     163A      1.883244   164A      1.888953   165A      1.898561
     166A      1.909650   167A      1.917816   168A      1.926663
     169A      1.927118   170A      1.937760   171A      1.946781
     172A      1.952616   173A      1.955964   174A      1.965005
     175A      1.970804   176A      1.984642   177A      1.996397
     178A      2.008097   179A      2.010634   180A      2.027439
     181A      2.038212   182A      2.062978   183A      2.071591
     184A      2.082034   185A      2.090456   186A      2.096784
     187A      2.127936   188A      2.135196   189A      2.151837
     190A      2.182537   191A      2.191233   192A      2.196230
     193A      2.212089   194A      2.246752   195A      2.262309
     196A      2.287707   197A      2.297646   198A      2.313190
     199A      2.318291   200A      2.326132   201A      2.348558
     202A      2.367375   203A      2.422910   204A      2.459063
     205A      2.474682   206A      2.488451   207A      2.495787
     208A      2.511760   209A      2.535571   210A      2.546658
     211A      2.553862   212A      2.572839   213A      2.584252
     214A      2.635474   215A      2.648411   216A      2.758139
     217A      2.764094   218A      2.768341   219A      2.779114
     220A      2.786218   221A      2.817965   222A      2.831226
     223A      2.850767   224A      2.865164   225A      2.880409
     226A      2.895770   227A      2.914333   228A      2.971056
     229A      2.999778   230A      3.011936   231A      3.039148
     232A      3.052449   233A      3.104820   234A      3.141296
     235A      3.195654   236A      3.231889   237A      3.310178
     238A      3.335890   239A      3.476638   240A      3.563004
     241A      3.920552   242A      3.941990   243A      4.008804

    Final Occupation by Irrep:
              A
    DOCC [    45 ]

  @RHF Final Energy:  -516.79042798224418

   => Energetics <=

    Nuclear Repulsion Energy =            648.6569223558255999
    One-Electron Energy =               -1988.4308924732729338
    Two-Electron Energy =                 822.9835421352031517
    Total Energy =                       -516.7904279822441822

Computation Completed

Properties will be evaluated at   0.000000,   0.000000,   0.000000 [a0]

Properties computed using the SCF density matrix

  Nuclear Dipole Moment: [e a0]
     X:    -0.1245      Y:     5.6404      Z:     5.1478

  Electronic Dipole Moment: [e a0]
     X:    -1.3431      Y:    -4.9279      Z:    -4.8442

  Dipole Moment: [e a0]
     X:    -1.4676      Y:     0.7125      Z:     0.3036     Total:     1.6594

  Dipole Moment: [D]
     X:    -3.7302      Y:     1.8110      Z:     0.7717     Total:     4.2178

*** tstop() called on ds3 at Mon Apr 27 18:51:48 2020
Module time:
	user time   =     158.91 seconds =       2.65 minutes
	system time =      64.68 seconds =       1.08 minutes
	total time  =        497 seconds =       8.28 minutes
Total time:
	user time   =     158.91 seconds =       2.65 minutes
	system time =      64.68 seconds =       1.08 minutes
	total time  =        497 seconds =       8.28 minutes
                                     G D M A

                                 by Anthony Stone

                           version 2.2.06, 22 June 2011

               Distributed Multipoles from Gaussian wavefunctions

Starting at 18:51:48 on 27 Apr 2020

Using SCF density matrix from file ./SSI/SSI-089GLN-117PHE-1-dimer.test.28537.fchk

                         Distributed Multipole Analysis

Standard DMA

Positions and radii in angstrom
Multipole moments in atomic units, ea_0^k for rank k

C          x = -2.679911  y =  0.330191  z =  0.761299 angstrom
           Maximum rank =  0   Radius =  0.650 angstrom
                   Q00  =  -0.134063

C          x = -2.070911  y =  0.534191  z =  2.168299 angstrom
           Maximum rank =  0   Radius =  0.650 angstrom
                   Q00  =  -0.231191

C          x = -2.860911  y = -1.156809  z =  0.516299 angstrom
           Maximum rank =  0   Radius =  0.650 angstrom
                   Q00  =   0.834933

O          x = -1.938911  y = -1.933809  z =  0.435299 angstrom
           Maximum rank =  0   Radius =  0.650 angstrom
                   Q00  =  -0.787984

N          x = -4.098911  y = -1.630809  z =  0.553299 angstrom
           Maximum rank =  0   Radius =  0.650 angstrom
                   Q00  =  -0.544113

H          x = -3.629911  y =  0.847191  z =  0.677299 angstrom
           Maximum rank =  0   Radius =  0.325 angstrom
                   Q00  =   0.054308

H          x = -2.003911  y =  0.738191  z =  0.009299 angstrom
           Maximum rank =  0   Radius =  0.325 angstrom
                   Q00  =   0.117655

H          x = -1.919911  y =  1.600191  z =  2.333299 angstrom
           Maximum rank =  0   Radius =  0.325 angstrom
                   Q00  =   0.091560

H          x = -1.089911  y =  0.058191  z =  2.195299 angstrom
           Maximum rank =  0   Radius =  0.325 angstrom
                   Q00  =   0.109451

H          x = -4.238911  y = -2.621809  z =  0.440299 angstrom
           Maximum rank =  0   Radius =  0.325 angstrom
                   Q00  =   0.221652

H          x = -4.881911  y = -0.994809  z =  0.666299 angstrom
           Maximum rank =  0   Radius =  0.325 angstrom
                   Q00  =   0.202002

H          x = -2.693531  y =  0.121749  z =  2.975909 angstrom
           Maximum rank =  0   Radius =  0.325 angstrom
                   Q00  =   0.082715

C          x =  4.148089  y =  1.396191  z =  0.499299 angstrom
           Maximum rank =  0   Radius =  0.650 angstrom
                   Q00  =  -0.201715

C          x =  0.836089  y = -0.240809  z = -0.270701 angstrom
           Maximum rank =  0   Radius =  0.650 angstrom
                   Q00  =  -0.058203

C          x =  0.658089  y =  0.062191  z = -1.610701 angstrom
           Maximum rank =  0   Radius =  0.650 angstrom
                   Q00  =  -0.100715

C          x =  1.967089  y =  0.181191  z =  0.382299 angstrom
           Maximum rank =  0   Radius =  0.650 angstrom
                   Q00  =   0.029892

C          x =  2.956089  y =  0.908191  z = -0.246701 angstrom
           Maximum rank =  0   Radius =  0.650 angstrom
                   Q00  =  -0.101578

C          x =  1.638089  y =  0.759191  z = -2.280701 angstrom
           Maximum rank =  0   Radius =  0.650 angstrom
                   Q00  =  -0.070649

C          x =  2.787089  y =  1.201191  z = -1.605701 angstrom
           Maximum rank =  0   Radius =  0.650 angstrom
                   Q00  =  -0.096339

H          x =  0.105089  y = -0.811809  z =  0.267299 angstrom
           Maximum rank =  0   Radius =  0.325 angstrom
                   Q00  =   0.079311

H          x = -0.235911  y = -0.257809  z = -2.128701 angstrom
           Maximum rank =  0   Radius =  0.325 angstrom
                   Q00  =   0.054436

H          x =  2.079089  y = -0.060809  z =  1.430299 angstrom
           Maximum rank =  0   Radius =  0.325 angstrom
                   Q00  =   0.042612

H          x =  1.523089  y =  0.972191  z = -3.332701 angstrom
           Maximum rank =  0   Radius =  0.325 angstrom
                   Q00  =   0.057655

H          x =  3.964089  y =  1.332191  z =  1.573299 angstrom
           Maximum rank =  0   Radius =  0.325 angstrom
                   Q00  =   0.096133

H          x =  4.258089  y =  2.452191  z =  0.257299 angstrom
           Maximum rank =  0   Radius =  0.325 angstrom
                   Q00  =   0.095233

H          x =  3.540089  y =  1.767191  z = -2.132701 angstrom
           Maximum rank =  0   Radius =  0.325 angstrom
                   Q00  =   0.052685

H          x =  5.088819  y =  0.879257  z =  0.258879 angstrom
           Maximum rank =  0   Radius =  0.325 angstrom
                   Q00  =   0.104317

Total multipoles referred to origin at
           x =   0.000000,  y =    0.000000,  z =    0.000000 angstrom
                   Q00  =  -0.000000

Finished at 18:51:48 on 27 Apr 2020

  DMA results are available in the Python driver through the
	  variable('DMA DISTRIBUTED MULTIPOLES')
  and
	  variable('DMA TOTAL MULTIPOLES')
  commands.

    Psi4 stopped on: Monday, 27 April 2020 06:51PM
    Psi4 wall time for execution: 0:08:17.28

*** Psi4 exiting successfully. Buy a developer a beer!
