                               Psi4 1.3.2 release

  ==> Input File <==

--------------------------------------------------------------------------
import numpy as np
set {scf_type pk
basis cc-pvdz
d_convergence 10
gdma_switch   0
gdma_limit    0
gdma_origin   [ 0.0,  0.0,  0.0 ]
}
molecule test {
    units Angstrom
    0 1
    --
    0 1
    C               -0.813411253791464     2.138400011778257     1.574695395286613
    C                0.335588746208536     0.079400011778257    -1.401304604713387
    C               -0.482411253791464     0.787400011778257    -0.504304604713387
    C                1.724588746208536     0.026400011778257    -1.163304604713387
    C                0.074588746208536     1.450400011778257     0.595695395286613
    C                2.269588746208536     0.681400011778257    -0.056304604713387
    C                1.448588746208536     1.369400011778257     0.831695395286613
    H               -0.094411253791464    -0.427599988221743    -2.255304604713388
    H               -1.547411253791464     0.812400011778257    -0.675304604713387
    H                2.368588746208536    -0.517599988221743    -1.841304604713387
    H                3.336588746208536     0.636400011778257     0.121695395286613
    H               -1.463411253791464     2.806400011778257     1.007695395286613
    H               -0.228411253791464     2.746400011778257     2.267695395286613
    H                1.881588746208536     1.850400011778257     1.697695395286613
    H               -1.432011253791464     1.423750011778257     2.137385395286612
    C               -1.554411253791464    -3.142599988221743    -0.670304604713387
    C               -2.277411253791464    -2.703599988221743     0.607695395286613
    H               -1.777411253791464    -4.187599988221743    -0.895304604713387
    H               -1.858411253791464    -2.528599988221743    -1.516304604713387
    H               -0.477411253791464    -3.013599988221743    -0.567304604713387
    H               -1.939411253791464    -1.699599988221743     0.863695395286613
    H               -2.042981253791464    -3.377059988221743     1.445255395286613
    H               -3.361491253791464    -2.699319988221743     0.421301395286613

}
e, wfn = energy('scf', return_wfn=True)
gdma(wfn)
dmavals = variable('DMA DISTRIBUTED MULTIPOLES')
charges = np.array(dmavals)
print(charges)
np.save('SSI-027PHE-030ILE-1-dimer.npy', np.array(charges))--------------------------------------------------------------------------

*** tstart() called on ds3
*** at Tue Apr 28 13:15:50 2020

   => Loading Basis Set <=

    Name: CC-PVDZ
    Role: ORBITAL
    Keyword: BASIS
    atoms 1-7, 16-17  entry C          line   138 file /theoryfs2/ds/metcalf/miniconda2/envs/tf2gpu/share/psi4/basis/cc-pvdz.gbs
    atoms 8-15, 18-23 entry H          line    22 file /theoryfs2/ds/metcalf/miniconda2/envs/tf2gpu/share/psi4/basis/cc-pvdz.gbs

         ---------------------------------------------------------
                                   SCF
               by Justin Turney, Rob Parrish, Andy Simmonett
                          and Daniel G. A. Smith
                              RHF Reference
                        1 Threads,    500 MiB Core
         ---------------------------------------------------------

  ==> Geometry <==

    Molecular point group: c1
    Full point group: C1

    Geometry (in Angstrom), charge = 0, multiplicity = 1:

       Center              X                  Y                   Z               Mass
    ------------   -----------------  -----------------  -----------------  -----------------
         C           -0.813411253791     2.138400011778     1.574695395287    12.000000000000
         C            0.335588746209     0.079400011778    -1.401304604713    12.000000000000
         C           -0.482411253791     0.787400011778    -0.504304604713    12.000000000000
         C            1.724588746209     0.026400011778    -1.163304604713    12.000000000000
         C            0.074588746209     1.450400011778     0.595695395287    12.000000000000
         C            2.269588746209     0.681400011778    -0.056304604713    12.000000000000
         C            1.448588746209     1.369400011778     0.831695395287    12.000000000000
         H           -0.094411253791    -0.427599988222    -2.255304604713     1.007825032230
         H           -1.547411253791     0.812400011778    -0.675304604713     1.007825032230
         H            2.368588746209    -0.517599988222    -1.841304604713     1.007825032230
         H            3.336588746209     0.636400011778     0.121695395287     1.007825032230
         H           -1.463411253791     2.806400011778     1.007695395287     1.007825032230
         H           -0.228411253791     2.746400011778     2.267695395287     1.007825032230
         H            1.881588746209     1.850400011778     1.697695395287     1.007825032230
         H           -1.432011253791     1.423750011778     2.137385395287     1.007825032230
         C           -1.554411253791    -3.142599988222    -0.670304604713    12.000000000000
         C           -2.277411253791    -2.703599988222     0.607695395287    12.000000000000
         H           -1.777411253791    -4.187599988222    -0.895304604713     1.007825032230
         H           -1.858411253791    -2.528599988222    -1.516304604713     1.007825032230
         H           -0.477411253791    -3.013599988222    -0.567304604713     1.007825032230
         H           -1.939411253791    -1.699599988222     0.863695395287     1.007825032230
         H           -2.042981253791    -3.377059988222     1.445255395287     1.007825032230
         H           -3.361491253791    -2.699319988222     0.421301395287     1.007825032230

  Running in c1 symmetry.

  Rotational constants: A =      0.06286  B =      0.02862  C =      0.02250 [cm^-1]
  Rotational constants: A =   1884.39969  B =    857.98960  C =    674.47082 [MHz]
  Nuclear repulsion =  408.838640213563224

  Charge       = 0
  Multiplicity = 1
  Electrons    = 68
  Nalpha       = 34
  Nbeta        = 34

  ==> Algorithm <==

  SCF Algorithm Type is PK.
  DIIS enabled.
  MOM disabled.
  Fractional occupation disabled.
  Guess Type is SAD.
  Energy threshold   = 1.00e-06
  Density threshold  = 1.00e-10
  Integral threshold = 0.00e+00

  ==> Primary Basis <==

  Basis Set: CC-PVDZ
    Blend: CC-PVDZ
    Number of shells: 96
    Number of basis function: 196
    Number of Cartesian functions: 205
    Spherical Harmonics?: true
    Max angular momentum: 2

  ==> Pre-Iterations <==

   -------------------------------------------------------
    Irrep   Nso     Nmo     Nalpha   Nbeta   Ndocc  Nsocc
   -------------------------------------------------------
     A        196     196       0       0       0       0
   -------------------------------------------------------
    Total     196     196      34      34      34       0
   -------------------------------------------------------

  ==> Integral Setup <==

  Using integral reordering PK algorithm.
  Sizing the integral batches needed.
  Building batch lookup table.
   Calculation information:
      Number of atoms:                  23
      Number of AO shells:              96
      Number of primitives:            268
      Number of atomic orbitals:       205
      Number of basis functions:       196

      Integral cutoff                 1.00e-12
      Number of threads:                 1

	Batch   1 pq = [       0,    9405] index = [             0,44231715] size =     44231715
	Batch   2 pq = [    9405,   13301] index = [      44231715,88464951] size =     44233236
	Batch   3 pq = [   13301,   16290] index = [      88464951,132690195] size =     44225244
	Batch   4 pq = [   16290,   18810] index = [     132690195,176917455] size =     44227260
	Batch   5 pq = [   18810,   19306] index = [     176917455,186370471] size =      9453016
  Task number: 17
  Buffer size: 11059200
  Buffer per thread: 2
  We computed 9843495 shell quartets total.
  Whereas there are 10841496 unique shell quartets.

  ==> DiskJK: Disk-Based J/K Matrices <==

    J tasked:                  Yes
    K tasked:                  Yes
    wK tasked:                  No
    Memory [MiB]:              375
    Schwarz Cutoff:          1E-12

    OpenMP threads:              1

  Minimum eigenvalue in the overlap matrix is 3.3313822068E-04.
  Using Symmetric Orthogonalization.

  SCF Guess: Superposition of Atomic Densities via on-the-fly atomic UHF.

  ==> Iterations <==

                        Total Energy        Delta E     RMS |[F,P]|

   @RHF iter SAD:  -347.79577349708120   -3.47796e+02   0.00000e+00
   @RHF iter   1:  -348.76832004700850   -9.72547e-01   2.88259e-03 DIIS
   @RHF iter   2:  -348.95960504521253   -1.91285e-01   1.20004e-03 DIIS
   @RHF iter   3:  -348.98977587067475   -3.01708e-02   2.60155e-04 DIIS
   @RHF iter   4:  -348.99225451935223   -2.47865e-03   5.98670e-05 DIIS
   @RHF iter   5:  -348.99234324723437   -8.87279e-05   2.01380e-05 DIIS
   @RHF iter   6:  -348.99235313947946   -9.89225e-06   5.00736e-06 DIIS
   @RHF iter   7:  -348.99235387911830   -7.39639e-07   1.20596e-06 DIIS
   @RHF iter   8:  -348.99235393402290   -5.49046e-08   3.33818e-07 DIIS
   @RHF iter   9:  -348.99235394237934   -8.35644e-09   1.46343e-07 DIIS
   @RHF iter  10:  -348.99235394450835   -2.12901e-09   7.15675e-08 DIIS
   @RHF iter  11:  -348.99235394521696   -7.08610e-10   2.58036e-08 DIIS
   @RHF iter  12:  -348.99235394529614   -7.91829e-11   1.19598e-08 DIIS
   @RHF iter  13:  -348.99235394530655   -1.04023e-11   4.10055e-09 DIIS
   @RHF iter  14:  -348.99235394530740   -8.52651e-13   1.19786e-09 DIIS
   @RHF iter  15:  -348.99235394530632    1.08002e-12   3.36676e-10 DIIS
   @RHF iter  16:  -348.99235394530723   -9.09495e-13   1.08584e-10 DIIS
   @RHF iter  17:  -348.99235394530660    6.25278e-13   5.17992e-11 DIIS
  Energy and wave function converged.

  ==> Post-Iterations <==

    Orbital Energies [Eh]
    ---------------------

    Doubly Occupied:

       1A    -11.241360     2A    -11.240884     3A    -11.236860
       4A    -11.234300     5A    -11.233134     6A    -11.231234
       7A    -11.228545     8A    -11.215909     9A    -11.212886
      10A     -1.149778    11A     -1.044632    12A     -1.013402
      13A     -1.010216    14A     -0.929832    15A     -0.833615
      16A     -0.824188    17A     -0.794383    18A     -0.688974
      19A     -0.633501    20A     -0.629442    21A     -0.595948
      22A     -0.591457    23A     -0.582854    24A     -0.578655
      25A     -0.561785    26A     -0.535244    27A     -0.497027
      28A     -0.487822    29A     -0.484862    30A     -0.482137
      31A     -0.480663    32A     -0.479133    33A     -0.331840
      34A     -0.319630

    Virtual:

      35A      0.130965    36A      0.138697    37A      0.170746
      38A      0.194320    39A      0.199131    40A      0.220360
      41A      0.230582    42A      0.240571    43A      0.252043
      44A      0.260436    45A      0.264136    46A      0.278623
      47A      0.281894    48A      0.290414    49A      0.316151
      50A      0.334923    51A      0.363000    52A      0.377390
      53A      0.399966    54A      0.447193    55A      0.458260
      56A      0.474322    57A      0.498121    58A      0.562611
      59A      0.580601    60A      0.598558    61A      0.608174
      62A      0.612173    63A      0.629489    64A      0.659376
      65A      0.679328    66A      0.689882    67A      0.696218
      68A      0.704713    69A      0.718966    70A      0.738153
      71A      0.743075    72A      0.751217    73A      0.758147
      74A      0.778021    75A      0.783988    76A      0.803770
      77A      0.841589    78A      0.851800    79A      0.853345
      80A      0.860252    81A      0.866580    82A      0.888039
      83A      0.892166    84A      0.894071    85A      0.899699
      86A      0.908346    87A      0.923181    88A      0.925080
      89A      0.928061    90A      0.939807    91A      0.947071
      92A      0.985004    93A      0.989794    94A      1.012378
      95A      1.021850    96A      1.052877    97A      1.115108
      98A      1.123516    99A      1.130914   100A      1.136893
     101A      1.147503   102A      1.161911   103A      1.199949
     104A      1.222523   105A      1.233465   106A      1.247501
     107A      1.251907   108A      1.265183   109A      1.293524
     110A      1.306488   111A      1.318478   112A      1.324216
     113A      1.416637   114A      1.473280   115A      1.487926
     116A      1.504463   117A      1.524961   118A      1.568920
     119A      1.581786   120A      1.604560   121A      1.675950
     122A      1.683816   123A      1.689277   124A      1.698819
     125A      1.733564   126A      1.742464   127A      1.763321
     128A      1.792013   129A      1.811140   130A      1.848596
     131A      1.868287   132A      1.870194   133A      1.882900
     134A      1.894952   135A      1.896015   136A      1.908417
     137A      1.915549   138A      1.926050   139A      1.936709
     140A      1.942964   141A      1.946774   142A      1.953611
     143A      1.958857   144A      1.964511   145A      1.970549
     146A      1.986166   147A      1.993840   148A      2.000681
     149A      2.035320   150A      2.048436   151A      2.073457
     152A      2.107895   153A      2.112245   154A      2.120813
     155A      2.131923   156A      2.149392   157A      2.154760
     158A      2.165660   159A      2.188186   160A      2.236331
     161A      2.271448   162A      2.283460   163A      2.292713
     164A      2.305401   165A      2.316932   166A      2.330340
     167A      2.349339   168A      2.446880   169A      2.456239
     170A      2.462353   171A      2.478240   172A      2.512633
     173A      2.529941   174A      2.565180   175A      2.578410
     176A      2.629660   177A      2.725484   178A      2.744653
     179A      2.765259   180A      2.776284   181A      2.779682
     182A      2.794446   183A      2.802061   184A      2.839184
     185A      2.851511   186A      2.864179   187A      2.873069
     188A      2.957453   189A      2.960472   190A      2.970471
     191A      2.996069   192A      3.020399   193A      3.145330
     194A      3.192144   195A      3.286258   196A      3.945086

    Final Occupation by Irrep:
              A
    DOCC [    34 ]

  @RHF Final Energy:  -348.99235394530660

   => Energetics <=

    Nuclear Repulsion Energy =            408.8386402135632238
    One-Electron Energy =               -1280.3897233353063712
    Two-Electron Energy =                 522.5587291764366000
    Total Energy =                       -348.9923539453066041

Computation Completed

Properties will be evaluated at   0.000000,   0.000000,   0.000000 [a0]

Properties computed using the SCF density matrix

  Nuclear Dipole Moment: [e a0]
     X:    -8.0960      Y:    -7.6640      Z:     2.0733

  Electronic Dipole Moment: [e a0]
     X:     8.0628      Y:     7.7498      Z:    -1.9857

  Dipole Moment: [e a0]
     X:    -0.0332      Y:     0.0858      Z:     0.0876     Total:     0.1270

  Dipole Moment: [D]
     X:    -0.0844      Y:     0.2180      Z:     0.2226     Total:     0.3228

*** tstop() called on ds3 at Tue Apr 28 13:19:49 2020
Module time:
	user time   =      70.22 seconds =       1.17 minutes
	system time =      35.16 seconds =       0.59 minutes
	total time  =        239 seconds =       3.98 minutes
Total time:
	user time   =      70.22 seconds =       1.17 minutes
	system time =      35.16 seconds =       0.59 minutes
	total time  =        239 seconds =       3.98 minutes
                                     G D M A

                                 by Anthony Stone

                           version 2.2.06, 22 June 2011

               Distributed Multipoles from Gaussian wavefunctions

Starting at 13:19:49 on 28 Apr 2020

Using SCF density matrix from file ./SSI/SSI-027PHE-030ILE-1-dimer.test.15877.fchk

                         Distributed Multipole Analysis

Standard DMA

Positions and radii in angstrom
Multipole moments in atomic units, ea_0^k for rank k

C          x = -0.813411  y =  2.138400  z =  1.574695 angstrom
           Maximum rank =  0   Radius =  0.650 angstrom
                   Q00  =  -0.191365

C          x =  0.335589  y =  0.079400  z = -1.401305 angstrom
           Maximum rank =  0   Radius =  0.650 angstrom
                   Q00  =  -0.074769

C          x = -0.482411  y =  0.787400  z = -0.504305 angstrom
           Maximum rank =  0   Radius =  0.650 angstrom
                   Q00  =  -0.055300

C          x =  1.724589  y =  0.026400  z = -1.163305 angstrom
           Maximum rank =  0   Radius =  0.650 angstrom
                   Q00  =  -0.093232

C          x =  0.074589  y =  1.450400  z =  0.595695 angstrom
           Maximum rank =  0   Radius =  0.650 angstrom
                   Q00  =  -0.095625

C          x =  2.269589  y =  0.681400  z = -0.056305 angstrom
           Maximum rank =  0   Radius =  0.650 angstrom
                   Q00  =  -0.019074

C          x =  1.448589  y =  1.369400  z =  0.831695 angstrom
           Maximum rank =  0   Radius =  0.650 angstrom
                   Q00  =  -0.088441

H          x = -0.094411  y = -0.427600  z = -2.255305 angstrom
           Maximum rank =  0   Radius =  0.325 angstrom
                   Q00  =   0.071585

H          x = -1.547411  y =  0.812400  z = -0.675305 angstrom
           Maximum rank =  0   Radius =  0.325 angstrom
                   Q00  =   0.058067

H          x =  2.368589  y = -0.517600  z = -1.841305 angstrom
           Maximum rank =  0   Radius =  0.325 angstrom
                   Q00  =   0.063975

H          x =  3.336589  y =  0.636400  z =  0.121695 angstrom
           Maximum rank =  0   Radius =  0.325 angstrom
                   Q00  =   0.065594

H          x = -1.463411  y =  2.806400  z =  1.007695 angstrom
           Maximum rank =  0   Radius =  0.325 angstrom
                   Q00  =   0.097127

H          x = -0.228411  y =  2.746400  z =  2.267695 angstrom
           Maximum rank =  0   Radius =  0.325 angstrom
                   Q00  =   0.097451

H          x =  1.881589  y =  1.850400  z =  1.697695 angstrom
           Maximum rank =  0   Radius =  0.325 angstrom
                   Q00  =   0.059880

H          x = -1.432011  y =  1.423750  z =  2.137385 angstrom
           Maximum rank =  0   Radius =  0.325 angstrom
                   Q00  =   0.102218

C          x = -1.554411  y = -3.142600  z = -0.670305 angstrom
           Maximum rank =  0   Radius =  0.650 angstrom
                   Q00  =  -0.238226

C          x = -2.277411  y = -2.703600  z =  0.607695 angstrom
           Maximum rank =  0   Radius =  0.650 angstrom
                   Q00  =  -0.234212

H          x = -1.777411  y = -4.187600  z = -0.895305 angstrom
           Maximum rank =  0   Radius =  0.325 angstrom
                   Q00  =   0.075869

H          x = -1.858411  y = -2.528600  z = -1.516305 angstrom
           Maximum rank =  0   Radius =  0.325 angstrom
                   Q00  =   0.073763

H          x = -0.477411  y = -3.013600  z = -0.567305 angstrom
           Maximum rank =  0   Radius =  0.325 angstrom
                   Q00  =   0.085439

H          x = -1.939411  y = -1.699600  z =  0.863695 angstrom
           Maximum rank =  0   Radius =  0.325 angstrom
                   Q00  =   0.085105

H          x = -2.042981  y = -3.377060  z =  1.445255 angstrom
           Maximum rank =  0   Radius =  0.325 angstrom
                   Q00  =   0.080161

H          x = -3.361491  y = -2.699320  z =  0.421301 angstrom
           Maximum rank =  0   Radius =  0.325 angstrom
                   Q00  =   0.074009

Total multipoles referred to origin at
           x =   0.000000,  y =    0.000000,  z =    0.000000 angstrom
                   Q00  =  -0.000000

Finished at 13:19:49 on 28 Apr 2020

  DMA results are available in the Python driver through the
	  variable('DMA DISTRIBUTED MULTIPOLES')
  and
	  variable('DMA TOTAL MULTIPOLES')
  commands.

    Psi4 stopped on: Tuesday, 28 April 2020 01:19PM
    Psi4 wall time for execution: 0:03:59.03

*** Psi4 exiting successfully. Buy a developer a beer!
