                               Psi4 1.3.2 release

  ==> Input File <==

--------------------------------------------------------------------------
import numpy as np
set {scf_type pk
basis cc-pvdz
d_convergence 10
gdma_switch   0
gdma_limit    0
gdma_origin   [ 0.0,  0.0,  0.0 ]
}
molecule test {
    units Angstrom
    -1 1
    --
    -1 1
    C                4.598385747082177    -1.370536585867260    -0.675610058496827
    C                0.904385747082178     0.786463414132740    -0.143610058496827
    C                2.034385747082178     1.445463414132740    -0.602610058496827
    C                0.958385747082177    -0.580536585867260     0.135389941503173
    C                3.222385747082178     0.739463414132740    -0.789610058496827
    C                2.159385747082177    -1.278536585867259    -0.038610058496827
    C                3.297385747082177    -0.625536585867260    -0.509610058496827
    O               -0.237614252917822     1.497463414132740     0.021389941503173
    H               -0.105614252917822     2.433463414132740    -0.133610058496827
    H                1.995385747082178     2.504463414132740    -0.805610058496827
    H                0.074385747082178    -1.086536585867260     0.491389941503173
    H                4.107385747082177     1.260463414132740    -1.127610058496827
    H                2.201385747082177    -2.334536585867259     0.189389941503173
    H                5.074385747082178    -1.067536585867260    -1.603610058496827
    H                4.376385747082177    -2.434536585867260    -0.770610058496827
    H                5.285415747082177    -1.236848585867260     0.172989941503173
    C               -3.225614252917823     0.363463414132740    -0.466610058496827
    C               -3.359614252917823    -0.886536585867260    -1.321610058496827
    C               -3.001614252917823     0.018463414132740     0.995389941503173
    O               -3.887614252917823    -0.640536585867260     1.585389941503172
    O               -1.961614252917823     0.413463414132740     1.558389941503173
    H               -2.434614252917823     1.003463414132741    -0.836610058496827
    H               -4.153614252917823     0.935463414132740    -0.554610058496827
    H               -4.205614252917822    -1.481536585867260    -0.975610058496827
    H               -2.450614252917823    -1.478536585867260    -1.207610058496827
    H               -3.509366252917823    -0.648229585867260    -2.384990058496828

}
e, wfn = energy('scf', return_wfn=True)
gdma(wfn)
dmavals = variable('DMA DISTRIBUTED MULTIPOLES')
charges = np.array(dmavals)
print(charges)
np.save('SSI-090TYR-112GLU-1-dimer.npy', np.array(charges))--------------------------------------------------------------------------

*** tstart() called on ds3
*** at Mon Apr 27 14:14:20 2020

   => Loading Basis Set <=

    Name: CC-PVDZ
    Role: ORBITAL
    Keyword: BASIS
    atoms 1-7, 17-19  entry C          line   138 file /theoryfs2/ds/metcalf/miniconda2/envs/tf2gpu/share/psi4/basis/cc-pvdz.gbs
    atoms 8, 20-21    entry O          line   198 file /theoryfs2/ds/metcalf/miniconda2/envs/tf2gpu/share/psi4/basis/cc-pvdz.gbs
    atoms 9-16, 22-26 entry H          line    22 file /theoryfs2/ds/metcalf/miniconda2/envs/tf2gpu/share/psi4/basis/cc-pvdz.gbs

         ---------------------------------------------------------
                                   SCF
               by Justin Turney, Rob Parrish, Andy Simmonett
                          and Daniel G. A. Smith
                              RHF Reference
                        1 Threads,    500 MiB Core
         ---------------------------------------------------------

  ==> Geometry <==

    Molecular point group: c1
    Full point group: C1

    Geometry (in Angstrom), charge = -1, multiplicity = 1:

       Center              X                  Y                   Z               Mass
    ------------   -----------------  -----------------  -----------------  -----------------
         C            4.598385747082    -1.370536585867    -0.675610058497    12.000000000000
         C            0.904385747082     0.786463414133    -0.143610058497    12.000000000000
         C            2.034385747082     1.445463414133    -0.602610058497    12.000000000000
         C            0.958385747082    -0.580536585867     0.135389941503    12.000000000000
         C            3.222385747082     0.739463414133    -0.789610058497    12.000000000000
         C            2.159385747082    -1.278536585867    -0.038610058497    12.000000000000
         C            3.297385747082    -0.625536585867    -0.509610058497    12.000000000000
         O           -0.237614252918     1.497463414133     0.021389941503    15.994914619570
         H           -0.105614252918     2.433463414133    -0.133610058497     1.007825032230
         H            1.995385747082     2.504463414133    -0.805610058497     1.007825032230
         H            0.074385747082    -1.086536585867     0.491389941503     1.007825032230
         H            4.107385747082     1.260463414133    -1.127610058497     1.007825032230
         H            2.201385747082    -2.334536585867     0.189389941503     1.007825032230
         H            5.074385747082    -1.067536585867    -1.603610058497     1.007825032230
         H            4.376385747082    -2.434536585867    -0.770610058497     1.007825032230
         H            5.285415747082    -1.236848585867     0.172989941503     1.007825032230
         C           -3.225614252918     0.363463414133    -0.466610058497    12.000000000000
         C           -3.359614252918    -0.886536585867    -1.321610058497    12.000000000000
         C           -3.001614252918     0.018463414133     0.995389941503    12.000000000000
         O           -3.887614252918    -0.640536585867     1.585389941503    15.994914619570
         O           -1.961614252918     0.413463414133     1.558389941503    15.994914619570
         H           -2.434614252918     1.003463414133    -0.836610058497     1.007825032230
         H           -4.153614252918     0.935463414133    -0.554610058497     1.007825032230
         H           -4.205614252918    -1.481536585867    -0.975610058497     1.007825032230
         H           -2.450614252918    -1.478536585867    -1.207610058497     1.007825032230
         H           -3.509366252918    -0.648229585867    -2.384990058497     1.007825032230

  Running in c1 symmetry.

  Rotational constants: A =      0.05663  B =      0.01042  C =      0.01002 [cm^-1]
  Rotational constants: A =   1697.69115  B =    312.34843  C =    300.39465 [MHz]
  Nuclear repulsion =  745.241397146985719

  Charge       = -1
  Multiplicity = 1
  Electrons    = 98
  Nalpha       = 49
  Nbeta        = 49

  ==> Algorithm <==

  SCF Algorithm Type is PK.
  DIIS enabled.
  MOM disabled.
  Fractional occupation disabled.
  Guess Type is SAD.
  Energy threshold   = 1.00e-06
  Density threshold  = 1.00e-10
  Integral threshold = 0.00e+00

  ==> Primary Basis <==

  Basis Set: CC-PVDZ
    Blend: CC-PVDZ
    Number of shells: 117
    Number of basis function: 247
    Number of Cartesian functions: 260
    Spherical Harmonics?: true
    Max angular momentum: 2

  ==> Pre-Iterations <==

   -------------------------------------------------------
    Irrep   Nso     Nmo     Nalpha   Nbeta   Ndocc  Nsocc
   -------------------------------------------------------
     A        247     247       0       0       0       0
   -------------------------------------------------------
    Total     247     247      49      49      49       0
   -------------------------------------------------------

  ==> Integral Setup <==

  Using integral reordering PK algorithm.
  Sizing the integral batches needed.
  Building batch lookup table.
   Calculation information:
      Number of atoms:                  26
      Number of AO shells:             117
      Number of primitives:            351
      Number of atomic orbitals:       260
      Number of basis functions:       247

      Integral cutoff                 1.00e-12
      Number of threads:                 1

	Batch   1 pq = [       0,    9405] index = [             0,44231715] size =     44231715
	Batch   2 pq = [    9405,   13301] index = [      44231715,88464951] size =     44233236
	Batch   3 pq = [   13301,   16290] index = [      88464951,132690195] size =     44225244
	Batch   4 pq = [   16290,   18810] index = [     132690195,176917455] size =     44227260
	Batch   5 pq = [   18810,   21030] index = [     176917455,221140965] size =     44223510
	Batch   6 pq = [   21030,   23037] index = [     221140965,265363203] size =     44222238
	Batch   7 pq = [   23037,   24883] index = [     265363203,309594286] size =     44231083
	Batch   8 pq = [   24883,   26601] index = [     309594286,353819901] size =     44225615
	Batch   9 pq = [   26601,   28214] index = [     353819901,398029005] size =     44209104
	Batch  10 pq = [   28214,   29740] index = [     398029005,442248670] size =     44219665
	Batch  11 pq = [   29740,   30628] index = [     442248670,469052506] size =     26803836
  Task number: 43
  Buffer size: 11059200
  Buffer per thread: 2
  We computed 20280140 shell quartets total.
  Whereas there are 23829156 unique shell quartets.

  ==> DiskJK: Disk-Based J/K Matrices <==

    J tasked:                  Yes
    K tasked:                  Yes
    wK tasked:                  No
    Memory [MiB]:              375
    Schwarz Cutoff:          1E-12

    OpenMP threads:              1

  Minimum eigenvalue in the overlap matrix is 3.1903799521E-04.
  Using Symmetric Orthogonalization.

  SCF Guess: Superposition of Atomic Densities via on-the-fly atomic UHF.

  ==> Iterations <==

                        Total Energy        Delta E     RMS |[F,P]|

   @RHF iter SAD:  -609.23993670292020   -6.09240e+02   0.00000e+00
   @RHF iter   1:  -610.49280591311026   -1.25287e+00   3.45798e-03 DIIS
   @RHF iter   2:  -610.80607594832395   -3.13270e-01   1.80576e-03 DIIS
   @RHF iter   3:  -610.88181356832763   -7.57376e-02   3.19335e-04 DIIS
   @RHF iter   4:  -610.88599775339583   -4.18419e-03   1.23071e-04 DIIS
   @RHF iter   5:  -610.88657774691001   -5.79994e-04   2.04124e-05 DIIS
   @RHF iter   6:  -610.88660300087622   -2.52540e-05   6.88984e-06 DIIS
   @RHF iter   7:  -610.88660574189612   -2.74102e-06   2.82174e-06 DIIS
   @RHF iter   8:  -610.88660624969748   -5.07801e-07   1.01858e-06 DIIS
   @RHF iter   9:  -610.88660635220288   -1.02505e-07   4.20653e-07 DIIS
   @RHF iter  10:  -610.88660637613032   -2.39274e-08   1.83951e-07 DIIS
   @RHF iter  11:  -610.88660638235456   -6.22424e-09   7.85068e-08 DIIS
   @RHF iter  12:  -610.88660638342651   -1.07195e-09   3.81743e-08 DIIS
   @RHF iter  13:  -610.88660638358829   -1.61776e-10   1.07359e-08 DIIS
   @RHF iter  14:  -610.88660638360989   -2.16005e-11   4.22809e-09 DIIS
   @RHF iter  15:  -610.88660638361091   -1.02318e-12   1.35687e-09 DIIS
   @RHF iter  16:  -610.88660638361455   -3.63798e-12   6.38474e-10 DIIS
   @RHF iter  17:  -610.88660638360761    6.93490e-12   3.04466e-10 DIIS
   @RHF iter  18:  -610.88660638361250   -4.88853e-12   1.34782e-10 DIIS
   @RHF iter  19:  -610.88660638361330   -7.95808e-13   5.97168e-11 DIIS
  Energy and wave function converged.

  ==> Post-Iterations <==

    Orbital Energies [Eh]
    ---------------------

    Doubly Occupied:

       1A    -20.452580     2A    -20.251287     3A    -20.250492
       4A    -11.190054     5A    -11.147890     6A    -11.142753
       7A    -11.138413     8A    -11.136422     9A    -11.131263
      10A    -11.119844    11A    -11.105193    12A    -11.071376
      13A    -11.041839    14A     -1.277774    15A     -1.143561
      16A     -1.049464    17A     -1.028943    18A     -0.940783
      19A     -0.914029    20A     -0.868900    21A     -0.832911
      22A     -0.741320    23A     -0.698347    24A     -0.696834
      25A     -0.621917    26A     -0.564357    27A     -0.539629
      28A     -0.507658    29A     -0.504473    30A     -0.496373
      31A     -0.483365    32A     -0.465214    33A     -0.462429
      34A     -0.446732    35A     -0.430431    36A     -0.420221
      37A     -0.402335    38A     -0.384425    39A     -0.375448
      40A     -0.366393    41A     -0.357928    42A     -0.353058
      43A     -0.315104    44A     -0.292387    45A     -0.237217
      46A     -0.195957    47A     -0.173324    48A     -0.161616
      49A     -0.153124

    Virtual:

      50A      0.229374    51A      0.255839    52A      0.266281
      53A      0.281735    54A      0.310400    55A      0.311950
      56A      0.332968    57A      0.345135    58A      0.360137
      59A      0.365222    60A      0.381159    61A      0.397571
      62A      0.410163    63A      0.443807    64A      0.452083
      65A      0.457016    66A      0.478625    67A      0.488932
      68A      0.541999    69A      0.559433    70A      0.564317
      71A      0.582513    72A      0.591427    73A      0.605520
      74A      0.619035    75A      0.696360    76A      0.704373
      77A      0.722283    78A      0.732263    79A      0.751477
      80A      0.762346    81A      0.774478    82A      0.783811
      83A      0.789810    84A      0.800494    85A      0.807169
      86A      0.828175    87A      0.840250    88A      0.842174
      89A      0.857106    90A      0.869565    91A      0.884957
      92A      0.891153    93A      0.898081    94A      0.931390
      95A      0.948474    96A      0.959647    97A      0.966811
      98A      0.972627    99A      0.978923   100A      0.993581
     101A      0.995129   102A      1.003918   103A      1.009050
     104A      1.016009   105A      1.025649   106A      1.031003
     107A      1.034438   108A      1.048891   109A      1.052492
     110A      1.061992   111A      1.070398   112A      1.082758
     113A      1.096228   114A      1.122242   115A      1.127828
     116A      1.139756   117A      1.151959   118A      1.168135
     119A      1.227528   120A      1.245323   121A      1.259139
     122A      1.263056   123A      1.279550   124A      1.298677
     125A      1.307520   126A      1.323751   127A      1.335397
     128A      1.347991   129A      1.374982   130A      1.383208
     131A      1.398384   132A      1.412802   133A      1.423744
     134A      1.450119   135A      1.464766   136A      1.483256
     137A      1.491079   138A      1.517297   139A      1.559320
     140A      1.568791   141A      1.590234   142A      1.604641
     143A      1.608760   144A      1.631606   145A      1.642381
     146A      1.644591   147A      1.678704   148A      1.687377
     149A      1.716274   150A      1.744201   151A      1.765793
     152A      1.778488   153A      1.787830   154A      1.831709
     155A      1.837933   156A      1.842450   157A      1.860847
     158A      1.876210   159A      1.901318   160A      1.910985
     161A      1.955125   162A      1.977993   163A      1.981861
     164A      1.986021   165A      2.003312   166A      2.015217
     167A      2.018007   168A      2.033403   169A      2.040192
     170A      2.042562   171A      2.054062   172A      2.060249
     173A      2.068955   174A      2.086406   175A      2.096766
     176A      2.102415   177A      2.136852   178A      2.143760
     179A      2.150010   180A      2.150768   181A      2.159828
     182A      2.164745   183A      2.167424   184A      2.174796
     185A      2.194597   186A      2.220540   187A      2.237260
     188A      2.264581   189A      2.272376   190A      2.306988
     191A      2.316940   192A      2.326888   193A      2.354593
     194A      2.362067   195A      2.377226   196A      2.382625
     197A      2.393751   198A      2.423658   199A      2.466176
     200A      2.497453   201A      2.505065   202A      2.511431
     203A      2.543995   204A      2.567934   205A      2.584758
     206A      2.594432   207A      2.629608   208A      2.639845
     209A      2.687477   210A      2.695635   211A      2.696545
     212A      2.752725   213A      2.753815   214A      2.774979
     215A      2.844663   216A      2.847184   217A      2.858253
     218A      2.894351   219A      2.911278   220A      2.923219
     221A      2.927634   222A      2.995830   223A      3.019048
     224A      3.023984   225A      3.053837   226A      3.061349
     227A      3.113425   228A      3.149542   229A      3.187052
     230A      3.204803   231A      3.257532   232A      3.298080
     233A      3.306975   234A      3.375699   235A      3.387499
     236A      3.392329   237A      3.482891   238A      3.647142
     239A      3.745081   240A      3.807498   241A      3.811619
     242A      3.839795   243A      4.072877   244A      4.102743
     245A      4.119504   246A      4.216600   247A      4.335448

    Final Occupation by Irrep:
              A
    DOCC [    49 ]

  @RHF Final Energy:  -610.88660638361330

   => Energetics <=

    Nuclear Repulsion Energy =            745.2413971469857188
    One-Electron Energy =               -2328.0892435609548556
    Two-Electron Energy =                 971.9612400303558388
    Total Energy =                       -610.8866063836132980

Computation Completed

Properties will be evaluated at   0.000000,   0.000000,   0.000000 [a0]

Properties computed using the SCF density matrix

  Nuclear Dipole Moment: [e a0]
     X:     5.8349      Y:    -3.3978      Z:    -8.9345

  Electronic Dipole Moment: [e a0]
     X:    -0.7327      Y:     4.2065      Z:     6.1321

  Dipole Moment: [e a0]
     X:     5.1022      Y:     0.8087      Z:    -2.8025     Total:     5.8771

  Dipole Moment: [D]
     X:    12.9685      Y:     2.0554      Z:    -7.1232     Total:    14.9381

*** tstop() called on ds3 at Mon Apr 27 14:19:41 2020
Module time:
	user time   =     171.06 seconds =       2.85 minutes
	system time =      78.43 seconds =       1.31 minutes
	total time  =        321 seconds =       5.35 minutes
Total time:
	user time   =     171.06 seconds =       2.85 minutes
	system time =      78.43 seconds =       1.31 minutes
	total time  =        321 seconds =       5.35 minutes
                                     G D M A

                                 by Anthony Stone

                           version 2.2.06, 22 June 2011

               Distributed Multipoles from Gaussian wavefunctions

Starting at 14:19:41 on 27 Apr 2020

Using SCF density matrix from file ./SSI/SSI-090TYR-112GLU-1-dimer.test.9079.fchk

                         Distributed Multipole Analysis

Standard DMA

Positions and radii in angstrom
Multipole moments in atomic units, ea_0^k for rank k

C          x =  4.598386  y = -1.370537  z = -0.675610 angstrom
           Maximum rank =  0   Radius =  0.650 angstrom
                   Q00  =  -0.192699

C          x =  0.904386  y =  0.786463  z = -0.143610 angstrom
           Maximum rank =  0   Radius =  0.650 angstrom
                   Q00  =   0.338333

C          x =  2.034386  y =  1.445463  z = -0.602610 angstrom
           Maximum rank =  0   Radius =  0.650 angstrom
                   Q00  =  -0.174376

C          x =  0.958386  y = -0.580537  z =  0.135390 angstrom
           Maximum rank =  0   Radius =  0.650 angstrom
                   Q00  =  -0.081781

C          x =  3.222386  y =  0.739463  z = -0.789610 angstrom
           Maximum rank =  0   Radius =  0.650 angstrom
                   Q00  =   0.031177

C          x =  2.159386  y = -1.278537  z = -0.038610 angstrom
           Maximum rank =  0   Radius =  0.650 angstrom
                   Q00  =  -0.061621

C          x =  3.297386  y = -0.625537  z = -0.509610 angstrom
           Maximum rank =  0   Radius =  0.650 angstrom
                   Q00  =  -0.149884

O          x = -0.237614  y =  1.497463  z =  0.021390 angstrom
           Maximum rank =  0   Radius =  0.650 angstrom
                   Q00  =  -0.572764

H          x = -0.105614  y =  2.433463  z = -0.133610 angstrom
           Maximum rank =  0   Radius =  0.325 angstrom
                   Q00  =   0.368247

H          x =  1.995386  y =  2.504463  z = -0.805610 angstrom
           Maximum rank =  0   Radius =  0.325 angstrom
                   Q00  =   0.051469

H          x =  0.074386  y = -1.086537  z =  0.491390 angstrom
           Maximum rank =  0   Radius =  0.325 angstrom
                   Q00  =   0.102172

H          x =  4.107386  y =  1.260463  z = -1.127610 angstrom
           Maximum rank =  0   Radius =  0.325 angstrom
                   Q00  =   0.040567

H          x =  2.201386  y = -2.334537  z =  0.189390 angstrom
           Maximum rank =  0   Radius =  0.325 angstrom
                   Q00  =   0.048341

H          x =  5.074386  y = -1.067537  z = -1.603610 angstrom
           Maximum rank =  0   Radius =  0.325 angstrom
                   Q00  =   0.083882

H          x =  4.376386  y = -2.434537  z = -0.770610 angstrom
           Maximum rank =  0   Radius =  0.325 angstrom
                   Q00  =   0.086419

H          x =  5.285416  y = -1.236849  z =  0.172990 angstrom
           Maximum rank =  0   Radius =  0.325 angstrom
                   Q00  =   0.085662

C          x = -3.225614  y =  0.363463  z = -0.466610 angstrom
           Maximum rank =  0   Radius =  0.650 angstrom
                   Q00  =  -0.134063

C          x = -3.359614  y = -0.886537  z = -1.321610 angstrom
           Maximum rank =  0   Radius =  0.650 angstrom
                   Q00  =  -0.196290

C          x = -3.001614  y =  0.018463  z =  0.995390 angstrom
           Maximum rank =  0   Radius =  0.650 angstrom
                   Q00  =   0.972205

O          x = -3.887614  y = -0.640537  z =  1.585390 angstrom
           Maximum rank =  0   Radius =  0.650 angstrom
                   Q00  =  -0.957794

O          x = -1.961614  y =  0.413463  z =  1.558390 angstrom
           Maximum rank =  0   Radius =  0.650 angstrom
                   Q00  =  -0.907974

H          x = -2.434614  y =  1.003463  z = -0.836610 angstrom
           Maximum rank =  0   Radius =  0.325 angstrom
                   Q00  =   0.036117

H          x = -4.153614  y =  0.935463  z = -0.554610 angstrom
           Maximum rank =  0   Radius =  0.325 angstrom
                   Q00  =   0.024091

H          x = -4.205614  y = -1.481537  z = -0.975610 angstrom
           Maximum rank =  0   Radius =  0.325 angstrom
                   Q00  =   0.080838

H          x = -2.450614  y = -1.478537  z = -1.207610 angstrom
           Maximum rank =  0   Radius =  0.325 angstrom
                   Q00  =   0.059510

H          x = -3.509366  y = -0.648230  z = -2.384990 angstrom
           Maximum rank =  0   Radius =  0.325 angstrom
                   Q00  =   0.020217

Total multipoles referred to origin at
           x =   0.000000,  y =    0.000000,  z =    0.000000 angstrom
                   Q00  =  -1.000000

Finished at 14:19:41 on 27 Apr 2020

  DMA results are available in the Python driver through the
	  variable('DMA DISTRIBUTED MULTIPOLES')
  and
	  variable('DMA TOTAL MULTIPOLES')
  commands.

    Psi4 stopped on: Monday, 27 April 2020 02:19PM
    Psi4 wall time for execution: 0:05:21.64

*** Psi4 exiting successfully. Buy a developer a beer!
