                               Psi4 1.3.2 release

  ==> Input File <==

--------------------------------------------------------------------------
import numpy as np
set {scf_type pk
basis cc-pvdz
d_convergence 10
gdma_switch   0
gdma_limit    0
gdma_origin   [ 0.0,  0.0,  0.0 ]
}
molecule test {
    units Angstrom
    0 1
    --
    0 1
    C               -0.046947665153657    -0.962041338064591    -3.743003049426846
    C               -0.906947665153657    -2.132041338064591    -4.201003049426846
    H                0.976052334846343    -1.266041338064591    -3.541003049426846
    H               -0.020947665153657    -0.210041338064591    -4.530003049426846
    H               -0.510947665153657    -0.527041338064591    -2.866003049426846
    H               -0.473947665153657    -2.527041338064591    -5.117003049426846
    H               -0.960377665153657    -2.916842338064591    -3.432083049426846
    H               -1.934257665153657    -1.797298338064591    -4.407333049426847
    C               -0.434947665153657    -2.109041338064591     2.479996950573154
    C                0.269052334846343     0.443958661935409    -0.265003049426846
    C                0.453052334846343     1.603958661935409     0.449996950573154
    C               -0.019947665153657    -0.747041338064591     0.380996950573154
    C               -0.168947665153657    -0.804041338064591     1.761996950573154
    C                0.233052334846343     1.566958661935409     1.817996950573154
    C               -0.063947665153657     0.383958661935409     2.466996950573154
    O                0.730052334846343     2.778958661935409    -0.163003049426846
    H                0.410052334846343     0.482958661935409    -1.327003049426846
    H               -0.119947665153657    -1.652041338064591    -0.201003049426846
    H                0.329052334846343     2.470958661935409     2.399996950573154
    H                0.642052334846343     3.538958661935409     0.413996950573154
    H               -0.911947665153657    -2.810041338064591     1.793996950573154
    H               -1.124947665153657    -1.920041338064591     3.303996950573154
    H               -0.202947665153657     0.388958661935409     3.539996950573154
    H                0.490982334846343    -2.551752338064591     2.875806950573154

}
e, wfn = energy('scf', return_wfn=True)
gdma(wfn)
dmavals = variable('DMA DISTRIBUTED MULTIPOLES')
charges = np.array(dmavals)
print(charges)
np.save('SSI-150LEU-154TYR-1-dimer.npy', np.array(charges))--------------------------------------------------------------------------

*** tstart() called on ds3
*** at Tue Apr 28 11:59:57 2020

   => Loading Basis Set <=

    Name: CC-PVDZ
    Role: ORBITAL
    Keyword: BASIS
    atoms 1-2, 9-15  entry C          line   138 file /theoryfs2/ds/metcalf/miniconda2/envs/tf2gpu/share/psi4/basis/cc-pvdz.gbs
    atoms 3-8, 17-24 entry H          line    22 file /theoryfs2/ds/metcalf/miniconda2/envs/tf2gpu/share/psi4/basis/cc-pvdz.gbs
    atoms 16         entry O          line   198 file /theoryfs2/ds/metcalf/miniconda2/envs/tf2gpu/share/psi4/basis/cc-pvdz.gbs

         ---------------------------------------------------------
                                   SCF
               by Justin Turney, Rob Parrish, Andy Simmonett
                          and Daniel G. A. Smith
                              RHF Reference
                        1 Threads,    500 MiB Core
         ---------------------------------------------------------

  ==> Geometry <==

    Molecular point group: c1
    Full point group: C1

    Geometry (in Angstrom), charge = 0, multiplicity = 1:

       Center              X                  Y                   Z               Mass
    ------------   -----------------  -----------------  -----------------  -----------------
         C           -0.046947665154    -0.962041338065    -3.743003049427    12.000000000000
         C           -0.906947665154    -2.132041338065    -4.201003049427    12.000000000000
         H            0.976052334846    -1.266041338065    -3.541003049427     1.007825032230
         H           -0.020947665154    -0.210041338065    -4.530003049427     1.007825032230
         H           -0.510947665154    -0.527041338065    -2.866003049427     1.007825032230
         H           -0.473947665154    -2.527041338065    -5.117003049427     1.007825032230
         H           -0.960377665154    -2.916842338065    -3.432083049427     1.007825032230
         H           -1.934257665154    -1.797298338065    -4.407333049427     1.007825032230
         C           -0.434947665154    -2.109041338065     2.479996950573    12.000000000000
         C            0.269052334846     0.443958661935    -0.265003049427    12.000000000000
         C            0.453052334846     1.603958661935     0.449996950573    12.000000000000
         C           -0.019947665154    -0.747041338065     0.380996950573    12.000000000000
         C           -0.168947665154    -0.804041338065     1.761996950573    12.000000000000
         C            0.233052334846     1.566958661935     1.817996950573    12.000000000000
         C           -0.063947665154     0.383958661935     2.466996950573    12.000000000000
         O            0.730052334846     2.778958661935    -0.163003049427    15.994914619570
         H            0.410052334846     0.482958661935    -1.327003049427     1.007825032230
         H           -0.119947665154    -1.652041338065    -0.201003049427     1.007825032230
         H            0.329052334846     2.470958661935     2.399996950573     1.007825032230
         H            0.642052334846     3.538958661935     0.413996950573     1.007825032230
         H           -0.911947665154    -2.810041338065     1.793996950573     1.007825032230
         H           -1.124947665154    -1.920041338065     3.303996950573     1.007825032230
         H           -0.202947665154     0.388958661935     3.539996950573     1.007825032230
         H            0.490982334846    -2.551752338065     2.875806950573     1.007825032230

  Running in c1 symmetry.

  Rotational constants: A =      0.04657  B =      0.02069  C =      0.01455 [cm^-1]
  Rotational constants: A =   1396.22127  B =    620.17474  C =    436.22435 [MHz]
  Nuclear repulsion =  485.843930676374100

  Charge       = 0
  Multiplicity = 1
  Electrons    = 76
  Nalpha       = 38
  Nbeta        = 38

  ==> Algorithm <==

  SCF Algorithm Type is PK.
  DIIS enabled.
  MOM disabled.
  Fractional occupation disabled.
  Guess Type is SAD.
  Energy threshold   = 1.00e-06
  Density threshold  = 1.00e-10
  Integral threshold = 0.00e+00

  ==> Primary Basis <==

  Basis Set: CC-PVDZ
    Blend: CC-PVDZ
    Number of shells: 102
    Number of basis function: 210
    Number of Cartesian functions: 220
    Spherical Harmonics?: true
    Max angular momentum: 2

  ==> Pre-Iterations <==

   -------------------------------------------------------
    Irrep   Nso     Nmo     Nalpha   Nbeta   Ndocc  Nsocc
   -------------------------------------------------------
     A        210     210       0       0       0       0
   -------------------------------------------------------
    Total     210     210      38      38      38       0
   -------------------------------------------------------

  ==> Integral Setup <==

  Using integral reordering PK algorithm.
  Sizing the integral batches needed.
  Building batch lookup table.
   Calculation information:
      Number of atoms:                  24
      Number of AO shells:             102
      Number of primitives:            290
      Number of atomic orbitals:       220
      Number of basis functions:       210

      Integral cutoff                 1.00e-12
      Number of threads:                 1

	Batch   1 pq = [       0,    9405] index = [             0,44231715] size =     44231715
	Batch   2 pq = [    9405,   13301] index = [      44231715,88464951] size =     44233236
	Batch   3 pq = [   13301,   16290] index = [      88464951,132690195] size =     44225244
	Batch   4 pq = [   16290,   18810] index = [     132690195,176917455] size =     44227260
	Batch   5 pq = [   18810,   21030] index = [     176917455,221140965] size =     44223510
	Batch   6 pq = [   21030,   22155] index = [     221140965,245433090] size =     24292125
  Task number: 23
  Buffer size: 11059200
  Buffer per thread: 2
  We computed 10593541 shell quartets total.
  Whereas there are 13799631 unique shell quartets.

  ==> DiskJK: Disk-Based J/K Matrices <==

    J tasked:                  Yes
    K tasked:                  Yes
    wK tasked:                  No
    Memory [MiB]:              375
    Schwarz Cutoff:          1E-12

    OpenMP threads:              1

  Minimum eigenvalue in the overlap matrix is 3.0816044472E-04.
  Using Symmetric Orthogonalization.

  SCF Guess: Superposition of Atomic Densities via on-the-fly atomic UHF.

  ==> Iterations <==

                        Total Energy        Delta E     RMS |[F,P]|

   @RHF iter SAD:  -422.82693391549361   -4.22827e+02   0.00000e+00
   @RHF iter   1:  -423.59731554098533   -7.70382e-01   2.99779e-03 DIIS
   @RHF iter   2:  -423.81634548245108   -2.19030e-01   1.25765e-03 DIIS
   @RHF iter   3:  -423.85142280409701   -3.50773e-02   2.80591e-04 DIIS
   @RHF iter   4:  -423.85427117100875   -2.84837e-03   1.13303e-04 DIIS
   @RHF iter   5:  -423.85460123023540   -3.30059e-04   2.10576e-05 DIIS
   @RHF iter   6:  -423.85461855342692   -1.73232e-05   6.07383e-06 DIIS
   @RHF iter   7:  -423.85462001636665   -1.46294e-06   1.85927e-06 DIIS
   @RHF iter   8:  -423.85462018269072   -1.66324e-07   6.55086e-07 DIIS
   @RHF iter   9:  -423.85462020226805   -1.95773e-08   2.22754e-07 DIIS
   @RHF iter  10:  -423.85462020446533   -2.19728e-09   6.67102e-08 DIIS
   @RHF iter  11:  -423.85462020478155   -3.16220e-10   2.60843e-08 DIIS
   @RHF iter  12:  -423.85462020484920   -6.76437e-11   1.58995e-08 DIIS
   @RHF iter  13:  -423.85462020487466   -2.54659e-11   6.73960e-09 DIIS
   @RHF iter  14:  -423.85462020487790   -3.24007e-12   1.88493e-09 DIIS
   @RHF iter  15:  -423.85462020487728    6.25278e-13   6.46392e-10 DIIS
   @RHF iter  16:  -423.85462020487876   -1.47793e-12   1.70827e-10 DIIS
   @RHF iter  17:  -423.85462020487728    1.47793e-12   5.60293e-11 DIIS
  Energy and wave function converged.

  ==> Post-Iterations <==

    Orbital Energies [Eh]
    ---------------------

    Doubly Occupied:

       1A    -20.582097     2A    -11.294301     3A    -11.234483
       4A    -11.234087     5A    -11.230685     6A    -11.228599
       7A    -11.228241     8A    -11.223421     9A    -11.217880
      10A    -11.214142    11A     -1.403111    12A     -1.154459
      13A     -1.039028    14A     -1.020654    15A     -1.017131
      16A     -0.928368    17A     -0.844174    18A     -0.836802
      19A     -0.803932    20A     -0.736843    21A     -0.668934
      22A     -0.641171    23A     -0.609276    24A     -0.604509
      25A     -0.595239    26A     -0.587612    27A     -0.581483
      28A     -0.571989    29A     -0.565546    30A     -0.527272
      31A     -0.503081    32A     -0.497258    33A     -0.489147
      34A     -0.482691    35A     -0.475231    36A     -0.468929
      37A     -0.337810    38A     -0.302607

    Virtual:

      39A      0.134685    40A      0.156430    41A      0.171760
      42A      0.181870    43A      0.195009    44A      0.220039
      45A      0.227275    46A      0.232600    47A      0.256018
      48A      0.265686    49A      0.266332    50A      0.277664
      51A      0.287137    52A      0.295355    53A      0.304774
      54A      0.321804    55A      0.378766    56A      0.381396
      57A      0.407363    58A      0.431639    59A      0.457957
      60A      0.490176    61A      0.501920    62A      0.511183
      63A      0.599020    64A      0.605620    65A      0.617891
      66A      0.633651    67A      0.639367    68A      0.648892
      69A      0.664259    70A      0.680177    71A      0.688386
      72A      0.694817    73A      0.710788    74A      0.723878
      75A      0.741499    76A      0.742337    77A      0.768414
      78A      0.776191    79A      0.788192    80A      0.791777
      81A      0.809260    82A      0.836220    83A      0.846133
      84A      0.854890    85A      0.859378    86A      0.877986
      87A      0.883591    88A      0.889186    89A      0.896483
      90A      0.896690    91A      0.904197    92A      0.913364
      93A      0.935168    94A      0.939445    95A      0.942333
      96A      0.945432    97A      0.950431    98A      0.957199
      99A      0.997697   100A      1.030405   101A      1.045190
     102A      1.061749   103A      1.119467   104A      1.129552
     105A      1.144704   106A      1.149314   107A      1.161405
     108A      1.179785   109A      1.221795   110A      1.240106
     111A      1.257991   112A      1.259414   113A      1.281188
     114A      1.291003   115A      1.304192   116A      1.319049
     117A      1.330098   118A      1.361184   119A      1.377524
     120A      1.415140   121A      1.470844   122A      1.492521
     123A      1.501208   124A      1.516187   125A      1.536522
     126A      1.560939   127A      1.578658   128A      1.621319
     129A      1.627543   130A      1.669374   131A      1.683413
     132A      1.694833   133A      1.706890   134A      1.733928
     135A      1.751076   136A      1.789321   137A      1.806325
     138A      1.818081   139A      1.861574   140A      1.875890
     141A      1.877584   142A      1.890427   143A      1.901663
     144A      1.912139   145A      1.915368   146A      1.919913
     147A      1.930040   148A      1.943107   149A      1.949151
     150A      1.953569   151A      1.957991   152A      1.970175
     153A      1.972802   154A      1.984044   155A      1.994734
     156A      2.004209   157A      2.045990   158A      2.051271
     159A      2.063055   160A      2.078587   161A      2.091608
     162A      2.101638   163A      2.128904   164A      2.149878
     165A      2.167771   166A      2.175337   167A      2.227116
     168A      2.240981   169A      2.272551   170A      2.283148
     171A      2.301292   172A      2.310471   173A      2.324773
     174A      2.332098   175A      2.365990   176A      2.423058
     177A      2.465204   178A      2.468041   179A      2.480558
     180A      2.485936   181A      2.511570   182A      2.538590
     183A      2.544391   184A      2.561204   185A      2.596113
     186A      2.610298   187A      2.651940   188A      2.760551
     189A      2.765337   190A      2.776990   191A      2.796205
     192A      2.809781   193A      2.834896   194A      2.839555
     195A      2.853295   196A      2.874129   197A      2.908222
     198A      2.963188   199A      2.968315   200A      2.984511
     201A      3.027090   202A      3.103680   203A      3.118915
     204A      3.257705   205A      3.318995   206A      3.364629
     207A      3.584223   208A      3.677398   209A      4.004701
     210A      4.198571

    Final Occupation by Irrep:
              A
    DOCC [    38 ]

  @RHF Final Energy:  -423.85462020487728

   => Energetics <=

    Nuclear Repulsion Energy =            485.8439306763741001
    One-Electron Energy =               -1537.4326484494754368
    Two-Electron Energy =                 627.7340975682240014
    Total Energy =                       -423.8546202048772784

Computation Completed

Properties will be evaluated at   0.000000,   0.000000,   0.000000 [a0]

Properties computed using the SCF density matrix

  Nuclear Dipole Moment: [e a0]
     X:    -3.1952      Y:   -10.5766      Z:   -10.4007

  Electronic Dipole Moment: [e a0]
     X:     3.0740      Y:    10.7310      Z:    10.9195

  Dipole Moment: [e a0]
     X:    -0.1212      Y:     0.1543      Z:     0.5188     Total:     0.5546

  Dipole Moment: [D]
     X:    -0.3080      Y:     0.3923      Z:     1.3185     Total:     1.4097

*** tstop() called on ds3 at Tue Apr 28 12:01:50 2020
Module time:
	user time   =      80.55 seconds =       1.34 minutes
	system time =      38.57 seconds =       0.64 minutes
	total time  =        113 seconds =       1.88 minutes
Total time:
	user time   =      80.55 seconds =       1.34 minutes
	system time =      38.57 seconds =       0.64 minutes
	total time  =        113 seconds =       1.88 minutes
                                     G D M A

                                 by Anthony Stone

                           version 2.2.06, 22 June 2011

               Distributed Multipoles from Gaussian wavefunctions

Starting at 12:1:50 on 28 Apr 2020

Using SCF density matrix from file ./SSI/SSI-150LEU-154TYR-1-dimer.test.28285.fchk

                         Distributed Multipole Analysis

Standard DMA

Positions and radii in angstrom
Multipole moments in atomic units, ea_0^k for rank k

C          x = -0.046948  y = -0.962041  z = -3.743003 angstrom
           Maximum rank =  0   Radius =  0.650 angstrom
                   Q00  =  -0.238372

C          x = -0.906948  y = -2.132041  z = -4.201003 angstrom
           Maximum rank =  0   Radius =  0.650 angstrom
                   Q00  =  -0.229837

H          x =  0.976052  y = -1.266041  z = -3.541003 angstrom
           Maximum rank =  0   Radius =  0.325 angstrom
                   Q00  =   0.080725

H          x = -0.020948  y = -0.210041  z = -4.530003 angstrom
           Maximum rank =  0   Radius =  0.325 angstrom
                   Q00  =   0.080552

H          x = -0.510948  y = -0.527041  z = -2.866003 angstrom
           Maximum rank =  0   Radius =  0.325 angstrom
                   Q00  =   0.076329

H          x = -0.473948  y = -2.527041  z = -5.117003 angstrom
           Maximum rank =  0   Radius =  0.325 angstrom
                   Q00  =   0.078269

H          x = -0.960378  y = -2.916842  z = -3.432083 angstrom
           Maximum rank =  0   Radius =  0.325 angstrom
                   Q00  =   0.076053

H          x = -1.934258  y = -1.797298  z = -4.407333 angstrom
           Maximum rank =  0   Radius =  0.325 angstrom
                   Q00  =   0.079405

C          x = -0.434948  y = -2.109041  z =  2.479997 angstrom
           Maximum rank =  0   Radius =  0.650 angstrom
                   Q00  =  -0.196726

C          x =  0.269052  y =  0.443959  z = -0.265003 angstrom
           Maximum rank =  0   Radius =  0.650 angstrom
                   Q00  =  -0.130500

C          x =  0.453052  y =  1.603959  z =  0.449997 angstrom
           Maximum rank =  0   Radius =  0.650 angstrom
                   Q00  =   0.309729

C          x = -0.019948  y = -0.747041  z =  0.380997 angstrom
           Maximum rank =  0   Radius =  0.650 angstrom
                   Q00  =   0.035115

C          x = -0.168948  y = -0.804041  z =  1.761997 angstrom
           Maximum rank =  0   Radius =  0.650 angstrom
                   Q00  =  -0.143753

C          x =  0.233052  y =  1.566959  z =  1.817997 angstrom
           Maximum rank =  0   Radius =  0.650 angstrom
                   Q00  =  -0.101397

C          x = -0.063948  y =  0.383959  z =  2.466997 angstrom
           Maximum rank =  0   Radius =  0.650 angstrom
                   Q00  =  -0.054105

O          x =  0.730052  y =  2.778959  z = -0.163003 angstrom
           Maximum rank =  0   Radius =  0.650 angstrom
                   Q00  =  -0.686917

H          x =  0.410052  y =  0.482959  z = -1.327003 angstrom
           Maximum rank =  0   Radius =  0.325 angstrom
                   Q00  =   0.072667

H          x = -0.119948  y = -1.652041  z = -0.201003 angstrom
           Maximum rank =  0   Radius =  0.325 angstrom
                   Q00  =   0.059414

H          x =  0.329052  y =  2.470959  z =  2.399997 angstrom
           Maximum rank =  0   Radius =  0.325 angstrom
                   Q00  =   0.066645

H          x =  0.642052  y =  3.538959  z =  0.413997 angstrom
           Maximum rank =  0   Radius =  0.325 angstrom
                   Q00  =   0.406559

H          x = -0.911948  y = -2.810041  z =  1.793997 angstrom
           Maximum rank =  0   Radius =  0.325 angstrom
                   Q00  =   0.097875

H          x = -1.124948  y = -1.920041  z =  3.303997 angstrom
           Maximum rank =  0   Radius =  0.325 angstrom
                   Q00  =   0.096007

H          x = -0.202948  y =  0.388959  z =  3.539997 angstrom
           Maximum rank =  0   Radius =  0.325 angstrom
                   Q00  =   0.064951

H          x =  0.490982  y = -2.551752  z =  2.875807 angstrom
           Maximum rank =  0   Radius =  0.325 angstrom
                   Q00  =   0.101312

Total multipoles referred to origin at
           x =   0.000000,  y =    0.000000,  z =    0.000000 angstrom
                   Q00  =  -0.000000

Finished at 12:1:50 on 28 Apr 2020

  DMA results are available in the Python driver through the
	  variable('DMA DISTRIBUTED MULTIPOLES')
  and
	  variable('DMA TOTAL MULTIPOLES')
  commands.

    Psi4 stopped on: Tuesday, 28 April 2020 12:01PM
    Psi4 wall time for execution: 0:01:53.48

*** Psi4 exiting successfully. Buy a developer a beer!
