                               Psi4 1.3.2 release

  ==> Input File <==

--------------------------------------------------------------------------
import numpy as np
set {scf_type pk
basis cc-pvdz
d_convergence 10
gdma_switch   0
gdma_limit    0
gdma_origin   [ 0.0,  0.0,  0.0 ]
}
molecule test {
    units Angstrom
    0 1
    --
    0 1
    C                0.309640946585508    -2.205796576825799    -1.263437746911698
    C               -0.491359053414492    -2.895796576825799    -0.169437746911698
    H                0.614640946585508    -2.930796576825799    -2.018437746911698
    H               -0.305359053414492    -1.443796576825799    -1.746437746911698
    H                1.192640946585508    -1.729796576825799    -0.837437746911698
    H               -0.889359053414492    -2.113796576825799     0.480562253088302
    H                0.140030946585508    -3.559784176825799     0.439217553088302
    H               -1.349539053414492    -3.423129676825799    -0.611530646911698
    C               -0.045359053414492     1.218203423174201     0.246562253088302
    C               -0.191359053414492     1.518203423174201     1.736562253088302
    C                0.412640946585508     2.441203423174201    -0.540437746911698
    H                0.710640946585508     0.438203423174201     0.136562253088302
    H               -0.989359053414492     0.839203423174201    -0.153437746911698
    H                0.704640946585508     2.034203423174201     2.084562253088302
    H               -0.263359053414492     0.568203423174201     2.268562253088302
    H               -0.316359053414492     3.245203423174201    -0.395437746911698
    H                1.359640946585508     2.787203423174201    -0.108437746911698
    H               -1.090669053414492     2.109491423174201     1.963756253088302
    H                0.550770946585508     2.274265423174201    -1.618886746911698

}
e, wfn = energy('scf', return_wfn=True)
gdma(wfn)
dmavals = variable('DMA DISTRIBUTED MULTIPOLES')
charges = np.array(dmavals)
print(charges)
np.save('SSI-034ALA-133LYS-1-dimer.npy', np.array(charges))--------------------------------------------------------------------------

*** tstart() called on ds3
*** at Tue Apr 28 09:30:21 2020

   => Loading Basis Set <=

    Name: CC-PVDZ
    Role: ORBITAL
    Keyword: BASIS
    atoms 1-2, 9-11  entry C          line   138 file /theoryfs2/ds/metcalf/miniconda2/envs/tf2gpu/share/psi4/basis/cc-pvdz.gbs
    atoms 3-8, 12-19 entry H          line    22 file /theoryfs2/ds/metcalf/miniconda2/envs/tf2gpu/share/psi4/basis/cc-pvdz.gbs

         ---------------------------------------------------------
                                   SCF
               by Justin Turney, Rob Parrish, Andy Simmonett
                          and Daniel G. A. Smith
                              RHF Reference
                        1 Threads,    500 MiB Core
         ---------------------------------------------------------

  ==> Geometry <==

    Molecular point group: c1
    Full point group: C1

    Geometry (in Angstrom), charge = 0, multiplicity = 1:

       Center              X                  Y                   Z               Mass
    ------------   -----------------  -----------------  -----------------  -----------------
         C            0.309640946586    -2.205796576826    -1.263437746912    12.000000000000
         C           -0.491359053414    -2.895796576826    -0.169437746912    12.000000000000
         H            0.614640946586    -2.930796576826    -2.018437746912     1.007825032230
         H           -0.305359053414    -1.443796576826    -1.746437746912     1.007825032230
         H            1.192640946586    -1.729796576826    -0.837437746912     1.007825032230
         H           -0.889359053414    -2.113796576826     0.480562253088     1.007825032230
         H            0.140030946586    -3.559784176826     0.439217553088     1.007825032230
         H           -1.349539053414    -3.423129676826    -0.611530646912     1.007825032230
         C           -0.045359053414     1.218203423174     0.246562253088    12.000000000000
         C           -0.191359053414     1.518203423174     1.736562253088    12.000000000000
         C            0.412640946586     2.441203423174    -0.540437746912    12.000000000000
         H            0.710640946586     0.438203423174     0.136562253088     1.007825032230
         H           -0.989359053414     0.839203423174    -0.153437746912     1.007825032230
         H            0.704640946586     2.034203423174     2.084562253088     1.007825032230
         H           -0.263359053414     0.568203423174     2.268562253088     1.007825032230
         H           -0.316359053414     3.245203423174    -0.395437746912     1.007825032230
         H            1.359640946586     2.787203423174    -0.108437746912     1.007825032230
         H           -1.090669053414     2.109491423174     1.963756253088     1.007825032230
         H            0.550770946586     2.274265423174    -1.618886746912     1.007825032230

  Running in c1 symmetry.

  Rotational constants: A =      0.20498  B =      0.04420  C =      0.03794 [cm^-1]
  Rotational constants: A =   6145.23024  B =   1325.21667  C =   1137.40501 [MHz]
  Nuclear repulsion =  179.185125297112933

  Charge       = 0
  Multiplicity = 1
  Electrons    = 44
  Nalpha       = 22
  Nbeta        = 22

  ==> Algorithm <==

  SCF Algorithm Type is PK.
  DIIS enabled.
  MOM disabled.
  Fractional occupation disabled.
  Guess Type is SAD.
  Energy threshold   = 1.00e-06
  Density threshold  = 1.00e-10
  Integral threshold = 0.00e+00

  ==> Primary Basis <==

  Basis Set: CC-PVDZ
    Blend: CC-PVDZ
    Number of shells: 72
    Number of basis function: 140
    Number of Cartesian functions: 145
    Spherical Harmonics?: true
    Max angular momentum: 2

  ==> Pre-Iterations <==

   -------------------------------------------------------
    Irrep   Nso     Nmo     Nalpha   Nbeta   Ndocc  Nsocc
   -------------------------------------------------------
     A        140     140       0       0       0       0
   -------------------------------------------------------
    Total     140     140      22      22      22       0
   -------------------------------------------------------

  ==> Integral Setup <==

  Using integral reordering PK algorithm.
  Sizing the integral batches needed.
  Building batch lookup table.
   Calculation information:
      Number of atoms:                  19
      Number of AO shells:              72
      Number of primitives:            180
      Number of atomic orbitals:       145
      Number of basis functions:       140

      Integral cutoff                 1.00e-12
      Number of threads:                 1

	Batch   1 pq = [       0,    9405] index = [             0,44231715] size =     44231715
	Batch   2 pq = [    9405,    9870] index = [      44231715,48713385] size =      4481670
  Task number: 5
  Buffer size: 11059200
  Buffer per thread: 2
  We computed 2946505 shell quartets total.
  Whereas there are 3454506 unique shell quartets.

  ==> DiskJK: Disk-Based J/K Matrices <==

    J tasked:                  Yes
    K tasked:                  Yes
    wK tasked:                  No
    Memory [MiB]:              375
    Schwarz Cutoff:          1E-12

    OpenMP threads:              1

  Minimum eigenvalue in the overlap matrix is 5.3510877843E-03.
  Using Symmetric Orthogonalization.

  SCF Guess: Superposition of Atomic Densities via on-the-fly atomic UHF.

  ==> Iterations <==

                        Total Energy        Delta E     RMS |[F,P]|

   @RHF iter SAD:  -196.37670206811191   -1.96377e+02   0.00000e+00
   @RHF iter   1:  -197.31007969607762   -9.33378e-01   3.81710e-03 DIIS
   @RHF iter   2:  -197.47089014904969   -1.60810e-01   1.65644e-03 DIIS
   @RHF iter   3:  -197.49981939426806   -2.89292e-02   3.26905e-04 DIIS
   @RHF iter   4:  -197.50205692364796   -2.23753e-03   4.94845e-05 DIIS
   @RHF iter   5:  -197.50209637425871   -3.94506e-05   1.51393e-05 DIIS
   @RHF iter   6:  -197.50209984834993   -3.47409e-06   2.36335e-06 DIIS
   @RHF iter   7:  -197.50209995168635   -1.03336e-07   4.58121e-07 DIIS
   @RHF iter   8:  -197.50209995595054   -4.26419e-09   1.23213e-07 DIIS
   @RHF iter   9:  -197.50209995624942   -2.98883e-10   3.79925e-08 DIIS
   @RHF iter  10:  -197.50209995628293   -3.35092e-11   8.44462e-09 DIIS
   @RHF iter  11:  -197.50209995628535   -2.41585e-12   1.58770e-09 DIIS
   @RHF iter  12:  -197.50209995628526    8.52651e-14   3.10050e-10 DIIS
   @RHF iter  13:  -197.50209995628535   -8.52651e-14   5.87211e-11 DIIS
  Energy and wave function converged.

  ==> Post-Iterations <==

    Orbital Energies [Eh]
    ---------------------

    Doubly Occupied:

       1A    -11.219984     2A    -11.218893     3A    -11.217060
       4A    -11.216780     5A    -11.216108     6A     -1.055033
       7A     -1.020005     8A     -0.923318     9A     -0.835209
      10A     -0.796775    11A     -0.627196    12A     -0.602457
      13A     -0.600540    14A     -0.592320    15A     -0.545710
      16A     -0.529948    17A     -0.501250    18A     -0.488955
      19A     -0.481654    20A     -0.473907    21A     -0.471174
      22A     -0.463781

    Virtual:

      23A      0.166543    24A      0.196827    25A      0.210454
      26A      0.220156    27A      0.235204    28A      0.249898
      29A      0.253636    30A      0.262883    31A      0.273092
      32A      0.280969    33A      0.297731    34A      0.309798
      35A      0.333459    36A      0.352723    37A      0.381020
      38A      0.399162    39A      0.430985    40A      0.564884
      41A      0.582284    42A      0.596545    43A      0.603025
      44A      0.609218    45A      0.613103    46A      0.619335
      47A      0.663851    48A      0.693576    49A      0.771753
      50A      0.806081    51A      0.815718    52A      0.844084
      53A      0.860988    54A      0.878076    55A      0.887904
      56A      0.890061    57A      0.893102    58A      0.896190
      59A      0.902731    60A      0.903781    61A      0.910270
      62A      0.914162    63A      0.933249    64A      0.944996
      65A      0.956241    66A      0.974705    67A      0.990109
      68A      1.011914    69A      1.124030    70A      1.124398
      71A      1.131675    72A      1.149877    73A      1.208442
      74A      1.249149    75A      1.376900    76A      1.460009
      77A      1.470706    78A      1.483663    79A      1.487602
      80A      1.550117    81A      1.565488    82A      1.635177
      83A      1.671275    84A      1.681254    85A      1.690480
      86A      1.703663    87A      1.714988    88A      1.851322
      89A      1.851616    90A      1.874455    91A      1.882415
      92A      1.890059    93A      1.902245    94A      1.910145
      95A      1.922386    96A      1.939429    97A      1.941771
      98A      1.949245    99A      1.956920   100A      1.964720
     101A      1.974155   102A      1.978923   103A      1.987543
     104A      1.998212   105A      2.012952   106A      2.028667
     107A      2.048273   108A      2.113732   109A      2.128312
     110A      2.135372   111A      2.155425   112A      2.290075
     113A      2.294647   114A      2.305278   115A      2.317283
     116A      2.329469   117A      2.343009   118A      2.448317
     119A      2.464411   120A      2.490670   121A      2.532707
     122A      2.563738   123A      2.575568   124A      2.581140
     125A      2.608642   126A      2.630156   127A      2.752045
     128A      2.764440   129A      2.764876   130A      2.778449
     131A      2.792859   132A      2.823004   133A      2.847832
     134A      2.862494   135A      2.905011   136A      2.944311
     137A      2.960201   138A      2.964160   139A      2.980742
     140A      3.070797

    Final Occupation by Irrep:
              A
    DOCC [    22 ]

  @RHF Final Energy:  -197.50209995628535

   => Energetics <=

    Nuclear Repulsion Energy =            179.1851252971129327
    One-Electron Energy =                -619.1783351480264628
    Two-Electron Energy =                 242.4911098946282095
    Total Energy =                       -197.5020999562853490

Computation Completed

Properties will be evaluated at   0.000000,   0.000000,   0.000000 [a0]

Properties computed using the SCF density matrix

  Nuclear Dipole Moment: [e a0]
     X:     0.0647      Y:    -0.8485      Z:    -0.1095

  Electronic Dipole Moment: [e a0]
     X:    -0.0648      Y:     0.8284      Z:     0.1048

  Dipole Moment: [e a0]
     X:    -0.0002      Y:    -0.0202      Z:    -0.0047     Total:     0.0207

  Dipole Moment: [D]
     X:    -0.0004      Y:    -0.0513      Z:    -0.0120     Total:     0.0527

*** tstop() called on ds3 at Tue Apr 28 09:30:46 2020
Module time:
	user time   =      15.35 seconds =       0.26 minutes
	system time =       6.27 seconds =       0.10 minutes
	total time  =         25 seconds =       0.42 minutes
Total time:
	user time   =      15.35 seconds =       0.26 minutes
	system time =       6.27 seconds =       0.10 minutes
	total time  =         25 seconds =       0.42 minutes
                                     G D M A

                                 by Anthony Stone

                           version 2.2.06, 22 June 2011

               Distributed Multipoles from Gaussian wavefunctions

Starting at 9:30:46 on 28 Apr 2020

Using SCF density matrix from file ./SSI/SSI-034ALA-133LYS-1-dimer.test.10643.fchk

                         Distributed Multipole Analysis

Standard DMA

Positions and radii in angstrom
Multipole moments in atomic units, ea_0^k for rank k

C          x =  0.309641  y = -2.205797  z = -1.263438 angstrom
           Maximum rank =  0   Radius =  0.650 angstrom
                   Q00  =  -0.236677

C          x = -0.491359  y = -2.895797  z = -0.169438 angstrom
           Maximum rank =  0   Radius =  0.650 angstrom
                   Q00  =  -0.231630

H          x =  0.614641  y = -2.930797  z = -2.018438 angstrom
           Maximum rank =  0   Radius =  0.325 angstrom
                   Q00  =   0.076378

H          x = -0.305359  y = -1.443797  z = -1.746438 angstrom
           Maximum rank =  0   Radius =  0.325 angstrom
                   Q00  =   0.079163

H          x =  1.192641  y = -1.729797  z = -0.837438 angstrom
           Maximum rank =  0   Radius =  0.325 angstrom
                   Q00  =   0.078968

H          x = -0.889359  y = -2.113797  z =  0.480562 angstrom
           Maximum rank =  0   Radius =  0.325 angstrom
                   Q00  =   0.075089

H          x =  0.140031  y = -3.559784  z =  0.439218 angstrom
           Maximum rank =  0   Radius =  0.325 angstrom
                   Q00  =   0.080613

H          x = -1.349539  y = -3.423130  z = -0.611531 angstrom
           Maximum rank =  0   Radius =  0.325 angstrom
                   Q00  =   0.078921

C          x = -0.045359  y =  1.218203  z =  0.246562 angstrom
           Maximum rank =  0   Radius =  0.650 angstrom
                   Q00  =  -0.086009

C          x = -0.191359  y =  1.518203  z =  1.736562 angstrom
           Maximum rank =  0   Radius =  0.650 angstrom
                   Q00  =  -0.232485

C          x =  0.412641  y =  2.441203  z = -0.540438 angstrom
           Maximum rank =  0   Radius =  0.650 angstrom
                   Q00  =  -0.247714

H          x =  0.710641  y =  0.438203  z =  0.136562 angstrom
           Maximum rank =  0   Radius =  0.325 angstrom
                   Q00  =   0.045772

H          x = -0.989359  y =  0.839203  z = -0.153438 angstrom
           Maximum rank =  0   Radius =  0.325 angstrom
                   Q00  =   0.048660

H          x =  0.704641  y =  2.034203  z =  2.084562 angstrom
           Maximum rank =  0   Radius =  0.325 angstrom
                   Q00  =   0.076383

H          x = -0.263359  y =  0.568203  z =  2.268562 angstrom
           Maximum rank =  0   Radius =  0.325 angstrom
                   Q00  =   0.081280

H          x = -0.316359  y =  3.245203  z = -0.395438 angstrom
           Maximum rank =  0   Radius =  0.325 angstrom
                   Q00  =   0.072502

H          x =  1.359641  y =  2.787203  z = -0.108438 angstrom
           Maximum rank =  0   Radius =  0.325 angstrom
                   Q00  =   0.072650

H          x = -1.090669  y =  2.109491  z =  1.963756 angstrom
           Maximum rank =  0   Radius =  0.325 angstrom
                   Q00  =   0.081083

H          x =  0.550771  y =  2.274265  z = -1.618887 angstrom
           Maximum rank =  0   Radius =  0.325 angstrom
                   Q00  =   0.087053

Total multipoles referred to origin at
           x =   0.000000,  y =    0.000000,  z =    0.000000 angstrom
                   Q00  =  -0.000000

Finished at 9:30:46 on 28 Apr 2020

  DMA results are available in the Python driver through the
	  variable('DMA DISTRIBUTED MULTIPOLES')
  and
	  variable('DMA TOTAL MULTIPOLES')
  commands.

    Psi4 stopped on: Tuesday, 28 April 2020 09:30AM
    Psi4 wall time for execution: 0:00:24.72

*** Psi4 exiting successfully. Buy a developer a beer!
