                               Psi4 1.3.2 release

  ==> Input File <==

--------------------------------------------------------------------------
import numpy as np
set {scf_type pk
basis cc-pvdz
d_convergence 10
gdma_switch   0
gdma_limit    0
gdma_origin   [ 0.0,  0.0,  0.0 ]
}
molecule test {
    units Angstrom
    0 1
    --
    0 1
    C                1.022159268437050    -3.222632717811963    -0.130291226210300
    C                2.482159268437050    -2.753632717811963    -0.366291226210300
    H                1.022159268437050    -4.134632717811964     0.467708773789700
    H                0.498159268437050    -2.463632717811963     0.429708773789700
    H                0.512159268437050    -3.405632717811964    -1.076291226210300
    H                2.820159268437050    -2.307632717811963     0.569708773789700
    H                3.204839268437050    -3.540232717811963    -0.628961226210300
    H                2.452729268437050    -1.958352717811964    -1.125681226210300
    C                0.817159268437050     3.035367282188036     1.470708773789700
    C               -1.096840731562950    -0.209632717811964    -0.610291226210300
    C               -0.760840731562950    -0.297632717811964     0.742708773789700
    C               -0.792840731562950     0.977367282188036    -1.266291226210300
    C               -0.201840731562950     0.770367282188036     1.430708773789700
    C               -0.194840731562950     2.022367282188036    -0.592291226210300
    C                0.128159268437050     1.918367282188036     0.760708773789700
    O               -1.669840731562950    -1.274632717811964    -1.281291226210300
    H               -1.009840731562950    -1.192632717811964     1.294708773789700
    H               -1.783840731562950    -2.045632717811964    -0.715291226210300
    H               -1.023840731562950     1.072367282188037    -2.317291226210300
    H                0.020159268437050     0.674367282188036     2.486708773789700
    H                0.037159268437050     2.932367282188037    -1.129291226210300
    H                1.479159268437050     3.530367282188037     0.769708773789700
    H                1.441159268437050     2.616367282188037     2.262708773789699
    H                0.132729268437050     3.776957282188037     1.908428773789700

}
e, wfn = energy('scf', return_wfn=True)
gdma(wfn)
dmavals = variable('DMA DISTRIBUTED MULTIPOLES')
charges = np.array(dmavals)
print(charges)
np.save('SSI-015VAL-060TYR-1-dimer.npy', np.array(charges))--------------------------------------------------------------------------

*** tstart() called on ds3
*** at Tue Apr 28 00:11:55 2020

   => Loading Basis Set <=

    Name: CC-PVDZ
    Role: ORBITAL
    Keyword: BASIS
    atoms 1-2, 9-15  entry C          line   138 file /theoryfs2/ds/metcalf/miniconda2/envs/tf2gpu/share/psi4/basis/cc-pvdz.gbs
    atoms 3-8, 17-24 entry H          line    22 file /theoryfs2/ds/metcalf/miniconda2/envs/tf2gpu/share/psi4/basis/cc-pvdz.gbs
    atoms 16         entry O          line   198 file /theoryfs2/ds/metcalf/miniconda2/envs/tf2gpu/share/psi4/basis/cc-pvdz.gbs

         ---------------------------------------------------------
                                   SCF
               by Justin Turney, Rob Parrish, Andy Simmonett
                          and Daniel G. A. Smith
                              RHF Reference
                        1 Threads,    500 MiB Core
         ---------------------------------------------------------

  ==> Geometry <==

    Molecular point group: c1
    Full point group: C1

    Geometry (in Angstrom), charge = 0, multiplicity = 1:

       Center              X                  Y                   Z               Mass
    ------------   -----------------  -----------------  -----------------  -----------------
         C            1.022159268437    -3.222632717812    -0.130291226210    12.000000000000
         C            2.482159268437    -2.753632717812    -0.366291226210    12.000000000000
         H            1.022159268437    -4.134632717812     0.467708773790     1.007825032230
         H            0.498159268437    -2.463632717812     0.429708773790     1.007825032230
         H            0.512159268437    -3.405632717812    -1.076291226210     1.007825032230
         H            2.820159268437    -2.307632717812     0.569708773790     1.007825032230
         H            3.204839268437    -3.540232717812    -0.628961226210     1.007825032230
         H            2.452729268437    -1.958352717812    -1.125681226210     1.007825032230
         C            0.817159268437     3.035367282188     1.470708773790    12.000000000000
         C           -1.096840731563    -0.209632717812    -0.610291226210    12.000000000000
         C           -0.760840731563    -0.297632717812     0.742708773790    12.000000000000
         C           -0.792840731563     0.977367282188    -1.266291226210    12.000000000000
         C           -0.201840731563     0.770367282188     1.430708773790    12.000000000000
         C           -0.194840731563     2.022367282188    -0.592291226210    12.000000000000
         C            0.128159268437     1.918367282188     0.760708773790    12.000000000000
         O           -1.669840731563    -1.274632717812    -1.281291226210    15.994914619570
         H           -1.009840731563    -1.192632717812     1.294708773790     1.007825032230
         H           -1.783840731563    -2.045632717812    -0.715291226210     1.007825032230
         H           -1.023840731563     1.072367282188    -2.317291226210     1.007825032230
         H            0.020159268437     0.674367282188     2.486708773790     1.007825032230
         H            0.037159268437     2.932367282188    -1.129291226210     1.007825032230
         H            1.479159268437     3.530367282188     0.769708773790     1.007825032230
         H            1.441159268437     2.616367282188     2.262708773790     1.007825032230
         H            0.132729268437     3.776957282188     1.908428773790     1.007825032230

  Running in c1 symmetry.

  Rotational constants: A =      0.05375  B =      0.02445  C =      0.01989 [cm^-1]
  Rotational constants: A =   1611.36677  B =    733.08113  C =    596.37480 [MHz]
  Nuclear repulsion =  503.052004848337901

  Charge       = 0
  Multiplicity = 1
  Electrons    = 76
  Nalpha       = 38
  Nbeta        = 38

  ==> Algorithm <==

  SCF Algorithm Type is PK.
  DIIS enabled.
  MOM disabled.
  Fractional occupation disabled.
  Guess Type is SAD.
  Energy threshold   = 1.00e-06
  Density threshold  = 1.00e-10
  Integral threshold = 0.00e+00

  ==> Primary Basis <==

  Basis Set: CC-PVDZ
    Blend: CC-PVDZ
    Number of shells: 102
    Number of basis function: 210
    Number of Cartesian functions: 220
    Spherical Harmonics?: true
    Max angular momentum: 2

  ==> Pre-Iterations <==

   -------------------------------------------------------
    Irrep   Nso     Nmo     Nalpha   Nbeta   Ndocc  Nsocc
   -------------------------------------------------------
     A        210     210       0       0       0       0
   -------------------------------------------------------
    Total     210     210      38      38      38       0
   -------------------------------------------------------

  ==> Integral Setup <==

  Using integral reordering PK algorithm.
  Sizing the integral batches needed.
  Building batch lookup table.
   Calculation information:
      Number of atoms:                  24
      Number of AO shells:             102
      Number of primitives:            290
      Number of atomic orbitals:       220
      Number of basis functions:       210

      Integral cutoff                 1.00e-12
      Number of threads:                 1

	Batch   1 pq = [       0,    9405] index = [             0,44231715] size =     44231715
	Batch   2 pq = [    9405,   13301] index = [      44231715,88464951] size =     44233236
	Batch   3 pq = [   13301,   16290] index = [      88464951,132690195] size =     44225244
	Batch   4 pq = [   16290,   18810] index = [     132690195,176917455] size =     44227260
	Batch   5 pq = [   18810,   21030] index = [     176917455,221140965] size =     44223510
	Batch   6 pq = [   21030,   22155] index = [     221140965,245433090] size =     24292125
  Task number: 23
  Buffer size: 11059200
  Buffer per thread: 2
  We computed 12343307 shell quartets total.
  Whereas there are 13799631 unique shell quartets.

  ==> DiskJK: Disk-Based J/K Matrices <==

    J tasked:                  Yes
    K tasked:                  Yes
    wK tasked:                  No
    Memory [MiB]:              375
    Schwarz Cutoff:          1E-12

    OpenMP threads:              1

  Minimum eigenvalue in the overlap matrix is 3.2587451597E-04.
  Using Symmetric Orthogonalization.

  SCF Guess: Superposition of Atomic Densities via on-the-fly atomic UHF.

  ==> Iterations <==

                        Total Energy        Delta E     RMS |[F,P]|

   @RHF iter SAD:  -422.74270604755537   -4.22743e+02   0.00000e+00
   @RHF iter   1:  -423.59326917267447   -8.50563e-01   2.99735e-03 DIIS
   @RHF iter   2:  -423.80990696023906   -2.16638e-01   1.28991e-03 DIIS
   @RHF iter   3:  -423.84658150350089   -3.66745e-02   2.94050e-04 DIIS
   @RHF iter   4:  -423.84955364108174   -2.97214e-03   1.26709e-04 DIIS
   @RHF iter   5:  -423.84996893644143   -4.15295e-04   2.07616e-05 DIIS
   @RHF iter   6:  -423.84998720267049   -1.82662e-05   6.45036e-06 DIIS
   @RHF iter   7:  -423.84998893359716   -1.73093e-06   2.01860e-06 DIIS
   @RHF iter   8:  -423.84998916090717   -2.27310e-07   7.91385e-07 DIIS
   @RHF iter   9:  -423.84998919366274   -3.27556e-08   2.80856e-07 DIIS
   @RHF iter  10:  -423.84998919954216   -5.87943e-09   1.15502e-07 DIIS
   @RHF iter  11:  -423.84998920112849   -1.58633e-09   5.47925e-08 DIIS
   @RHF iter  12:  -423.84998920146325   -3.34751e-10   2.28935e-08 DIIS
   @RHF iter  13:  -423.84998920153095   -6.77005e-11   8.12650e-09 DIIS
   @RHF iter  14:  -423.84998920153419   -3.24007e-12   2.44817e-09 DIIS
   @RHF iter  15:  -423.84998920153441   -2.27374e-13   6.90868e-10 DIIS
   @RHF iter  16:  -423.84998920153453   -1.13687e-13   3.03185e-10 DIIS
   @RHF iter  17:  -423.84998920153464   -1.13687e-13   1.50564e-10 DIIS
   @RHF iter  18:  -423.84998920153595   -1.30740e-12   7.00289e-11 DIIS
  Energy and wave function converged.

  ==> Post-Iterations <==

    Orbital Energies [Eh]
    ---------------------

    Doubly Occupied:

       1A    -20.584864     2A    -11.301130     3A    -11.236346
       4A    -11.235367     5A    -11.233353     6A    -11.231402
       7A    -11.230622     8A    -11.226508     9A    -11.218014
      10A    -11.216021    11A     -1.391328    12A     -1.157548
      13A     -1.043304    14A     -1.020068    15A     -1.011434
      16A     -0.929371    17A     -0.845882    18A     -0.836945
      19A     -0.803050    20A     -0.731717    21A     -0.670048
      22A     -0.641860    23A     -0.610479    24A     -0.597961
      25A     -0.595235    26A     -0.585573    27A     -0.581660
      28A     -0.570569    29A     -0.567667    30A     -0.528227
      31A     -0.504301    32A     -0.495871    33A     -0.485294
      34A     -0.482889    35A     -0.480587    36A     -0.469833
      37A     -0.340267    38A     -0.304939

    Virtual:

      39A      0.130922    40A      0.153083    41A      0.177000
      42A      0.185476    43A      0.199907    44A      0.215659
      45A      0.217198    46A      0.249576    47A      0.255682
      48A      0.259454    49A      0.266625    50A      0.276286
      51A      0.279857    52A      0.291096    53A      0.295741
      54A      0.344644    55A      0.370391    56A      0.387222
      57A      0.397681    58A      0.431336    59A      0.454364
      60A      0.480910    61A      0.499973    62A      0.505026
      63A      0.577622    64A      0.592382    65A      0.602003
      66A      0.619416    67A      0.637775    68A      0.648442
      69A      0.667039    70A      0.672454    71A      0.683566
      72A      0.697805    73A      0.709149    74A      0.719328
      75A      0.730006    76A      0.746469    77A      0.760161
      78A      0.777073    79A      0.779214    80A      0.788339
      81A      0.820777    82A      0.832106    83A      0.843749
      84A      0.858410    85A      0.875939    86A      0.876751
      87A      0.883734    88A      0.891581    89A      0.896192
      90A      0.899374    91A      0.909600    92A      0.919918
      93A      0.928471    94A      0.933918    95A      0.940300
      96A      0.941336    97A      0.958615    98A      0.964433
      99A      1.000429   100A      1.020637   101A      1.032837
     102A      1.080984   103A      1.116904   104A      1.126771
     105A      1.131731   106A      1.145165   107A      1.163180
     108A      1.175494   109A      1.196270   110A      1.237812
     111A      1.254348   112A      1.266048   113A      1.299395
     114A      1.304310   115A      1.314454   116A      1.323165
     117A      1.345183   118A      1.354331   119A      1.367217
     120A      1.388692   121A      1.463463   122A      1.485857
     123A      1.491717   124A      1.504981   125A      1.535208
     126A      1.557414   127A      1.602641   128A      1.614852
     129A      1.628256   130A      1.681429   131A      1.689195
     132A      1.699355   133A      1.706702   134A      1.727889
     135A      1.763954   136A      1.788938   137A      1.802107
     138A      1.814875   139A      1.844133   140A      1.862498
     141A      1.878197   142A      1.888650   143A      1.899628
     144A      1.905701   145A      1.919949   146A      1.922118
     147A      1.933380   148A      1.935168   149A      1.943175
     150A      1.947809   151A      1.967809   152A      1.971873
     153A      1.978697   154A      1.980246   155A      1.989251
     156A      2.010021   157A      2.046494   158A      2.055360
     159A      2.064117   160A      2.076366   161A      2.079820
     162A      2.108392   163A      2.150867   164A      2.154012
     165A      2.157904   166A      2.185346   167A      2.213733
     168A      2.235873   169A      2.272140   170A      2.281026
     171A      2.297209   172A      2.302010   173A      2.303508
     174A      2.330577   175A      2.391451   176A      2.430575
     177A      2.437700   178A      2.457748   179A      2.462784
     180A      2.477293   181A      2.493825   182A      2.542701
     183A      2.552323   184A      2.576276   185A      2.605335
     186A      2.611605   187A      2.635229   188A      2.753125
     189A      2.764998   190A      2.773269   191A      2.802019
     192A      2.813551   193A      2.816826   194A      2.834864
     195A      2.853762   196A      2.869201   197A      2.914753
     198A      2.947809   199A      2.966449   200A      2.979983
     201A      3.012362   202A      3.092408   203A      3.125870
     204A      3.240632   205A      3.305184   206A      3.342739
     207A      3.557718   208A      3.662854   209A      3.970418
     210A      4.189875

    Final Occupation by Irrep:
              A
    DOCC [    38 ]

  @RHF Final Energy:  -423.84998920153595

   => Energetics <=

    Nuclear Repulsion Energy =            503.0520048483379014
    One-Electron Energy =               -1571.8089215434872585
    Two-Electron Energy =                 644.9069274936134661
    Total Energy =                       -423.8499892015358910

Computation Completed

Properties will be evaluated at   0.000000,   0.000000,   0.000000 [a0]

Properties computed using the SCF density matrix

  Nuclear Dipole Moment: [e a0]
     X:     9.1820      Y:    -6.0487      Z:     2.9905

  Electronic Dipole Moment: [e a0]
     X:    -9.0636      Y:     6.0052      Z:    -2.4472

  Dipole Moment: [e a0]
     X:     0.1184      Y:    -0.0435      Z:     0.5433     Total:     0.5578

  Dipole Moment: [D]
     X:     0.3010      Y:    -0.1105      Z:     1.3809     Total:     1.4177

*** tstop() called on ds3 at Tue Apr 28 00:15:14 2020
Module time:
	user time   =      92.72 seconds =       1.55 minutes
	system time =      35.63 seconds =       0.59 minutes
	total time  =        199 seconds =       3.32 minutes
Total time:
	user time   =      92.72 seconds =       1.55 minutes
	system time =      35.63 seconds =       0.59 minutes
	total time  =        199 seconds =       3.32 minutes
                                     G D M A

                                 by Anthony Stone

                           version 2.2.06, 22 June 2011

               Distributed Multipoles from Gaussian wavefunctions

Starting at 0:15:14 on 28 Apr 2020

Using SCF density matrix from file ./SSI/SSI-015VAL-060TYR-1-dimer.test.4941.fchk

                         Distributed Multipole Analysis

Standard DMA

Positions and radii in angstrom
Multipole moments in atomic units, ea_0^k for rank k

C          x =  1.022159  y = -3.222633  z = -0.130291 angstrom
           Maximum rank =  0   Radius =  0.650 angstrom
                   Q00  =  -0.257961

C          x =  2.482159  y = -2.753633  z = -0.366291 angstrom
           Maximum rank =  0   Radius =  0.650 angstrom
                   Q00  =  -0.242349

H          x =  1.022159  y = -4.134633  z =  0.467709 angstrom
           Maximum rank =  0   Radius =  0.325 angstrom
                   Q00  =   0.074250

H          x =  0.498159  y = -2.463633  z =  0.429709 angstrom
           Maximum rank =  0   Radius =  0.325 angstrom
                   Q00  =   0.096324

H          x =  0.512159  y = -3.405633  z = -1.076291 angstrom
           Maximum rank =  0   Radius =  0.325 angstrom
                   Q00  =   0.081102

H          x =  2.820159  y = -2.307633  z =  0.569709 angstrom
           Maximum rank =  0   Radius =  0.325 angstrom
                   Q00  =   0.080032

H          x =  3.204839  y = -3.540233  z = -0.628961 angstrom
           Maximum rank =  0   Radius =  0.325 angstrom
                   Q00  =   0.083887

H          x =  2.452729  y = -1.958353  z = -1.125681 angstrom
           Maximum rank =  0   Radius =  0.325 angstrom
                   Q00  =   0.085345

C          x =  0.817159  y =  3.035367  z =  1.470709 angstrom
           Maximum rank =  0   Radius =  0.650 angstrom
                   Q00  =  -0.198683

C          x = -1.096841  y = -0.209633  z = -0.610291 angstrom
           Maximum rank =  0   Radius =  0.650 angstrom
                   Q00  =   0.310124

C          x = -0.760841  y = -0.297633  z =  0.742709 angstrom
           Maximum rank =  0   Radius =  0.650 angstrom
                   Q00  =  -0.122236

C          x = -0.792841  y =  0.977367  z = -1.266291 angstrom
           Maximum rank =  0   Radius =  0.650 angstrom
                   Q00  =  -0.115675

C          x = -0.201841  y =  0.770367  z =  1.430709 angstrom
           Maximum rank =  0   Radius =  0.650 angstrom
                   Q00  =  -0.051706

C          x = -0.194841  y =  2.022367  z = -0.592291 angstrom
           Maximum rank =  0   Radius =  0.650 angstrom
                   Q00  =   0.019622

C          x =  0.128159  y =  1.918367  z =  0.760709 angstrom
           Maximum rank =  0   Radius =  0.650 angstrom
                   Q00  =  -0.129524

O          x = -1.669841  y = -1.274633  z = -1.281291 angstrom
           Maximum rank =  0   Radius =  0.650 angstrom
                   Q00  =  -0.696607

H          x = -1.009841  y = -1.192633  z =  1.294709 angstrom
           Maximum rank =  0   Radius =  0.325 angstrom
                   Q00  =   0.070582

H          x = -1.783841  y = -2.045633  z = -0.715291 angstrom
           Maximum rank =  0   Radius =  0.325 angstrom
                   Q00  =   0.414248

H          x = -1.023841  y =  1.072367  z = -2.317291 angstrom
           Maximum rank =  0   Radius =  0.325 angstrom
                   Q00  =   0.078645

H          x =  0.020159  y =  0.674367  z =  2.486709 angstrom
           Maximum rank =  0   Radius =  0.325 angstrom
                   Q00  =   0.067832

H          x =  0.037159  y =  2.932367  z = -1.129291 angstrom
           Maximum rank =  0   Radius =  0.325 angstrom
                   Q00  =   0.060963

H          x =  1.479159  y =  3.530367  z =  0.769709 angstrom
           Maximum rank =  0   Radius =  0.325 angstrom
                   Q00  =   0.097483

H          x =  1.441159  y =  2.616367  z =  2.262709 angstrom
           Maximum rank =  0   Radius =  0.325 angstrom
                   Q00  =   0.093835

H          x =  0.132729  y =  3.776957  z =  1.908429 angstrom
           Maximum rank =  0   Radius =  0.325 angstrom
                   Q00  =   0.100467

Total multipoles referred to origin at
           x =   0.000000,  y =    0.000000,  z =    0.000000 angstrom
                   Q00  =  -0.000000

Finished at 0:15:14 on 28 Apr 2020

  DMA results are available in the Python driver through the
	  variable('DMA DISTRIBUTED MULTIPOLES')
  and
	  variable('DMA TOTAL MULTIPOLES')
  commands.

    Psi4 stopped on: Tuesday, 28 April 2020 12:15AM
    Psi4 wall time for execution: 0:03:19.45

*** Psi4 exiting successfully. Buy a developer a beer!
