                               Psi4 1.3.2 release

  ==> Input File <==

--------------------------------------------------------------------------
import numpy as np
set {scf_type pk
basis cc-pvdz
d_convergence 10
gdma_switch   0
gdma_limit    0
gdma_origin   [ 0.0,  0.0,  0.0 ]
}
molecule test {
    units Angstrom
    -1 1
    --
    -1 1
    C               -1.213629117759821    -0.607129996150153     1.881539647803475
    C                0.071370882240179     0.213870003849847     1.815539647803475
    O                1.148370882240179    -0.369129996150153     2.063539647803475
    O                0.022370882240179     1.432870003849847     1.530539647803475
    H               -1.374629117759821    -0.892129996150153     2.922539647803475
    H               -1.095629117759821    -1.519129996150153     1.294539647803475
    H               -2.087249117759821    -0.058859996150153     1.499194647803475
    C               -0.322629117759821    -0.244129996150153    -1.871460352196525
    C                1.121370882240179    -0.588129996150153    -2.164460352196524
    C               -0.855629117759821     0.154870003849847    -3.241460352196525
    H               -0.364629117759821     0.602870003849847    -1.184460352196525
    H               -0.864629117759821    -1.098129996150153    -1.461460352196525
    H                1.727370882240179    -0.592129996150153    -1.258460352196525
    H                1.182370882240179    -1.548129996150153    -2.678460352196525
    H               -1.197629117759821    -0.729129996150153    -3.782460352196525
    H                1.412380882240179     0.225250003849847    -2.845431352196525
    H                0.024680882240179     0.578830003849847    -3.746751352196525
    H               -1.664909117759821     0.896410003849847    -3.169396352196525

}
e, wfn = energy('scf', return_wfn=True)
gdma(wfn)
dmavals = variable('DMA DISTRIBUTED MULTIPOLES')
charges = np.array(dmavals)
print(charges)
np.save('SSI-115GLU-123PRO-2-dimer.npy', np.array(charges))--------------------------------------------------------------------------

*** tstart() called on ds3
*** at Tue Apr 28 14:49:58 2020

   => Loading Basis Set <=

    Name: CC-PVDZ
    Role: ORBITAL
    Keyword: BASIS
    atoms 1-2, 8-10  entry C          line   138 file /theoryfs2/ds/metcalf/miniconda2/envs/tf2gpu/share/psi4/basis/cc-pvdz.gbs
    atoms 3-4        entry O          line   198 file /theoryfs2/ds/metcalf/miniconda2/envs/tf2gpu/share/psi4/basis/cc-pvdz.gbs
    atoms 5-7, 11-18 entry H          line    22 file /theoryfs2/ds/metcalf/miniconda2/envs/tf2gpu/share/psi4/basis/cc-pvdz.gbs

         ---------------------------------------------------------
                                   SCF
               by Justin Turney, Rob Parrish, Andy Simmonett
                          and Daniel G. A. Smith
                              RHF Reference
                        1 Threads,    500 MiB Core
         ---------------------------------------------------------

  ==> Geometry <==

    Molecular point group: c1
    Full point group: C1

    Geometry (in Angstrom), charge = -1, multiplicity = 1:

       Center              X                  Y                   Z               Mass
    ------------   -----------------  -----------------  -----------------  -----------------
         C           -1.213629117760    -0.607129996150     1.881539647803    12.000000000000
         C            0.071370882240     0.213870003850     1.815539647803    12.000000000000
         O            1.148370882240    -0.369129996150     2.063539647803    15.994914619570
         O            0.022370882240     1.432870003850     1.530539647803    15.994914619570
         H           -1.374629117760    -0.892129996150     2.922539647803     1.007825032230
         H           -1.095629117760    -1.519129996150     1.294539647803     1.007825032230
         H           -2.087249117760    -0.058859996150     1.499194647803     1.007825032230
         C           -0.322629117760    -0.244129996150    -1.871460352197    12.000000000000
         C            1.121370882240    -0.588129996150    -2.164460352197    12.000000000000
         C           -0.855629117760     0.154870003850    -3.241460352197    12.000000000000
         H           -0.364629117760     0.602870003850    -1.184460352197     1.007825032230
         H           -0.864629117760    -1.098129996150    -1.461460352197     1.007825032230
         H            1.727370882240    -0.592129996150    -1.258460352197     1.007825032230
         H            1.182370882240    -1.548129996150    -2.678460352197     1.007825032230
         H           -1.197629117760    -0.729129996150    -3.782460352197     1.007825032230
         H            1.412380882240     0.225250003850    -2.845431352197     1.007825032230
         H            0.024680882240     0.578830003850    -3.746751352197     1.007825032230
         H           -1.664909117760     0.896410003850    -3.169396352197     1.007825032230

  Running in c1 symmetry.

  Rotational constants: A =      0.12488  B =      0.03136  C =      0.02959 [cm^-1]
  Rotational constants: A =   3743.78936  B =    940.12118  C =    887.08562 [MHz]
  Nuclear repulsion =  291.891872513023941

  Charge       = -1
  Multiplicity = 1
  Electrons    = 58
  Nalpha       = 29
  Nbeta        = 29

  ==> Algorithm <==

  SCF Algorithm Type is PK.
  DIIS enabled.
  MOM disabled.
  Fractional occupation disabled.
  Guess Type is SAD.
  Energy threshold   = 1.00e-06
  Density threshold  = 1.00e-10
  Integral threshold = 0.00e+00

  ==> Primary Basis <==

  Basis Set: CC-PVDZ
    Blend: CC-PVDZ
    Number of shells: 75
    Number of basis function: 153
    Number of Cartesian functions: 160
    Spherical Harmonics?: true
    Max angular momentum: 2

  ==> Pre-Iterations <==

   -------------------------------------------------------
    Irrep   Nso     Nmo     Nalpha   Nbeta   Ndocc  Nsocc
   -------------------------------------------------------
     A        153     153       0       0       0       0
   -------------------------------------------------------
    Total     153     153      29      29      29       0
   -------------------------------------------------------

  ==> Integral Setup <==

  Using integral reordering PK algorithm.
  Sizing the integral batches needed.
  Building batch lookup table.
   Calculation information:
      Number of atoms:                  18
      Number of AO shells:              75
      Number of primitives:            209
      Number of atomic orbitals:       160
      Number of basis functions:       153

      Integral cutoff                 1.00e-12
      Number of threads:                 1

	Batch   1 pq = [       0,    9405] index = [             0,44231715] size =     44231715
	Batch   2 pq = [    9405,   11781] index = [      44231715,69401871] size =     25170156
  Task number: 7
  Buffer size: 11059200
  Buffer per thread: 2
  We computed 3551570 shell quartets total.
  Whereas there are 4062675 unique shell quartets.

  ==> DiskJK: Disk-Based J/K Matrices <==

    J tasked:                  Yes
    K tasked:                  Yes
    wK tasked:                  No
    Memory [MiB]:              375
    Schwarz Cutoff:          1E-12

    OpenMP threads:              1

  Minimum eigenvalue in the overlap matrix is 4.9542829032E-03.
  Using Symmetric Orthogonalization.

  SCF Guess: Superposition of Atomic Densities via on-the-fly atomic UHF.

  ==> Iterations <==

                        Total Energy        Delta E     RMS |[F,P]|

   @RHF iter SAD:  -343.98857804107922   -3.43989e+02   0.00000e+00
   @RHF iter   1:  -345.19470792242737   -1.20613e+00   5.00769e-03 DIIS
   @RHF iter   2:  -345.42451219898271   -2.29804e-01   2.78496e-03 DIIS
   @RHF iter   3:  -345.49286064156070   -6.83484e-02   4.23906e-04 DIIS
   @RHF iter   4:  -345.49577572730004   -2.91509e-03   1.60252e-04 DIIS
   @RHF iter   5:  -345.49617844362132   -4.02716e-04   2.44489e-05 DIIS
   @RHF iter   6:  -345.49619030203587   -1.18584e-05   6.73814e-06 DIIS
   @RHF iter   7:  -345.49619116773886   -8.65703e-07   1.75251e-06 DIIS
   @RHF iter   8:  -345.49619122700506   -5.92662e-08   6.26759e-07 DIIS
   @RHF iter   9:  -345.49619123271350   -5.70844e-09   2.39175e-07 DIIS
   @RHF iter  10:  -345.49619123372173   -1.00823e-09   5.98358e-08 DIIS
   @RHF iter  11:  -345.49619123383724   -1.15506e-10   1.84248e-08 DIIS
   @RHF iter  12:  -345.49619123385048   -1.32445e-11   6.12573e-09 DIIS
   @RHF iter  13:  -345.49619123385116   -6.82121e-13   2.31975e-09 DIIS
   @RHF iter  14:  -345.49619123385474   -3.58114e-12   9.08167e-10 DIIS
   @RHF iter  15:  -345.49619123385168    3.06954e-12   3.12656e-10 DIIS
   @RHF iter  16:  -345.49619123385366   -1.98952e-12   1.05461e-10 DIIS
   @RHF iter  17:  -345.49619123385321    4.54747e-13   4.09657e-11 DIIS
  Energy and wave function converged.

  ==> Post-Iterations <==

    Orbital Energies [Eh]
    ---------------------

    Doubly Occupied:

       1A    -20.256439     2A    -20.253329     3A    -11.113150
       4A    -11.110383     5A    -11.094941     6A    -11.092999
       7A    -11.050338     8A     -1.145496     9A     -1.030183
      10A     -0.952356    11A     -0.801024    12A     -0.794988
      13A     -0.681331    14A     -0.524899    15A     -0.497493
      16A     -0.496789    17A     -0.430218    18A     -0.411666
      19A     -0.404504    20A     -0.399869    21A     -0.399524
      22A     -0.365089    23A     -0.353022    24A     -0.344416
      25A     -0.338890    26A     -0.300286    27A     -0.180696
      28A     -0.166888    29A     -0.155891

    Virtual:

      30A      0.290967    31A      0.327521    32A      0.336644
      33A      0.345527    34A      0.365198    35A      0.386075
      36A      0.407605    37A      0.411740    38A      0.418272
      39A      0.437594    40A      0.456447    41A      0.480663
      42A      0.504089    43A      0.546860    44A      0.573742
      45A      0.673383    46A      0.691646    47A      0.705190
      48A      0.725525    49A      0.739562    50A      0.760983
      51A      0.768641    52A      0.864275    53A      0.881586
      54A      0.898378    55A      0.936714    56A      0.944156
      57A      0.967413    58A      0.970202    59A      0.992164
      60A      1.001270    61A      1.010913    62A      1.018652
      63A      1.024226    64A      1.038316    65A      1.047278
      66A      1.048526    67A      1.065270    68A      1.078995
      69A      1.084849    70A      1.092316    71A      1.127821
      72A      1.148493    73A      1.211517    74A      1.247630
      75A      1.251446    76A      1.312306    77A      1.332808
      78A      1.355887    79A      1.399695    80A      1.517058
      81A      1.558493    82A      1.563941    83A      1.581430
      84A      1.587817    85A      1.596271    86A      1.612850
      87A      1.668786    88A      1.684829    89A      1.726943
      90A      1.732262    91A      1.737593    92A      1.756036
      93A      1.841165    94A      1.847765    95A      1.860907
      96A      1.871259    97A      1.929205    98A      1.977165
      99A      1.989627   100A      2.013210   101A      2.020803
     102A      2.041094   103A      2.059758   104A      2.062956
     105A      2.084952   106A      2.107763   107A      2.111984
     108A      2.132309   109A      2.142056   110A      2.150133
     111A      2.179237   112A      2.214316   113A      2.233003
     114A      2.258303   115A      2.279343   116A      2.301533
     117A      2.329555   118A      2.351285   119A      2.416623
     120A      2.429048   121A      2.456930   122A      2.481845
     123A      2.532973   124A      2.580194   125A      2.614802
     126A      2.637168   127A      2.651646   128A      2.660999
     129A      2.727749   130A      2.750866   131A      2.796729
     132A      2.811781   133A      2.866491   134A      2.879423
     135A      2.906044   136A      2.921849   137A      2.954032
     138A      2.973135   139A      2.982480   140A      2.999188
     141A      3.044201   142A      3.076876   143A      3.179641
     144A      3.246838   145A      3.283404   146A      3.300235
     147A      3.367349   148A      3.647307   149A      3.777348
     150A      3.829939   151A      4.067329   152A      4.080989
     153A      4.199328

    Final Occupation by Irrep:
              A
    DOCC [    29 ]

  @RHF Final Energy:  -345.49619123385321

   => Energetics <=

    Nuclear Repulsion Energy =            291.8918725130239409
    One-Electron Energy =               -1060.4819313369507654
    Two-Electron Energy =                 423.0938675900736143
    Total Energy =                       -345.4961912338532102

Computation Completed

Properties will be evaluated at   0.000000,   0.000000,   0.000000 [a0]

Properties computed using the SCF density matrix

  Nuclear Dipole Moment: [e a0]
     X:    -4.0278      Y:    -3.8707      Z:   -13.4922

  Electronic Dipole Moment: [e a0]
     X:     2.7920      Y:     2.8244      Z:    10.6544

  Dipole Moment: [e a0]
     X:    -1.2359      Y:    -1.0462      Z:    -2.8378     Total:     3.2673

  Dipole Moment: [D]
     X:    -3.1413      Y:    -2.6592      Z:    -7.2130     Total:     8.3047

*** tstop() called on ds3 at Tue Apr 28 14:50:45 2020
Module time:
	user time   =      24.02 seconds =       0.40 minutes
	system time =      10.76 seconds =       0.18 minutes
	total time  =         47 seconds =       0.78 minutes
Total time:
	user time   =      24.02 seconds =       0.40 minutes
	system time =      10.76 seconds =       0.18 minutes
	total time  =         47 seconds =       0.78 minutes
                                     G D M A

                                 by Anthony Stone

                           version 2.2.06, 22 June 2011

               Distributed Multipoles from Gaussian wavefunctions

Starting at 14:50:45 on 28 Apr 2020

Using SCF density matrix from file ./SSI/SSI-115GLU-123PRO-2-dimer.test.14951.fchk

                         Distributed Multipole Analysis

Standard DMA

Positions and radii in angstrom
Multipole moments in atomic units, ea_0^k for rank k

C          x = -1.213629  y = -0.607130  z =  1.881540 angstrom
           Maximum rank =  0   Radius =  0.650 angstrom
                   Q00  =  -0.287078

C          x =  0.071371  y =  0.213870  z =  1.815540 angstrom
           Maximum rank =  0   Radius =  0.650 angstrom
                   Q00  =   0.971782

O          x =  1.148371  y = -0.369130  z =  2.063540 angstrom
           Maximum rank =  0   Radius =  0.650 angstrom
                   Q00  =  -0.935153

O          x =  0.022371  y =  1.432870  z =  1.530540 angstrom
           Maximum rank =  0   Radius =  0.650 angstrom
                   Q00  =  -0.930892

H          x = -1.374629  y = -0.892130  z =  2.922540 angstrom
           Maximum rank =  0   Radius =  0.325 angstrom
                   Q00  =   0.075370

H          x = -1.095629  y = -1.519130  z =  1.294540 angstrom
           Maximum rank =  0   Radius =  0.325 angstrom
                   Q00  =   0.063918

H          x = -2.087249  y = -0.058860  z =  1.499195 angstrom
           Maximum rank =  0   Radius =  0.325 angstrom
                   Q00  =   0.049195

C          x = -0.322629  y = -0.244130  z = -1.871460 angstrom
           Maximum rank =  0   Radius =  0.650 angstrom
                   Q00  =  -0.027053

C          x =  1.121371  y = -0.588130  z = -2.164460 angstrom
           Maximum rank =  0   Radius =  0.650 angstrom
                   Q00  =  -0.210774

C          x = -0.855629  y =  0.154870  z = -3.241460 angstrom
           Maximum rank =  0   Radius =  0.650 angstrom
                   Q00  =  -0.242625

H          x = -0.364629  y =  0.602870  z = -1.184460 angstrom
           Maximum rank =  0   Radius =  0.325 angstrom
                   Q00  =   0.073974

H          x = -0.864629  y = -1.098130  z = -1.461460 angstrom
           Maximum rank =  0   Radius =  0.325 angstrom
                   Q00  =   0.042123

H          x =  1.727371  y = -0.592130  z = -1.258460 angstrom
           Maximum rank =  0   Radius =  0.325 angstrom
                   Q00  =   0.112595

H          x =  1.182371  y = -1.548130  z = -2.678460 angstrom
           Maximum rank =  0   Radius =  0.325 angstrom
                   Q00  =   0.042500

H          x = -1.197629  y = -0.729130  z = -3.782460 angstrom
           Maximum rank =  0   Radius =  0.325 angstrom
                   Q00  =   0.054497

H          x =  1.412381  y =  0.225250  z = -2.845431 angstrom
           Maximum rank =  0   Radius =  0.325 angstrom
                   Q00  =   0.026431

H          x =  0.024681  y =  0.578830  z = -3.746751 angstrom
           Maximum rank =  0   Radius =  0.325 angstrom
                   Q00  =   0.049669

H          x = -1.664909  y =  0.896410  z = -3.169396 angstrom
           Maximum rank =  0   Radius =  0.325 angstrom
                   Q00  =   0.071521

Total multipoles referred to origin at
           x =   0.000000,  y =    0.000000,  z =    0.000000 angstrom
                   Q00  =  -1.000000

Finished at 14:50:45 on 28 Apr 2020

  DMA results are available in the Python driver through the
	  variable('DMA DISTRIBUTED MULTIPOLES')
  and
	  variable('DMA TOTAL MULTIPOLES')
  commands.

    Psi4 stopped on: Tuesday, 28 April 2020 02:50PM
    Psi4 wall time for execution: 0:00:47.51

*** Psi4 exiting successfully. Buy a developer a beer!
