                               Psi4 1.3.2 release

  ==> Input File <==

--------------------------------------------------------------------------
import numpy as np
set {scf_type pk
basis cc-pvdz
d_convergence 10
gdma_switch   0
gdma_limit    0
gdma_origin   [ 0.0,  0.0,  0.0 ]
}
molecule test {
    units Angstrom
    0 1
    --
    0 1
    C               -1.888724565191368    -1.289572630164425    -2.691476895949839
    C               -2.882724565191368    -1.100572630164425    -3.856476895949839
    H               -0.935724565191368    -0.819572630164425    -2.937476895949839
    H               -2.285724565191368    -0.833572630164425    -1.784476895949838
    H               -1.723724565191368    -2.354572630164425    -2.511476895949838
    H               -3.831724565191367    -1.570572630164425    -3.598476895949839
    H               -2.490144565191368    -1.568952630164425    -4.771076895949839
    H               -3.027634565191368    -0.024542630164425    -4.032986895949839
    C               -1.359724565191368     0.066427369835575     3.069523104050161
    C                0.236275434808632     0.633427369835575    -0.382476895949839
    C               -0.723724565191368     0.466427369835575     0.643523104050161
    C                1.620275434808632     0.474427369835575    -0.096476895949839
    C               -0.329724565191368     0.127427369835575     1.941523104050161
    C                2.009275434808632     0.105427369835575     1.197523104050161
    C                1.044275434808632    -0.064572630164425     2.197523104050161
    O                2.612275434808632     0.746427369835575    -1.022476895949839
    H               -0.083724565191368     0.835427369835575    -1.398476895949839
    H               -1.778724565191368     0.597427369835575     0.435523104050161
    H                2.267275434808632     1.060427369835575    -1.875476895949839
    H                3.057275434808632    -0.042572630164425     1.416523104050162
    H               -1.020724565191368    -0.636572630164425     3.819523104050161
    H               -2.317724565191368    -0.274572630164425     2.675523104050161
    H                1.354275434808632    -0.347572630164425     3.193523104050161
    H               -1.559624565191368     1.053147369835575     3.512723104050162

}
e, wfn = energy('scf', return_wfn=True)
gdma(wfn)
dmavals = variable('DMA DISTRIBUTED MULTIPOLES')
charges = np.array(dmavals)
print(charges)
np.save('SSI-040THR-270TYR-1-dimer.npy', np.array(charges))--------------------------------------------------------------------------

*** tstart() called on ds3
*** at Mon Apr 27 07:46:36 2020

   => Loading Basis Set <=

    Name: CC-PVDZ
    Role: ORBITAL
    Keyword: BASIS
    atoms 1-2, 9-15  entry C          line   138 file /theoryfs2/ds/metcalf/miniconda2/envs/tf2gpu/share/psi4/basis/cc-pvdz.gbs
    atoms 3-8, 17-24 entry H          line    22 file /theoryfs2/ds/metcalf/miniconda2/envs/tf2gpu/share/psi4/basis/cc-pvdz.gbs
    atoms 16         entry O          line   198 file /theoryfs2/ds/metcalf/miniconda2/envs/tf2gpu/share/psi4/basis/cc-pvdz.gbs

         ---------------------------------------------------------
                                   SCF
               by Justin Turney, Rob Parrish, Andy Simmonett
                          and Daniel G. A. Smith
                              RHF Reference
                        1 Threads,    500 MiB Core
         ---------------------------------------------------------

  ==> Geometry <==

    Molecular point group: c1
    Full point group: C1

    Geometry (in Angstrom), charge = 0, multiplicity = 1:

       Center              X                  Y                   Z               Mass
    ------------   -----------------  -----------------  -----------------  -----------------
         C           -1.888724565191    -1.289572630164    -2.691476895950    12.000000000000
         C           -2.882724565191    -1.100572630164    -3.856476895950    12.000000000000
         H           -0.935724565191    -0.819572630164    -2.937476895950     1.007825032230
         H           -2.285724565191    -0.833572630164    -1.784476895950     1.007825032230
         H           -1.723724565191    -2.354572630164    -2.511476895950     1.007825032230
         H           -3.831724565191    -1.570572630164    -3.598476895950     1.007825032230
         H           -2.490144565191    -1.568952630164    -4.771076895950     1.007825032230
         H           -3.027634565191    -0.024542630164    -4.032986895950     1.007825032230
         C           -1.359724565191     0.066427369836     3.069523104050    12.000000000000
         C            0.236275434809     0.633427369836    -0.382476895950    12.000000000000
         C           -0.723724565191     0.466427369836     0.643523104050    12.000000000000
         C            1.620275434809     0.474427369836    -0.096476895950    12.000000000000
         C           -0.329724565191     0.127427369836     1.941523104050    12.000000000000
         C            2.009275434809     0.105427369836     1.197523104050    12.000000000000
         C            1.044275434809    -0.064572630164     2.197523104050    12.000000000000
         O            2.612275434809     0.746427369836    -1.022476895950    15.994914619570
         H           -0.083724565191     0.835427369836    -1.398476895950     1.007825032230
         H           -1.778724565191     0.597427369836     0.435523104050     1.007825032230
         H            2.267275434809     1.060427369836    -1.875476895950     1.007825032230
         H            3.057275434809    -0.042572630164     1.416523104050     1.007825032230
         H           -1.020724565191    -0.636572630164     3.819523104050     1.007825032230
         H           -2.317724565191    -0.274572630164     2.675523104050     1.007825032230
         H            1.354275434809    -0.347572630164     3.193523104050     1.007825032230
         H           -1.559624565191     1.053147369836     3.512723104050     1.007825032230

  Running in c1 symmetry.

  Rotational constants: A =      0.04493  B =      0.02077  C =      0.01492 [cm^-1]
  Rotational constants: A =   1347.02932  B =    622.70161  C =    447.24197 [MHz]
  Nuclear repulsion =  482.131445511396123

  Charge       = 0
  Multiplicity = 1
  Electrons    = 76
  Nalpha       = 38
  Nbeta        = 38

  ==> Algorithm <==

  SCF Algorithm Type is PK.
  DIIS enabled.
  MOM disabled.
  Fractional occupation disabled.
  Guess Type is SAD.
  Energy threshold   = 1.00e-06
  Density threshold  = 1.00e-10
  Integral threshold = 0.00e+00

  ==> Primary Basis <==

  Basis Set: CC-PVDZ
    Blend: CC-PVDZ
    Number of shells: 102
    Number of basis function: 210
    Number of Cartesian functions: 220
    Spherical Harmonics?: true
    Max angular momentum: 2

  ==> Pre-Iterations <==

   -------------------------------------------------------
    Irrep   Nso     Nmo     Nalpha   Nbeta   Ndocc  Nsocc
   -------------------------------------------------------
     A        210     210       0       0       0       0
   -------------------------------------------------------
    Total     210     210      38      38      38       0
   -------------------------------------------------------

  ==> Integral Setup <==

  Using integral reordering PK algorithm.
  Sizing the integral batches needed.
  Building batch lookup table.
   Calculation information:
      Number of atoms:                  24
      Number of AO shells:             102
      Number of primitives:            290
      Number of atomic orbitals:       220
      Number of basis functions:       210

      Integral cutoff                 1.00e-12
      Number of threads:                 1

	Batch   1 pq = [       0,    9405] index = [             0,44231715] size =     44231715
	Batch   2 pq = [    9405,   13301] index = [      44231715,88464951] size =     44233236
	Batch   3 pq = [   13301,   16290] index = [      88464951,132690195] size =     44225244
	Batch   4 pq = [   16290,   18810] index = [     132690195,176917455] size =     44227260
	Batch   5 pq = [   18810,   21030] index = [     176917455,221140965] size =     44223510
	Batch   6 pq = [   21030,   22155] index = [     221140965,245433090] size =     24292125
  Task number: 23
  Buffer size: 11059200
  Buffer per thread: 2
  We computed 10666524 shell quartets total.
  Whereas there are 13799631 unique shell quartets.

  ==> DiskJK: Disk-Based J/K Matrices <==

    J tasked:                  Yes
    K tasked:                  Yes
    wK tasked:                  No
    Memory [MiB]:              375
    Schwarz Cutoff:          1E-12

    OpenMP threads:              1

  Minimum eigenvalue in the overlap matrix is 3.5315067968E-04.
  Using Symmetric Orthogonalization.

  SCF Guess: Superposition of Atomic Densities via on-the-fly atomic UHF.

  ==> Iterations <==

                        Total Energy        Delta E     RMS |[F,P]|

   @RHF iter SAD:  -422.40248399827033   -4.22402e+02   0.00000e+00
   @RHF iter   1:  -423.60204522571456   -1.19956e+00   2.94450e-03 DIIS
   @RHF iter   2:  -423.81394279690335   -2.11898e-01   1.25375e-03 DIIS
   @RHF iter   3:  -423.84843647340000   -3.44937e-02   2.92109e-04 DIIS
   @RHF iter   4:  -423.85137873285055   -2.94226e-03   1.25647e-04 DIIS
   @RHF iter   5:  -423.85178699174401   -4.08259e-04   2.05727e-05 DIIS
   @RHF iter   6:  -423.85180497902792   -1.79873e-05   6.68833e-06 DIIS
   @RHF iter   7:  -423.85180678160788   -1.80258e-06   2.27918e-06 DIIS
   @RHF iter   8:  -423.85180704819248   -2.66585e-07   8.35723e-07 DIIS
   @RHF iter   9:  -423.85180709091480   -4.27223e-08   3.12040e-07 DIIS
   @RHF iter  10:  -423.85180709826983   -7.35503e-09   1.24301e-07 DIIS
   @RHF iter  11:  -423.85180710029681   -2.02698e-09   6.26135e-08 DIIS
   @RHF iter  12:  -423.85180710075838   -4.61569e-10   2.92023e-08 DIIS
   @RHF iter  13:  -423.85180710086797   -1.09594e-10   9.30871e-09 DIIS
   @RHF iter  14:  -423.85180710087565   -7.67386e-12   2.64815e-09 DIIS
   @RHF iter  15:  -423.85180710087599   -3.41061e-13   9.77499e-10 DIIS
   @RHF iter  16:  -423.85180710087695   -9.66338e-13   4.18969e-10 DIIS
   @RHF iter  17:  -423.85180710087928   -2.33058e-12   2.03380e-10 DIIS
   @RHF iter  18:  -423.85180710087815    1.13687e-12   9.77149e-11 DIIS
  Energy and wave function converged.

  ==> Post-Iterations <==

    Orbital Energies [Eh]
    ---------------------

    Doubly Occupied:

       1A    -20.584657     2A    -11.305733     3A    -11.242473
       4A    -11.240657     5A    -11.240323     6A    -11.237719
       7A    -11.233204     8A    -11.230089     9A    -11.223020
      10A    -11.220545    11A     -1.387846    12A     -1.141557
      13A     -1.031777    14A     -1.017624    15A     -1.010370
      16A     -0.925025    17A     -0.840901    18A     -0.838513
      19A     -0.798074    20A     -0.725343    21A     -0.660041
      22A     -0.639952    23A     -0.606330    24A     -0.600708
      25A     -0.598165    26A     -0.582679    27A     -0.579347
      28A     -0.567393    29A     -0.563408    30A     -0.529524
      31A     -0.499615    32A     -0.495469    33A     -0.491139
      34A     -0.488929    35A     -0.481925    36A     -0.461994
      37A     -0.334292    38A     -0.300720

    Virtual:

      39A      0.127180    40A      0.149157    41A      0.166772
      42A      0.181401    43A      0.196251    44A      0.216495
      45A      0.220908    46A      0.244454    47A      0.246353
      48A      0.257396    49A      0.263689    50A      0.276205
      51A      0.282330    52A      0.289836    53A      0.298850
      54A      0.329274    55A      0.365536    56A      0.381722
      57A      0.390957    58A      0.423130    59A      0.448269
      60A      0.481332    61A      0.494126    62A      0.504452
      63A      0.588882    64A      0.593269    65A      0.600669
      66A      0.605247    67A      0.634476    68A      0.643424
      69A      0.661154    70A      0.672147    71A      0.680965
      72A      0.689239    73A      0.705816    74A      0.708965
      75A      0.727847    76A      0.733762    77A      0.766973
      78A      0.773966    79A      0.779086    80A      0.792280
      81A      0.793771    82A      0.826299    83A      0.838796
      84A      0.844334    85A      0.875210    86A      0.880198
      87A      0.888176    88A      0.889598    89A      0.893506
      90A      0.895038    91A      0.907366    92A      0.913257
      93A      0.919953    94A      0.923064    95A      0.930139
      96A      0.937898    97A      0.944086    98A      0.965665
      99A      0.993098   100A      1.017629   101A      1.022700
     102A      1.061709   103A      1.107994   104A      1.123171
     105A      1.128817   106A      1.141126   107A      1.146197
     108A      1.171428   109A      1.205473   110A      1.220407
     111A      1.238521   112A      1.255236   113A      1.260007
     114A      1.275532   115A      1.289506   116A      1.295853
     117A      1.318049   118A      1.342150   119A      1.355247
     120A      1.386764   121A      1.467407   122A      1.471996
     123A      1.489820   124A      1.500769   125A      1.527678
     126A      1.555819   127A      1.578059   128A      1.612614
     129A      1.622293   130A      1.674621   131A      1.676377
     132A      1.688576   133A      1.703821   134A      1.723909
     135A      1.740798   136A      1.776163   137A      1.794875
     138A      1.798551   139A      1.854545   140A      1.862145
     141A      1.868057   142A      1.870353   143A      1.886546
     144A      1.890744   145A      1.905066   146A      1.908770
     147A      1.920300   148A      1.934092   149A      1.939940
     150A      1.942785   151A      1.945373   152A      1.949532
     153A      1.962766   154A      1.969438   155A      1.975684
     156A      1.983891   157A      2.022437   158A      2.031785
     159A      2.039127   160A      2.050149   161A      2.068026
     162A      2.096902   163A      2.107735   164A      2.129263
     165A      2.137582   166A      2.153590   167A      2.199279
     168A      2.215571   169A      2.264552   170A      2.269083
     171A      2.289685   172A      2.294121   173A      2.306990
     174A      2.318284   175A      2.361977   176A      2.411309
     177A      2.431612   178A      2.451022   179A      2.462412
     180A      2.468706   181A      2.472196   182A      2.511098
     183A      2.528737   184A      2.559553   185A      2.564145
     186A      2.590274   187A      2.601811   188A      2.740230
     189A      2.758572   190A      2.760318   191A      2.779821
     192A      2.787478   193A      2.801693   194A      2.834970
     195A      2.839601   196A      2.848140   197A      2.893902
     198A      2.933512   199A      2.944274   200A      2.963806
     201A      2.993747   202A      3.044620   203A      3.085688
     204A      3.226666   205A      3.256719   206A      3.335374
     207A      3.529673   208A      3.637338   209A      3.909146
     210A      4.170244

    Final Occupation by Irrep:
              A
    DOCC [    38 ]

  @RHF Final Energy:  -423.85180710087815

   => Energetics <=

    Nuclear Repulsion Energy =            482.1314455113961230
    One-Electron Energy =               -1530.0523450589375898
    Two-Electron Energy =                 624.0690924466633760
    Total Energy =                       -423.8518071008780908

Computation Completed

Properties will be evaluated at   0.000000,   0.000000,   0.000000 [a0]

Properties computed using the SCF density matrix

  Nuclear Dipole Moment: [e a0]
     X:   -13.4649      Y:    -4.6150      Z:    -7.3702

  Electronic Dipole Moment: [e a0]
     X:    12.9568      Y:     4.7206      Z:     7.1719

  Dipole Moment: [e a0]
     X:    -0.5081      Y:     0.1057      Z:    -0.1983     Total:     0.5555

  Dipole Moment: [D]
     X:    -1.2914      Y:     0.2685      Z:    -0.5040     Total:     1.4120

*** tstop() called on ds3 at Mon Apr 27 07:49:06 2020
Module time:
	user time   =      82.85 seconds =       1.38 minutes
	system time =      41.11 seconds =       0.69 minutes
	total time  =        150 seconds =       2.50 minutes
Total time:
	user time   =      82.85 seconds =       1.38 minutes
	system time =      41.11 seconds =       0.69 minutes
	total time  =        150 seconds =       2.50 minutes
                                     G D M A

                                 by Anthony Stone

                           version 2.2.06, 22 June 2011

               Distributed Multipoles from Gaussian wavefunctions

Starting at 7:49:6 on 27 Apr 2020

Using SCF density matrix from file ./SSI/SSI-040THR-270TYR-1-dimer.test.32633.fchk

                         Distributed Multipole Analysis

Standard DMA

Positions and radii in angstrom
Multipole moments in atomic units, ea_0^k for rank k

C          x = -1.888725  y = -1.289573  z = -2.691477 angstrom
           Maximum rank =  0   Radius =  0.650 angstrom
                   Q00  =  -0.231027

C          x = -2.882725  y = -1.100573  z = -3.856477 angstrom
           Maximum rank =  0   Radius =  0.650 angstrom
                   Q00  =  -0.243819

H          x = -0.935725  y = -0.819573  z = -2.937477 angstrom
           Maximum rank =  0   Radius =  0.325 angstrom
                   Q00  =   0.071699

H          x = -2.285725  y = -0.833573  z = -1.784477 angstrom
           Maximum rank =  0   Radius =  0.325 angstrom
                   Q00  =   0.078689

H          x = -1.723725  y = -2.354573  z = -2.511477 angstrom
           Maximum rank =  0   Radius =  0.325 angstrom
                   Q00  =   0.085017

H          x = -3.831725  y = -1.570573  z = -3.598477 angstrom
           Maximum rank =  0   Radius =  0.325 angstrom
                   Q00  =   0.082751

H          x = -2.490145  y = -1.568953  z = -4.771077 angstrom
           Maximum rank =  0   Radius =  0.325 angstrom
                   Q00  =   0.080626

H          x = -3.027635  y = -0.024543  z = -4.032987 angstrom
           Maximum rank =  0   Radius =  0.325 angstrom
                   Q00  =   0.076312

C          x = -1.359725  y =  0.066427  z =  3.069523 angstrom
           Maximum rank =  0   Radius =  0.650 angstrom
                   Q00  =  -0.201661

C          x =  0.236275  y =  0.633427  z = -0.382477 angstrom
           Maximum rank =  0   Radius =  0.650 angstrom
                   Q00  =  -0.177477

C          x = -0.723725  y =  0.466427  z =  0.643523 angstrom
           Maximum rank =  0   Radius =  0.650 angstrom
                   Q00  =  -0.062996

C          x =  1.620275  y =  0.474427  z = -0.096477 angstrom
           Maximum rank =  0   Radius =  0.650 angstrom
                   Q00  =   0.311428

C          x = -0.329725  y =  0.127427  z =  1.941523 angstrom
           Maximum rank =  0   Radius =  0.650 angstrom
                   Q00  =  -0.127434

C          x =  2.009275  y =  0.105427  z =  1.197523 angstrom
           Maximum rank =  0   Radius =  0.650 angstrom
                   Q00  =  -0.107830

C          x =  1.044275  y = -0.064573  z =  2.197523 angstrom
           Maximum rank =  0   Radius =  0.650 angstrom
                   Q00  =   0.038531

O          x =  2.612275  y =  0.746427  z = -1.022477 angstrom
           Maximum rank =  0   Radius =  0.650 angstrom
                   Q00  =  -0.678872

H          x = -0.083725  y =  0.835427  z = -1.398477 angstrom
           Maximum rank =  0   Radius =  0.325 angstrom
                   Q00  =   0.079113

H          x = -1.778725  y =  0.597427  z =  0.435523 angstrom
           Maximum rank =  0   Radius =  0.325 angstrom
                   Q00  =   0.070795

H          x =  2.267275  y =  1.060427  z = -1.875477 angstrom
           Maximum rank =  0   Radius =  0.325 angstrom
                   Q00  =   0.410935

H          x =  3.057275  y = -0.042573  z =  1.416523 angstrom
           Maximum rank =  0   Radius =  0.325 angstrom
                   Q00  =   0.082597

H          x = -1.020725  y = -0.636573  z =  3.819523 angstrom
           Maximum rank =  0   Radius =  0.325 angstrom
                   Q00  =   0.101281

H          x = -2.317725  y = -0.274573  z =  2.675523 angstrom
           Maximum rank =  0   Radius =  0.325 angstrom
                   Q00  =   0.095066

H          x =  1.354275  y = -0.347573  z =  3.193523 angstrom
           Maximum rank =  0   Radius =  0.325 angstrom
                   Q00  =   0.065202

H          x = -1.559625  y =  1.053147  z =  3.512723 angstrom
           Maximum rank =  0   Radius =  0.325 angstrom
                   Q00  =   0.101074

Total multipoles referred to origin at
           x =   0.000000,  y =    0.000000,  z =    0.000000 angstrom
                   Q00  =  -0.000000

Finished at 7:49:6 on 27 Apr 2020

  DMA results are available in the Python driver through the
	  variable('DMA DISTRIBUTED MULTIPOLES')
  and
	  variable('DMA TOTAL MULTIPOLES')
  commands.

    Psi4 stopped on: Monday, 27 April 2020 07:49AM
    Psi4 wall time for execution: 0:02:29.84

*** Psi4 exiting successfully. Buy a developer a beer!
