                               Psi4 1.3.2 release

  ==> Input File <==

--------------------------------------------------------------------------
import numpy as np
set {scf_type pk
basis cc-pvdz
d_convergence 10
gdma_switch   0
gdma_limit    0
gdma_origin   [ 0.0,  0.0,  0.0 ]
}
molecule test {
    units Angstrom
    0 1
    --
    0 1
    C               -2.776362561999965     0.121057156022778     1.485534124362038
    C               -2.946362561999965    -0.109942843977222     2.970534124362038
    C               -1.651362561999965     1.890057156022778     2.717534124362038
    C               -2.507362561999965     1.677057156022778    -0.990465875637962
    C               -1.975362561999965     2.209057156022778     0.331534124362038
    O               -1.521362561999965     3.358057156022778     0.404534124362038
    N               -2.093362561999965     1.424057156022778     1.406534124362038
    H               -2.166362561999965    -0.668942843977222     1.054534124362038
    H               -3.752362561999965     0.145057156022778     1.003534124362038
    H               -2.909362561999965    -1.170942843977222     3.217534124362038
    H               -3.891362561999965     0.324057156022778     3.300534124362038
    H               -2.337362561999965     2.664057156022778     3.065534124362038
    H               -2.367362561999965     0.596057156022778    -1.020465875637962
    H               -2.110142561999965     0.440547156022778     3.426262124362037
    H               -1.751442561999965     0.997977156022778     3.353290124362037
    H               -0.619552561999965     2.270767156022778     2.696624124362037
    H               -3.574962561999965     1.935327156022778    -1.049775875637962
    H               -1.941722561999965     2.110957156022778    -1.828185875637962
    C                4.078637438000035    -2.602942843977222    -2.866465875637962
    C                1.129637438000035    -0.867942843977222    -0.305465875637962
    C                2.398637438000035    -0.315942843977222    -0.363465875637962
    C                0.811637438000035    -1.959942843977222    -1.098465875637962
    C                3.338637438000035    -0.859942843977222    -1.218465875637962
    C                1.772637438000035    -2.527942843977222    -1.911465875637962
    C                3.033637438000035    -1.967942843977222    -2.000465875637962
    O                0.174637438000035    -0.370942843977222     0.524534124362038
    H                0.496637438000035     0.384057156022778     1.042534124362038
    H                2.650637438000035     0.529057156022778     0.258534124362038
    H               -0.176362561999965    -2.385942843977222    -1.039465875637962
    H                4.328637438000035    -0.425942843977222    -1.267465875637962
    H                1.538637438000035    -3.405942843977222    -2.496465875637962
    H                4.725637438000035    -1.818942843977222    -3.250465875637962
    H                3.586637438000035    -3.073942843977222    -3.719465875637962
    H                4.689687438000035    -3.352804843977222    -2.342705875637962

}
e, wfn = energy('scf', return_wfn=True)
gdma(wfn)
dmavals = variable('DMA DISTRIBUTED MULTIPOLES')
charges = np.array(dmavals)
print(charges)
np.save('SSI-004PRO-009TYR-1-dimer.npy', np.array(charges))--------------------------------------------------------------------------

*** tstart() called on ds3
*** at Tue Apr 28 12:43:19 2020

   => Loading Basis Set <=

    Name: CC-PVDZ
    Role: ORBITAL
    Keyword: BASIS
    atoms 1-5, 19-25  entry C          line   138 file /theoryfs2/ds/metcalf/miniconda2/envs/tf2gpu/share/psi4/basis/cc-pvdz.gbs
    atoms 6, 26       entry O          line   198 file /theoryfs2/ds/metcalf/miniconda2/envs/tf2gpu/share/psi4/basis/cc-pvdz.gbs
    atoms 7           entry N          line   168 file /theoryfs2/ds/metcalf/miniconda2/envs/tf2gpu/share/psi4/basis/cc-pvdz.gbs
    atoms 8-18, 27-34 entry H          line    22 file /theoryfs2/ds/metcalf/miniconda2/envs/tf2gpu/share/psi4/basis/cc-pvdz.gbs

         ---------------------------------------------------------
                                   SCF
               by Justin Turney, Rob Parrish, Andy Simmonett
                          and Daniel G. A. Smith
                              RHF Reference
                        1 Threads,    500 MiB Core
         ---------------------------------------------------------

  ==> Geometry <==

    Molecular point group: c1
    Full point group: C1

    Geometry (in Angstrom), charge = 0, multiplicity = 1:

       Center              X                  Y                   Z               Mass
    ------------   -----------------  -----------------  -----------------  -----------------
         C           -2.776362562000     0.121057156023     1.485534124362    12.000000000000
         C           -2.946362562000    -0.109942843977     2.970534124362    12.000000000000
         C           -1.651362562000     1.890057156023     2.717534124362    12.000000000000
         C           -2.507362562000     1.677057156023    -0.990465875638    12.000000000000
         C           -1.975362562000     2.209057156023     0.331534124362    12.000000000000
         O           -1.521362562000     3.358057156023     0.404534124362    15.994914619570
         N           -2.093362562000     1.424057156023     1.406534124362    14.003074004430
         H           -2.166362562000    -0.668942843977     1.054534124362     1.007825032230
         H           -3.752362562000     0.145057156023     1.003534124362     1.007825032230
         H           -2.909362562000    -1.170942843977     3.217534124362     1.007825032230
         H           -3.891362562000     0.324057156023     3.300534124362     1.007825032230
         H           -2.337362562000     2.664057156023     3.065534124362     1.007825032230
         H           -2.367362562000     0.596057156023    -1.020465875638     1.007825032230
         H           -2.110142562000     0.440547156023     3.426262124362     1.007825032230
         H           -1.751442562000     0.997977156023     3.353290124362     1.007825032230
         H           -0.619552562000     2.270767156023     2.696624124362     1.007825032230
         H           -3.574962562000     1.935327156023    -1.049775875638     1.007825032230
         H           -1.941722562000     2.110957156023    -1.828185875638     1.007825032230
         C            4.078637438000    -2.602942843977    -2.866465875638    12.000000000000
         C            1.129637438000    -0.867942843977    -0.305465875638    12.000000000000
         C            2.398637438000    -0.315942843977    -0.363465875638    12.000000000000
         C            0.811637438000    -1.959942843977    -1.098465875638    12.000000000000
         C            3.338637438000    -0.859942843977    -1.218465875638    12.000000000000
         C            1.772637438000    -2.527942843977    -1.911465875638    12.000000000000
         C            3.033637438000    -1.967942843977    -2.000465875638    12.000000000000
         O            0.174637438000    -0.370942843977     0.524534124362    15.994914619570
         H            0.496637438000     0.384057156023     1.042534124362     1.007825032230
         H            2.650637438000     0.529057156023     0.258534124362     1.007825032230
         H           -0.176362562000    -2.385942843977    -1.039465875638     1.007825032230
         H            4.328637438000    -0.425942843977    -1.267465875638     1.007825032230
         H            1.538637438000    -3.405942843977    -2.496465875638     1.007825032230
         H            4.725637438000    -1.818942843977    -3.250465875638     1.007825032230
         H            3.586637438000    -3.073942843977    -3.719465875638     1.007825032230
         H            4.689687438000    -3.352804843977    -2.342705875638     1.007825032230

  Running in c1 symmetry.

  Rotational constants: A =      0.03815  B =      0.00765  C =      0.00731 [cm^-1]
  Rotational constants: A =   1143.81292  B =    229.35405  C =    219.25059 [MHz]
  Nuclear repulsion =  977.529176074849488

  Charge       = 0
  Multiplicity = 1
  Electrons    = 114
  Nalpha       = 57
  Nbeta        = 57

  ==> Algorithm <==

  SCF Algorithm Type is PK.
  DIIS enabled.
  MOM disabled.
  Fractional occupation disabled.
  Guess Type is SAD.
  Energy threshold   = 1.00e-06
  Density threshold  = 1.00e-10
  Integral threshold = 0.00e+00

  ==> Primary Basis <==

  Basis Set: CC-PVDZ
    Blend: CC-PVDZ
    Number of shells: 147
    Number of basis function: 305
    Number of Cartesian functions: 320
    Spherical Harmonics?: true
    Max angular momentum: 2

  ==> Pre-Iterations <==

   -------------------------------------------------------
    Irrep   Nso     Nmo     Nalpha   Nbeta   Ndocc  Nsocc
   -------------------------------------------------------
     A        305     305       0       0       0       0
   -------------------------------------------------------
    Total     305     305      57      57      57       0
   -------------------------------------------------------

  ==> Integral Setup <==

  Using integral reordering PK algorithm.
  Sizing the integral batches needed.
  Building batch lookup table.
   Calculation information:
      Number of atoms:                  34
      Number of AO shells:             147
      Number of primitives:            425
      Number of atomic orbitals:       320
      Number of basis functions:       305

      Integral cutoff                 1.00e-12
      Number of threads:                 1

	Batch   1 pq = [       0,    9405] index = [             0,44231715] size =     44231715
	Batch   2 pq = [    9405,   13301] index = [      44231715,88464951] size =     44233236
	Batch   3 pq = [   13301,   16290] index = [      88464951,132690195] size =     44225244
	Batch   4 pq = [   16290,   18810] index = [     132690195,176917455] size =     44227260
	Batch   5 pq = [   18810,   21030] index = [     176917455,221140965] size =     44223510
	Batch   6 pq = [   21030,   23037] index = [     221140965,265363203] size =     44222238
	Batch   7 pq = [   23037,   24883] index = [     265363203,309594286] size =     44231083
	Batch   8 pq = [   24883,   26601] index = [     309594286,353819901] size =     44225615
	Batch   9 pq = [   26601,   28214] index = [     353819901,398029005] size =     44209104
	Batch  10 pq = [   28214,   29740] index = [     398029005,442248670] size =     44219665
	Batch  11 pq = [   29740,   31191] index = [     442248670,486454836] size =     44206166
	Batch  12 pq = [   31191,   32578] index = [     486454836,530679331] size =     44224495
	Batch  13 pq = [   32578,   33908] index = [     530679331,574893186] size =     44213855
	Batch  14 pq = [   33908,   35188] index = [     574893186,619115266] size =     44222080
	Batch  15 pq = [   35188,   36423] index = [     619115266,663335676] size =     44220410
	Batch  16 pq = [   36423,   37617] index = [     663335676,707538153] size =     44202477
	Batch  17 pq = [   37617,   38775] index = [     707538153,751769700] size =     44231547
	Batch  18 pq = [   38775,   39899] index = [     751769700,795985050] size =     44215350
	Batch  19 pq = [   39899,   40992] index = [     795985050,840192528] size =     44207478
	Batch  20 pq = [   40992,   42057] index = [     840192528,884416653] size =     44224125
	Batch  21 pq = [   42057,   43095] index = [     884416653,928611060] size =     44194407
	Batch  22 pq = [   43095,   44109] index = [     928611060,972823995] size =     44212935
	Batch  23 pq = [   44109,   45100] index = [     972823995,1017027550] size =     44203555
	Batch  24 pq = [   45100,   46070] index = [    1017027550,1061245485] size =     44217935
	Batch  25 pq = [   46070,   46665] index = [    1061245485,1088834445] size =     27588960
  Task number: 99
  Buffer size: 11059200
  Buffer per thread: 2
  We computed 54049564 shell quartets total.
  Whereas there are 59170881 unique shell quartets.

  ==> DiskJK: Disk-Based J/K Matrices <==

    J tasked:                  Yes
    K tasked:                  Yes
    wK tasked:                  No
    Memory [MiB]:              375
    Schwarz Cutoff:          1E-12

    OpenMP threads:              1

  Minimum eigenvalue in the overlap matrix is 3.0420243010E-04.
  Using Symmetric Orthogonalization.

  SCF Guess: Superposition of Atomic Densities via on-the-fly atomic UHF.

  ==> Iterations <==

                        Total Energy        Delta E     RMS |[F,P]|

   @RHF iter SAD:  -668.84482632836102   -6.68845e+02   0.00000e+00
   @RHF iter   1:  -669.12387708050994   -2.79051e-01   2.63888e-03 DIIS
   @RHF iter   2:  -669.43592526213456   -3.12048e-01   1.38405e-03 DIIS
   @RHF iter   3:  -669.50745020812349   -7.15249e-02   3.53521e-04 DIIS
   @RHF iter   4:  -669.51419868797291   -6.74848e-03   1.39282e-04 DIIS
   @RHF iter   5:  -669.51526887023169   -1.07018e-03   2.35573e-05 DIIS
   @RHF iter   6:  -669.51532987049723   -6.10003e-05   1.20962e-05 DIIS
   @RHF iter   7:  -669.51534270155139   -1.28311e-05   4.15186e-06 DIIS
   @RHF iter   8:  -669.51534516929723   -2.46775e-06   1.71159e-06 DIIS
   @RHF iter   9:  -669.51534553445708   -3.65160e-07   5.91205e-07 DIIS
   @RHF iter  10:  -669.51534557460764   -4.01506e-08   2.11432e-07 DIIS
   @RHF iter  11:  -669.51534557914511   -4.53747e-09   6.80338e-08 DIIS
   @RHF iter  12:  -669.51534557967364   -5.28530e-10   2.67090e-08 DIIS
   @RHF iter  13:  -669.51534557975083   -7.71934e-11   8.37811e-09 DIIS
   @RHF iter  14:  -669.51534557976197   -1.11413e-11   3.75804e-09 DIIS
   @RHF iter  15:  -669.51534557976106    9.09495e-13   1.94873e-09 DIIS
   @RHF iter  16:  -669.51534557976322   -2.16005e-12   8.98608e-10 DIIS
   @RHF iter  17:  -669.51534557976436   -1.13687e-12   3.15994e-10 DIIS
   @RHF iter  18:  -669.51534557977209   -7.73070e-12   9.96194e-11 DIIS
  Energy and wave function converged.

  ==> Post-Iterations <==

    Orbital Energies [Eh]
    ---------------------

    Doubly Occupied:

       1A    -20.591982     2A    -20.492889     3A    -15.578708
       4A    -11.334953     5A    -11.300912     6A    -11.268365
       7A    -11.246397     8A    -11.239250     9A    -11.237468
      10A    -11.234444    11A    -11.232136    12A    -11.231083
      13A    -11.230662    14A    -11.227990    15A    -11.218219
      16A     -1.407538    17A     -1.355297    18A     -1.249235
      19A     -1.159257    20A     -1.066668    21A     -1.043188
      22A     -1.024772    23A     -1.002702    24A     -0.965185
      25A     -0.929771    26A     -0.850608    27A     -0.849569
      28A     -0.807342    29A     -0.752917    30A     -0.738369
      31A     -0.722989    32A     -0.678443    33A     -0.666312
      34A     -0.645129    35A     -0.643921    36A     -0.612015
      37A     -0.609470    38A     -0.597352    39A     -0.592429
      40A     -0.591713    41A     -0.577991    42A     -0.574815
      43A     -0.570658    44A     -0.540599    45A     -0.532427
      46A     -0.528208    47A     -0.527652    48A     -0.516564
      49A     -0.501217    50A     -0.488381    51A     -0.479989
      52A     -0.472931    53A     -0.399488    54A     -0.393002
      55A     -0.356457    56A     -0.344259    57A     -0.305362

    Virtual:

      58A      0.128977    59A      0.153958    60A      0.156767
      61A      0.183000    62A      0.185896    63A      0.190302
      64A      0.204150    65A      0.208576    66A      0.219136
      67A      0.231744    68A      0.242352    69A      0.253453
      70A      0.257211    71A      0.264663    72A      0.269227
      73A      0.277574    74A      0.283450    75A      0.287071
      76A      0.297298    77A      0.308967    78A      0.330261
      79A      0.347493    80A      0.352273    81A      0.369140
      82A      0.375628    83A      0.391529    84A      0.415197
      85A      0.438279    86A      0.452412    87A      0.458426
      88A      0.477890    89A      0.497085    90A      0.502223
      91A      0.509013    92A      0.540922    93A      0.558718
      94A      0.580852    95A      0.604949    96A      0.624641
      97A      0.634616    98A      0.640355    99A      0.654295
     100A      0.662516   101A      0.666525   102A      0.671404
     103A      0.678518   104A      0.690784   105A      0.701673
     106A      0.708186   107A      0.722568   108A      0.730260
     109A      0.735517   110A      0.742305   111A      0.744461
     112A      0.755715   113A      0.773002   114A      0.779074
     115A      0.789603   116A      0.796286   117A      0.803783
     118A      0.809144   119A      0.832873   120A      0.843213
     121A      0.851822   122A      0.856561   123A      0.868490
     124A      0.874454   125A      0.876333   126A      0.880528
     127A      0.882053   128A      0.889831   129A      0.898197
     130A      0.900718   131A      0.905271   132A      0.916813
     133A      0.926094   134A      0.930147   135A      0.935947
     136A      0.939659   137A      0.941811   138A      0.947580
     139A      0.959300   140A      0.968482   141A      1.000748
     142A      1.012920   143A      1.022204   144A      1.038098
     145A      1.050960   146A      1.065375   147A      1.068842
     148A      1.121541   149A      1.129502   150A      1.138021
     151A      1.145856   152A      1.151672   153A      1.168767
     154A      1.171408   155A      1.196651   156A      1.225173
     157A      1.237672   158A      1.240465   159A      1.245828
     160A      1.255591   161A      1.289799   162A      1.294856
     163A      1.301936   164A      1.316205   165A      1.323293
     166A      1.347058   167A      1.368360   168A      1.372634
     169A      1.397335   170A      1.399519   171A      1.422368
     172A      1.431440   173A      1.457653   174A      1.466720
     175A      1.479264   176A      1.500195   177A      1.517974
     178A      1.534558   179A      1.557781   180A      1.561308
     181A      1.570553   182A      1.590599   183A      1.605745
     184A      1.620400   185A      1.640569   186A      1.647708
     187A      1.662059   188A      1.676396   189A      1.693913
     190A      1.701994   191A      1.722242   192A      1.735668
     193A      1.746328   194A      1.771123   195A      1.776971
     196A      1.783938   197A      1.800848   198A      1.811605
     199A      1.817566   200A      1.838066   201A      1.850644
     202A      1.877491   203A      1.883137   204A      1.890305
     205A      1.894430   206A      1.903519   207A      1.905625
     208A      1.912124   209A      1.918092   210A      1.928533
     211A      1.932834   212A      1.943126   213A      1.949909
     214A      1.958203   215A      1.966375   216A      1.974737
     217A      1.981742   218A      1.985603   219A      2.006317
     220A      2.027759   221A      2.036861   222A      2.044613
     223A      2.047342   224A      2.055979   225A      2.061102
     226A      2.066065   227A      2.068364   228A      2.079998
     229A      2.117338   230A      2.136427   231A      2.144828
     232A      2.152262   233A      2.158738   234A      2.165763
     235A      2.180975   236A      2.187938   237A      2.197887
     238A      2.212874   239A      2.223761   240A      2.232066
     241A      2.250710   242A      2.262683   243A      2.263873
     244A      2.283444   245A      2.286138   246A      2.293467
     247A      2.320221   248A      2.341997   249A      2.357769
     250A      2.382626   251A      2.423535   252A      2.432722
     253A      2.444119   254A      2.465929   255A      2.476674
     256A      2.494200   257A      2.505161   258A      2.518988
     259A      2.545196   260A      2.555073   261A      2.555921
     262A      2.575115   263A      2.605246   264A      2.614916
     265A      2.647170   266A      2.654762   267A      2.716622
     268A      2.759428   269A      2.762195   270A      2.767257
     271A      2.776333   272A      2.783435   273A      2.785922
     274A      2.803884   275A      2.806287   276A      2.810967
     277A      2.827739   278A      2.842070   279A      2.843278
     280A      2.851788   281A      2.912303   282A      2.928728
     283A      2.972013   284A      2.990912   285A      3.013806
     286A      3.034652   287A      3.098377   288A      3.104687
     289A      3.118010   290A      3.131500   291A      3.172508
     292A      3.227555   293A      3.240996   294A      3.298865
     295A      3.316510   296A      3.341427   297A      3.357644
     298A      3.527958   299A      3.607163   300A      3.692618
     301A      3.830136   302A      3.903201   303A      3.983781
     304A      4.213775   305A      5.028834

    Final Occupation by Irrep:
              A
    DOCC [    57 ]

  @RHF Final Energy:  -669.51534557977209

   => Energetics <=

    Nuclear Repulsion Energy =            977.5291760748494880
    One-Electron Energy =               -2851.4137472026150135
    Two-Electron Energy =                1204.3692255479934374
    Total Energy =                       -669.5153455797719744

Computation Completed

Properties will be evaluated at   0.000000,   0.000000,   0.000000 [a0]

Properties computed using the SCF density matrix

  Nuclear Dipole Moment: [e a0]
     X:    -5.2332      Y:    -3.6511      Z:     4.1294

  Electronic Dipole Moment: [e a0]
     X:     5.1961      Y:     2.2384      Z:    -3.6833

  Dipole Moment: [e a0]
     X:    -0.0371      Y:    -1.4127      Z:     0.4461     Total:     1.4819

  Dipole Moment: [D]
     X:    -0.0942      Y:    -3.5906      Z:     1.1339     Total:     3.7666

*** tstop() called on ds3 at Tue Apr 28 13:04:12 2020
Module time:
	user time   =     466.44 seconds =       7.77 minutes
	system time =     160.80 seconds =       2.68 minutes
	total time  =       1253 seconds =      20.88 minutes
Total time:
	user time   =     466.44 seconds =       7.77 minutes
	system time =     160.80 seconds =       2.68 minutes
	total time  =       1253 seconds =      20.88 minutes
                                     G D M A

                                 by Anthony Stone

                           version 2.2.06, 22 June 2011

               Distributed Multipoles from Gaussian wavefunctions

Starting at 13:4:13 on 28 Apr 2020

Using SCF density matrix from file ./SSI/SSI-004PRO-009TYR-1-dimer.test.15322.fchk

                         Distributed Multipole Analysis

Standard DMA

Positions and radii in angstrom
Multipole moments in atomic units, ea_0^k for rank k

C          x = -2.776363  y =  0.121057  z =  1.485534 angstrom
           Maximum rank =  0   Radius =  0.650 angstrom
                   Q00  =   0.012467

C          x = -2.946363  y = -0.109943  z =  2.970534 angstrom
           Maximum rank =  0   Radius =  0.650 angstrom
                   Q00  =  -0.252330

C          x = -1.651363  y =  1.890057  z =  2.717534 angstrom
           Maximum rank =  0   Radius =  0.650 angstrom
                   Q00  =  -0.089767

C          x = -2.507363  y =  1.677057  z = -0.990466 angstrom
           Maximum rank =  0   Radius =  0.650 angstrom
                   Q00  =  -0.261842

C          x = -1.975363  y =  2.209057  z =  0.331534 angstrom
           Maximum rank =  0   Radius =  0.650 angstrom
                   Q00  =   0.740326

O          x = -1.521363  y =  3.358057  z =  0.404534 angstrom
           Maximum rank =  0   Radius =  0.650 angstrom
                   Q00  =  -0.796740

N          x = -2.093363  y =  1.424057  z =  1.406534 angstrom
           Maximum rank =  0   Radius =  0.650 angstrom
                   Q00  =  -0.465191

H          x = -2.166363  y = -0.668943  z =  1.054534 angstrom
           Maximum rank =  0   Radius =  0.325 angstrom
                   Q00  =   0.079181

H          x = -3.752363  y =  0.145057  z =  1.003534 angstrom
           Maximum rank =  0   Radius =  0.325 angstrom
                   Q00  =   0.080139

H          x = -2.909363  y = -1.170943  z =  3.217534 angstrom
           Maximum rank =  0   Radius =  0.325 angstrom
                   Q00  =   0.092605

H          x = -3.891363  y =  0.324057  z =  3.300534 angstrom
           Maximum rank =  0   Radius =  0.325 angstrom
                   Q00  =   0.097228

H          x = -2.337363  y =  2.664057  z =  3.065534 angstrom
           Maximum rank =  0   Radius =  0.325 angstrom
                   Q00  =   0.103159

H          x = -2.367363  y =  0.596057  z = -1.020466 angstrom
           Maximum rank =  0   Radius =  0.325 angstrom
                   Q00  =   0.098485

H          x = -2.110143  y =  0.440547  z =  3.426262 angstrom
           Maximum rank =  0   Radius =  0.325 angstrom
                   Q00  =   0.098909

H          x = -1.751443  y =  0.997977  z =  3.353290 angstrom
           Maximum rank =  0   Radius =  0.325 angstrom
                   Q00  =   0.107821

H          x = -0.619553  y =  2.270767  z =  2.696624 angstrom
           Maximum rank =  0   Radius =  0.325 angstrom
                   Q00  =   0.092670

H          x = -3.574963  y =  1.935327  z = -1.049776 angstrom
           Maximum rank =  0   Radius =  0.325 angstrom
                   Q00  =   0.119465

H          x = -1.941723  y =  2.110957  z = -1.828186 angstrom
           Maximum rank =  0   Radius =  0.325 angstrom
                   Q00  =   0.130420

C          x =  4.078637  y = -2.602943  z = -2.866466 angstrom
           Maximum rank =  0   Radius =  0.650 angstrom
                   Q00  =  -0.190354

C          x =  1.129637  y = -0.867943  z = -0.305466 angstrom
           Maximum rank =  0   Radius =  0.650 angstrom
                   Q00  =   0.318496

C          x =  2.398637  y = -0.315943  z = -0.363466 angstrom
           Maximum rank =  0   Radius =  0.650 angstrom
                   Q00  =  -0.190254

C          x =  0.811637  y = -1.959943  z = -1.098466 angstrom
           Maximum rank =  0   Radius =  0.650 angstrom
                   Q00  =  -0.099839

C          x =  3.338637  y = -0.859943  z = -1.218466 angstrom
           Maximum rank =  0   Radius =  0.650 angstrom
                   Q00  =   0.046156

C          x =  1.772637  y = -2.527943  z = -1.911466 angstrom
           Maximum rank =  0   Radius =  0.650 angstrom
                   Q00  =  -0.051325

C          x =  3.033637  y = -1.967943  z = -2.000466 angstrom
           Maximum rank =  0   Radius =  0.650 angstrom
                   Q00  =  -0.135957

O          x =  0.174637  y = -0.370943  z =  0.524534 angstrom
           Maximum rank =  0   Radius =  0.650 angstrom
                   Q00  =  -0.674261

H          x =  0.496637  y =  0.384057  z =  1.042534 angstrom
           Maximum rank =  0   Radius =  0.325 angstrom
                   Q00  =   0.417142

H          x =  2.650637  y =  0.529057  z =  0.258534 angstrom
           Maximum rank =  0   Radius =  0.325 angstrom
                   Q00  =   0.077544

H          x = -0.176363  y = -2.385943  z = -1.039466 angstrom
           Maximum rank =  0   Radius =  0.325 angstrom
                   Q00  =   0.075922

H          x =  4.328637  y = -0.425943  z = -1.267466 angstrom
           Maximum rank =  0   Radius =  0.325 angstrom
                   Q00  =   0.067554

H          x =  1.538637  y = -3.405943  z = -2.496466 angstrom
           Maximum rank =  0   Radius =  0.325 angstrom
                   Q00  =   0.061754

H          x =  4.725637  y = -1.818943  z = -3.250466 angstrom
           Maximum rank =  0   Radius =  0.325 angstrom
                   Q00  =   0.096580

H          x =  3.586637  y = -3.073943  z = -3.719466 angstrom
           Maximum rank =  0   Radius =  0.325 angstrom
                   Q00  =   0.094147

H          x =  4.689687  y = -3.352805  z = -2.342706 angstrom
           Maximum rank =  0   Radius =  0.325 angstrom
                   Q00  =   0.099691

Total multipoles referred to origin at
           x =   0.000000,  y =    0.000000,  z =    0.000000 angstrom
                   Q00  =  -0.000000

Finished at 13:4:13 on 28 Apr 2020

  DMA results are available in the Python driver through the
	  variable('DMA DISTRIBUTED MULTIPOLES')
  and
	  variable('DMA TOTAL MULTIPOLES')
  commands.

    Psi4 stopped on: Tuesday, 28 April 2020 01:04PM
    Psi4 wall time for execution: 0:20:53.44

*** Psi4 exiting successfully. Buy a developer a beer!
