                               Psi4 1.3.2 release

  ==> Input File <==

--------------------------------------------------------------------------
import numpy as np
set {scf_type pk
basis cc-pvdz
d_convergence 10
gdma_switch   0
gdma_limit    0
gdma_origin   [ 0.0,  0.0,  0.0 ]
}
molecule test {
    units Angstrom
    -2 1
    --
    -2 1
    C                0.436262025089470     0.633384669055152    -2.156768006408494
    C                1.495262025089470     0.709384669055152    -1.050768006408494
    O                1.134262025089470     1.081384669055152     0.084231993591506
    O                2.690262025089470     0.432384669055152    -1.306768006408494
    H                0.107262025089470     1.650384669055152    -2.382768006408494
    H               -0.446737974910530     0.093384669055152    -1.809768006408494
    H                0.796432025089470     0.193894669055152    -3.098638006408494
    C               -0.383737974910529    -1.514615330944848     1.725231993591506
    C               -1.493737974910529    -0.673615330944848     1.069231993591506
    O               -2.554737974910530    -1.237615330944848     0.701231993591506
    O               -1.320737974910529     0.559384669055152     0.933231993591506
    H               -0.122737974910530    -1.088615330944848     2.697231993591506
    H                0.507262025089470    -1.478615330944848     1.099231993591506
    H               -0.676377974910530    -2.564275330944848     1.875491993591506

}
e, wfn = energy('scf', return_wfn=True)
gdma(wfn)
dmavals = variable('DMA DISTRIBUTED MULTIPOLES')
charges = np.array(dmavals)
print(charges)
np.save('SSI-075GLU-079GLU-2-dimer.npy', np.array(charges))--------------------------------------------------------------------------

*** tstart() called on ds3
*** at Tue Apr 28 02:01:11 2020

   => Loading Basis Set <=

    Name: CC-PVDZ
    Role: ORBITAL
    Keyword: BASIS
    atoms 1-2, 8-9   entry C          line   138 file /theoryfs2/ds/metcalf/miniconda2/envs/tf2gpu/share/psi4/basis/cc-pvdz.gbs
    atoms 3-4, 10-11 entry O          line   198 file /theoryfs2/ds/metcalf/miniconda2/envs/tf2gpu/share/psi4/basis/cc-pvdz.gbs
    atoms 5-7, 12-14 entry H          line    22 file /theoryfs2/ds/metcalf/miniconda2/envs/tf2gpu/share/psi4/basis/cc-pvdz.gbs

         ---------------------------------------------------------
                                   SCF
               by Justin Turney, Rob Parrish, Andy Simmonett
                          and Daniel G. A. Smith
                              RHF Reference
                        1 Threads,    500 MiB Core
         ---------------------------------------------------------

  ==> Geometry <==

    Molecular point group: c1
    Full point group: C1

    Geometry (in Angstrom), charge = -2, multiplicity = 1:

       Center              X                  Y                   Z               Mass
    ------------   -----------------  -----------------  -----------------  -----------------
         C            0.436262025089     0.633384669055    -2.156768006408    12.000000000000
         C            1.495262025089     0.709384669055    -1.050768006408    12.000000000000
         O            1.134262025089     1.081384669055     0.084231993592    15.994914619570
         O            2.690262025089     0.432384669055    -1.306768006408    15.994914619570
         H            0.107262025089     1.650384669055    -2.382768006408     1.007825032230
         H           -0.446737974911     0.093384669055    -1.809768006408     1.007825032230
         H            0.796432025089     0.193894669055    -3.098638006408     1.007825032230
         C           -0.383737974911    -1.514615330945     1.725231993592    12.000000000000
         C           -1.493737974911    -0.673615330945     1.069231993592    12.000000000000
         O           -2.554737974911    -1.237615330945     0.701231993592    15.994914619570
         O           -1.320737974911     0.559384669055     0.933231993592    15.994914619570
         H           -0.122737974911    -1.088615330945     2.697231993592     1.007825032230
         H            0.507262025089    -1.478615330945     1.099231993592     1.007825032230
         H           -0.676377974911    -2.564275330945     1.875491993592     1.007825032230

  Running in c1 symmetry.

  Rotational constants: A =      0.12025  B =      0.03105  C =      0.02880 [cm^-1]
  Rotational constants: A =   3604.87596  B =    930.70655  C =    863.47006 [MHz]
  Nuclear repulsion =  350.123406464808738

  Charge       = -2
  Multiplicity = 1
  Electrons    = 64
  Nalpha       = 32
  Nbeta        = 32

  ==> Algorithm <==

  SCF Algorithm Type is PK.
  DIIS enabled.
  MOM disabled.
  Fractional occupation disabled.
  Guess Type is SAD.
  Energy threshold   = 1.00e-06
  Density threshold  = 1.00e-10
  Integral threshold = 0.00e+00

  ==> Primary Basis <==

  Basis Set: CC-PVDZ
    Blend: CC-PVDZ
    Number of shells: 66
    Number of basis function: 142
    Number of Cartesian functions: 150
    Spherical Harmonics?: true
    Max angular momentum: 2

  ==> Pre-Iterations <==

   -------------------------------------------------------
    Irrep   Nso     Nmo     Nalpha   Nbeta   Ndocc  Nsocc
   -------------------------------------------------------
     A        142     142       0       0       0       0
   -------------------------------------------------------
    Total     142     142      32      32      32       0
   -------------------------------------------------------

  ==> Integral Setup <==

  Using integral reordering PK algorithm.
  Sizing the integral batches needed.
  Building batch lookup table.
   Calculation information:
      Number of atoms:                  14
      Number of AO shells:              66
      Number of primitives:            206
      Number of atomic orbitals:       150
      Number of basis functions:       142

      Integral cutoff                 1.00e-12
      Number of threads:                 1

	Batch   1 pq = [       0,    9405] index = [             0,44231715] size =     44231715
	Batch   2 pq = [    9405,   10153] index = [      44231715,51546781] size =      7315066
  Task number: 5
  Buffer size: 11059200
  Buffer per thread: 2
  We computed 2046765 shell quartets total.
  Whereas there are 2445366 unique shell quartets.

  ==> DiskJK: Disk-Based J/K Matrices <==

    J tasked:                  Yes
    K tasked:                  Yes
    wK tasked:                  No
    Memory [MiB]:              375
    Schwarz Cutoff:          1E-12

    OpenMP threads:              1

  Minimum eigenvalue in the overlap matrix is 5.6512729035E-03.
  Using Symmetric Orthogonalization.

  SCF Guess: Superposition of Atomic Densities via on-the-fly atomic UHF.

  ==> Iterations <==

                        Total Energy        Delta E     RMS |[F,P]|

   @RHF iter SAD:  -452.28596088981300   -4.52286e+02   0.00000e+00
   @RHF iter   1:  -453.97067707411270   -1.68472e+00   6.45289e-03 DIIS
   @RHF iter   2:  -454.23772731109324   -2.67050e-01   3.88104e-03 DIIS
   @RHF iter   3:  -454.34194212259871   -1.04215e-01   4.94235e-04 DIIS
   @RHF iter   4:  -454.34496190353207   -3.01978e-03   1.84785e-04 DIIS
   @RHF iter   5:  -454.34547899727676   -5.17094e-04   4.49875e-05 DIIS
   @RHF iter   6:  -454.34550192701187   -2.29297e-05   1.95788e-05 DIIS
   @RHF iter   7:  -454.34550635706569   -4.43005e-06   2.91655e-06 DIIS
   @RHF iter   8:  -454.34550661645477   -2.59389e-07   1.20182e-06 DIIS
   @RHF iter   9:  -454.34550665964622   -4.31914e-08   4.90835e-07 DIIS
   @RHF iter  10:  -454.34550666688699   -7.24077e-09   1.76179e-07 DIIS
   @RHF iter  11:  -454.34550666784196   -9.54969e-10   4.87245e-08 DIIS
   @RHF iter  12:  -454.34550666788255   -4.05862e-11   1.95053e-08 DIIS
   @RHF iter  13:  -454.34550666788829   -5.74119e-12   4.62614e-09 DIIS
   @RHF iter  14:  -454.34550666788880   -5.11591e-13   1.51822e-09 DIIS
   @RHF iter  15:  -454.34550666788948   -6.82121e-13   7.28122e-10 DIIS
   @RHF iter  16:  -454.34550666788999   -5.11591e-13   2.97150e-10 DIIS
   @RHF iter  17:  -454.34550666788954    4.54747e-13   1.41766e-10 DIIS
   @RHF iter  18:  -454.34550666788812    1.42109e-12   4.76673e-11 DIIS
  Energy and wave function converged.

  ==> Post-Iterations <==

    Orbital Energies [Eh]
    ---------------------

    Doubly Occupied:

       1A    -20.129072     2A    -20.127627     3A    -20.115566
       4A    -20.114762     5A    -10.983533     6A    -10.983144
       7A    -10.923019     8A    -10.922223     9A     -1.016128
      10A     -1.010761    11A     -0.899643    12A     -0.893599
      13A     -0.665087    14A     -0.662874    15A     -0.370867
      16A     -0.366699    17A     -0.282920    18A     -0.278293
      19A     -0.275268    20A     -0.272571    21A     -0.270024
      22A     -0.261775    23A     -0.213141    24A     -0.203709
      25A     -0.173179    26A     -0.168448    27A     -0.054489
      28A     -0.051387    29A     -0.044083    30A     -0.028327
      31A     -0.025677    32A     -0.006407

    Virtual:

      33A      0.470334    34A      0.483754    35A      0.520469
      36A      0.525652    37A      0.545864    38A      0.559965
      39A      0.611330    40A      0.639720    41A      0.696639
      42A      0.701634    43A      0.814010    44A      0.821556
      45A      0.845456    46A      0.889846    47A      0.934609
      48A      0.954686    49A      0.993548    50A      1.023935
      51A      1.072716    52A      1.091411    53A      1.110146
      54A      1.125266    55A      1.151204    56A      1.163218
      57A      1.168337    58A      1.178763    59A      1.181121
      60A      1.193371    61A      1.223553    62A      1.243317
      63A      1.268186    64A      1.291608    65A      1.352724
      66A      1.390873    67A      1.434332    68A      1.462543
      69A      1.478868    70A      1.492409    71A      1.512662
      72A      1.554175    73A      1.618297    74A      1.678681
      75A      1.687192    76A      1.691144    77A      1.699782
      78A      1.714127    79A      1.717629    80A      1.774018
      81A      1.791589    82A      1.795819    83A      1.811583
      84A      1.865555    85A      1.866505    86A      1.970777
      87A      1.977173    88A      1.980049    89A      1.992064
      90A      2.045148    91A      2.155128    92A      2.195631
      93A      2.213202    94A      2.215286    95A      2.223684
      96A      2.243457    97A      2.253237    98A      2.261143
      99A      2.336033   100A      2.356775   101A      2.399583
     102A      2.405609   103A      2.455663   104A      2.458704
     105A      2.555104   106A      2.562361   107A      2.563280
     108A      2.595843   109A      2.711248   110A      2.726697
     111A      2.774684   112A      2.789948   113A      2.853088
     114A      2.863751   115A      2.914964   116A      2.933276
     117A      3.038820   118A      3.048678   119A      3.105938
     120A      3.111827   121A      3.119308   122A      3.130132
     123A      3.378967   124A      3.381349   125A      3.413405
     126A      3.415786   127A      3.430278   128A      3.434660
     129A      3.494212   130A      3.503368   131A      3.772949
     132A      3.778585   133A      3.897208   134A      3.907840
     135A      3.952317   136A      3.961833   137A      4.181762
     138A      4.190252   139A      4.212483   140A      4.257985
     141A      4.326212   142A      4.333785

    Final Occupation by Irrep:
              A
    DOCC [    32 ]

  @RHF Final Energy:  -454.34550666788812

   => Energetics <=

    Nuclear Repulsion Energy =            350.1234064648087383
    One-Electron Energy =               -1343.3492277942400506
    Two-Electron Energy =                 538.8803146615431388
    Total Energy =                       -454.3455066678881167

Computation Completed

Properties will be evaluated at   0.000000,   0.000000,   0.000000 [a0]

Properties computed using the SCF density matrix

  Nuclear Dipole Moment: [e a0]
     X:     0.1545      Y:    -2.9901      Z:    -1.5160

  Electronic Dipole Moment: [e a0]
     X:    -0.1163      Y:     2.3877      Z:     1.2224

  Dipole Moment: [e a0]
     X:     0.0383      Y:    -0.6024      Z:    -0.2936     Total:     0.6712

  Dipole Moment: [D]
     X:     0.0973      Y:    -1.5311      Z:    -0.7462     Total:     1.7060

*** tstop() called on ds3 at Tue Apr 28 02:01:37 2020
Module time:
	user time   =      18.43 seconds =       0.31 minutes
	system time =       7.71 seconds =       0.13 minutes
	total time  =         26 seconds =       0.43 minutes
Total time:
	user time   =      18.43 seconds =       0.31 minutes
	system time =       7.71 seconds =       0.13 minutes
	total time  =         26 seconds =       0.43 minutes
                                     G D M A

                                 by Anthony Stone

                           version 2.2.06, 22 June 2011

               Distributed Multipoles from Gaussian wavefunctions

Starting at 2:1:37 on 28 Apr 2020

Using SCF density matrix from file ./SSI/SSI-075GLU-079GLU-2-dimer.test.10277.fchk

                         Distributed Multipole Analysis

Standard DMA

Positions and radii in angstrom
Multipole moments in atomic units, ea_0^k for rank k

C          x =  0.436262  y =  0.633385  z = -2.156768 angstrom
           Maximum rank =  0   Radius =  0.650 angstrom
                   Q00  =  -0.295734

C          x =  1.495262  y =  0.709385  z = -1.050768 angstrom
           Maximum rank =  0   Radius =  0.650 angstrom
                   Q00  =   0.987745

O          x =  1.134262  y =  1.081385  z =  0.084232 angstrom
           Maximum rank =  0   Radius =  0.650 angstrom
                   Q00  =  -0.893685

O          x =  2.690262  y =  0.432385  z = -1.306768 angstrom
           Maximum rank =  0   Radius =  0.650 angstrom
                   Q00  =  -0.971465

H          x =  0.107262  y =  1.650385  z = -2.382768 angstrom
           Maximum rank =  0   Radius =  0.325 angstrom
                   Q00  =   0.057483

H          x = -0.446738  y =  0.093385  z = -1.809768 angstrom
           Maximum rank =  0   Radius =  0.325 angstrom
                   Q00  =   0.121697

H          x =  0.796432  y =  0.193895  z = -3.098638 angstrom
           Maximum rank =  0   Radius =  0.325 angstrom
                   Q00  =  -0.005091

C          x = -0.383738  y = -1.514615  z =  1.725232 angstrom
           Maximum rank =  0   Radius =  0.650 angstrom
                   Q00  =  -0.288215

C          x = -1.493738  y = -0.673615  z =  1.069232 angstrom
           Maximum rank =  0   Radius =  0.650 angstrom
                   Q00  =   0.982314

O          x = -2.554738  y = -1.237615  z =  0.701232 angstrom
           Maximum rank =  0   Radius =  0.650 angstrom
                   Q00  =  -0.972159

O          x = -1.320738  y =  0.559385  z =  0.933232 angstrom
           Maximum rank =  0   Radius =  0.650 angstrom
                   Q00  =  -0.889495

H          x = -0.122738  y = -1.088615  z =  2.697232 angstrom
           Maximum rank =  0   Radius =  0.325 angstrom
                   Q00  =   0.052797

H          x =  0.507262  y = -1.478615  z =  1.099232 angstrom
           Maximum rank =  0   Radius =  0.325 angstrom
                   Q00  =   0.120433

H          x = -0.676378  y = -2.564275  z =  1.875492 angstrom
           Maximum rank =  0   Radius =  0.325 angstrom
                   Q00  =  -0.006623

Total multipoles referred to origin at
           x =   0.000000,  y =    0.000000,  z =    0.000000 angstrom
                   Q00  =  -2.000000

Finished at 2:1:37 on 28 Apr 2020

  DMA results are available in the Python driver through the
	  variable('DMA DISTRIBUTED MULTIPOLES')
  and
	  variable('DMA TOTAL MULTIPOLES')
  commands.

    Psi4 stopped on: Tuesday, 28 April 2020 02:01AM
    Psi4 wall time for execution: 0:00:26.14

*** Psi4 exiting successfully. Buy a developer a beer!
