                               Psi4 1.3.2 release

  ==> Input File <==

--------------------------------------------------------------------------
import numpy as np
set {scf_type pk
basis cc-pvdz
d_convergence 10
gdma_switch   0
gdma_limit    0
gdma_origin   [ 0.0,  0.0,  0.0 ]
}
molecule test {
    units Angstrom
    0 1
    --
    0 1
    C               -1.156617642714976     0.875697613137140    -3.833378047708765
    C               -0.190617642714976     0.866697613137140    -0.220378047708765
    C               -0.677617642714976     0.184697613137140    -1.366378047708765
    C               -0.708617642714976     1.134697613137140    -2.444378047708765
    C               -0.198617642714976     2.293697613137140    -1.952378047708765
    C               -0.497617642714976    -1.067302386862861     1.125621952291235
    C               -0.103617642714976     0.255697613137140     1.019621952291235
    C               -0.995617642714976    -1.762302386862861     0.014621952291235
    C               -1.098617642714976    -1.145302386862861    -1.229378047708765
    N                0.103382357285024     2.144697613137140    -0.616378047708765
    H               -0.423617642714976    -1.574302386862860     2.077621952291234
    H                0.297382357285024     0.781697613137140     1.857621952291235
    H               -1.305617642714976    -2.785302386862861     0.136621952291235
    H               -1.504617642714976    -1.681302386862860    -2.076378047708765
    H                0.486382357285024     2.878697613137140    -0.030378047708765
    H               -0.063617642714976     3.205697613137140    -2.526378047708765
    H               -1.278617642714976     1.822697613137140    -4.362378047708765
    H               -2.135617642714976     0.406697613137140    -3.771378047708765
    H               -0.481178642714976     0.216097613137140    -4.397924047708765
    C                2.451382357285024    -1.761302386862860     3.509621952291235
    C                2.370382357285024    -1.764302386862861     5.039621952291235
    H                2.369382357285024    -0.746302386862860     3.123621952291235
    H                3.414382357285024    -2.158302386862860     3.196621952291235
    H                1.661382357285024    -2.384302386862860     3.091621952291235
    H                3.120382357285024    -1.067302386862861     5.415621952291234
    H                1.385528357285024    -1.453262386862860     5.418190952291234
    H                2.616083257285024    -2.764502386862860     5.425930952291234

}
e, wfn = energy('scf', return_wfn=True)
gdma(wfn)
dmavals = variable('DMA DISTRIBUTED MULTIPOLES')
charges = np.array(dmavals)
print(charges)
np.save('SSI-051TRP-095LEU-1-dimer.npy', np.array(charges))--------------------------------------------------------------------------

*** tstart() called on ds3
*** at Mon Apr 27 23:37:49 2020

   => Loading Basis Set <=

    Name: CC-PVDZ
    Role: ORBITAL
    Keyword: BASIS
    atoms 1-9, 20-21   entry C          line   138 file /theoryfs2/ds/metcalf/miniconda2/envs/tf2gpu/share/psi4/basis/cc-pvdz.gbs
    atoms 10           entry N          line   168 file /theoryfs2/ds/metcalf/miniconda2/envs/tf2gpu/share/psi4/basis/cc-pvdz.gbs
    atoms 11-19, 22-27 entry H          line    22 file /theoryfs2/ds/metcalf/miniconda2/envs/tf2gpu/share/psi4/basis/cc-pvdz.gbs

         ---------------------------------------------------------
                                   SCF
               by Justin Turney, Rob Parrish, Andy Simmonett
                          and Daniel G. A. Smith
                              RHF Reference
                        1 Threads,    500 MiB Core
         ---------------------------------------------------------

  ==> Geometry <==

    Molecular point group: c1
    Full point group: C1

    Geometry (in Angstrom), charge = 0, multiplicity = 1:

       Center              X                  Y                   Z               Mass
    ------------   -----------------  -----------------  -----------------  -----------------
         C           -1.156617642715     0.875697613137    -3.833378047709    12.000000000000
         C           -0.190617642715     0.866697613137    -0.220378047709    12.000000000000
         C           -0.677617642715     0.184697613137    -1.366378047709    12.000000000000
         C           -0.708617642715     1.134697613137    -2.444378047709    12.000000000000
         C           -0.198617642715     2.293697613137    -1.952378047709    12.000000000000
         C           -0.497617642715    -1.067302386863     1.125621952291    12.000000000000
         C           -0.103617642715     0.255697613137     1.019621952291    12.000000000000
         C           -0.995617642715    -1.762302386863     0.014621952291    12.000000000000
         C           -1.098617642715    -1.145302386863    -1.229378047709    12.000000000000
         N            0.103382357285     2.144697613137    -0.616378047709    14.003074004430
         H           -0.423617642715    -1.574302386863     2.077621952291     1.007825032230
         H            0.297382357285     0.781697613137     1.857621952291     1.007825032230
         H           -1.305617642715    -2.785302386863     0.136621952291     1.007825032230
         H           -1.504617642715    -1.681302386863    -2.076378047709     1.007825032230
         H            0.486382357285     2.878697613137    -0.030378047709     1.007825032230
         H           -0.063617642715     3.205697613137    -2.526378047709     1.007825032230
         H           -1.278617642715     1.822697613137    -4.362378047709     1.007825032230
         H           -2.135617642715     0.406697613137    -3.771378047709     1.007825032230
         H           -0.481178642715     0.216097613137    -4.397924047709     1.007825032230
         C            2.451382357285    -1.761302386863     3.509621952291    12.000000000000
         C            2.370382357285    -1.764302386863     5.039621952291    12.000000000000
         H            2.369382357285    -0.746302386863     3.123621952291     1.007825032230
         H            3.414382357285    -2.158302386863     3.196621952291     1.007825032230
         H            1.661382357285    -2.384302386863     3.091621952291     1.007825032230
         H            3.120382357285    -1.067302386863     5.415621952291     1.007825032230
         H            1.385528357285    -1.453262386863     5.418190952291     1.007825032230
         H            2.616083257285    -2.764502386863     5.425930952291     1.007825032230

  Running in c1 symmetry.

  Rotational constants: A =      0.06513  B =      0.01205  C =      0.01066 [cm^-1]
  Rotational constants: A =   1952.61309  B =    361.12509  C =    319.56701 [MHz]
  Nuclear repulsion =  635.502554463934302

  Charge       = 0
  Multiplicity = 1
  Electrons    = 88
  Nalpha       = 44
  Nbeta        = 44

  ==> Algorithm <==

  SCF Algorithm Type is PK.
  DIIS enabled.
  MOM disabled.
  Fractional occupation disabled.
  Guess Type is SAD.
  Energy threshold   = 1.00e-06
  Density threshold  = 1.00e-10
  Integral threshold = 0.00e+00

  ==> Primary Basis <==

  Basis Set: CC-PVDZ
    Blend: CC-PVDZ
    Number of shells: 117
    Number of basis function: 243
    Number of Cartesian functions: 255
    Spherical Harmonics?: true
    Max angular momentum: 2

  ==> Pre-Iterations <==

   -------------------------------------------------------
    Irrep   Nso     Nmo     Nalpha   Nbeta   Ndocc  Nsocc
   -------------------------------------------------------
     A        243     243       0       0       0       0
   -------------------------------------------------------
    Total     243     243      44      44      44       0
   -------------------------------------------------------

  ==> Integral Setup <==

  Using integral reordering PK algorithm.
  Sizing the integral batches needed.
  Building batch lookup table.
   Calculation information:
      Number of atoms:                  27
      Number of AO shells:             117
      Number of primitives:            339
      Number of atomic orbitals:       255
      Number of basis functions:       243

      Integral cutoff                 1.00e-12
      Number of threads:                 1

	Batch   1 pq = [       0,    9405] index = [             0,44231715] size =     44231715
	Batch   2 pq = [    9405,   13301] index = [      44231715,88464951] size =     44233236
	Batch   3 pq = [   13301,   16290] index = [      88464951,132690195] size =     44225244
	Batch   4 pq = [   16290,   18810] index = [     132690195,176917455] size =     44227260
	Batch   5 pq = [   18810,   21030] index = [     176917455,221140965] size =     44223510
	Batch   6 pq = [   21030,   23037] index = [     221140965,265363203] size =     44222238
	Batch   7 pq = [   23037,   24883] index = [     265363203,309594286] size =     44231083
	Batch   8 pq = [   24883,   26601] index = [     309594286,353819901] size =     44225615
	Batch   9 pq = [   26601,   28214] index = [     353819901,398029005] size =     44209104
	Batch  10 pq = [   28214,   29646] index = [     398029005,439457481] size =     41428476
  Task number: 40
  Buffer size: 11059200
  Buffer per thread: 2
  We computed 18076486 shell quartets total.
  Whereas there are 23829156 unique shell quartets.

  ==> DiskJK: Disk-Based J/K Matrices <==

    J tasked:                  Yes
    K tasked:                  Yes
    wK tasked:                  No
    Memory [MiB]:              375
    Schwarz Cutoff:          1E-12

    OpenMP threads:              1

  Minimum eigenvalue in the overlap matrix is 2.4821468571E-04.
  Using Symmetric Orthogonalization.

  SCF Guess: Superposition of Atomic Densities via on-the-fly atomic UHF.

  ==> Iterations <==

                        Total Energy        Delta E     RMS |[F,P]|

   @RHF iter SAD:  -479.05841227692838   -4.79058e+02   0.00000e+00
   @RHF iter   1:  -479.48855874994945   -4.30146e-01   2.61266e-03 DIIS
   @RHF iter   2:  -479.72218972887265   -2.33631e-01   1.16148e-03 DIIS
   @RHF iter   3:  -479.76422457462098   -4.20348e-02   3.02949e-04 DIIS
   @RHF iter   4:  -479.76801844549209   -3.79387e-03   1.39941e-04 DIIS
   @RHF iter   5:  -479.76867095768114   -6.52512e-04   1.98569e-05 DIIS
   @RHF iter   6:  -479.76869990165994   -2.89440e-05   9.09300e-06 DIIS
   @RHF iter   7:  -479.76870577894317   -5.87728e-06   3.82160e-06 DIIS
   @RHF iter   8:  -479.76870745734527   -1.67840e-06   1.49102e-06 DIIS
   @RHF iter   9:  -479.76870778446903   -3.27124e-07   6.54517e-07 DIIS
   @RHF iter  10:  -479.76870784910449   -6.46355e-08   3.02116e-07 DIIS
   @RHF iter  11:  -479.76870786505413   -1.59496e-08   1.13047e-07 DIIS
   @RHF iter  12:  -479.76870786726926   -2.21513e-09   3.66711e-08 DIIS
   @RHF iter  13:  -479.76870786742296   -1.53705e-10   9.85158e-09 DIIS
   @RHF iter  14:  -479.76870786743007   -7.10543e-12   4.18436e-09 DIIS
   @RHF iter  15:  -479.76870786743387   -3.80851e-12   2.29869e-09 DIIS
   @RHF iter  16:  -479.76870786743888   -5.00222e-12   9.52526e-10 DIIS
   @RHF iter  17:  -479.76870786743507    3.80851e-12   3.75260e-10 DIIS
   @RHF iter  18:  -479.76870786743712   -2.04636e-12   1.51850e-10 DIIS
   @RHF iter  19:  -479.76870786743177    5.34328e-12   5.29940e-11 DIIS
  Energy and wave function converged.

  ==> Post-Iterations <==

    Orbital Energies [Eh]
    ---------------------

    Doubly Occupied:

       1A    -15.599891     2A    -11.263125     3A    -11.262854
       4A    -11.230490     5A    -11.228484     6A    -11.226829
       7A    -11.224634     8A    -11.219762     9A    -11.219328
      10A    -11.218925    11A    -11.215573    12A    -11.215111
      13A     -1.293671    14A     -1.127680    15A     -1.074991
      16A     -1.016194    17A     -0.997502    18A     -0.987390
      19A     -0.931384    20A     -0.839491    21A     -0.836613
      22A     -0.803527    23A     -0.751860    24A     -0.718807
      25A     -0.662825    26A     -0.643020    27A     -0.603284
      28A     -0.597358    29A     -0.594443    30A     -0.591793
      31A     -0.590051    32A     -0.568139    33A     -0.552656
      34A     -0.537857    35A     -0.527777    36A     -0.500282
      37A     -0.494641    38A     -0.484759    39A     -0.483983
      40A     -0.469887    41A     -0.460385    42A     -0.371374
      43A     -0.294574    44A     -0.274916

    Virtual:

      45A      0.125845    46A      0.166973    47A      0.172967
      48A      0.183885    49A      0.190740    50A      0.213686
      51A      0.221516    52A      0.224860    53A      0.233150
      54A      0.243989    55A      0.251293    56A      0.267029
      57A      0.272049    58A      0.282899    59A      0.286945
      60A      0.293308    61A      0.306524    62A      0.338644
      63A      0.376010    64A      0.388183    65A      0.397474
      66A      0.408410    67A      0.429256    68A      0.445566
      69A      0.478284    70A      0.482273    71A      0.496891
      72A      0.510536    73A      0.591367    74A      0.597600
      75A      0.600128    76A      0.609341    77A      0.613585
      78A      0.634042    79A      0.642440    80A      0.665544
      81A      0.676879    82A      0.680223    83A      0.701843
      84A      0.714488    85A      0.723285    86A      0.734353
      87A      0.739491    88A      0.743250    89A      0.745821
      90A      0.763138    91A      0.775271    92A      0.779679
      93A      0.788672    94A      0.791945    95A      0.810558
      96A      0.837204    97A      0.846462    98A      0.871849
      99A      0.879529   100A      0.881274   101A      0.889024
     102A      0.891854   103A      0.894113   104A      0.899304
     105A      0.904568   106A      0.908938   107A      0.920185
     108A      0.923739   109A      0.942797   110A      0.948977
     111A      0.957621   112A      0.964871   113A      0.982902
     114A      0.987367   115A      1.000491   116A      1.019340
     117A      1.062398   118A      1.069103   119A      1.091571
     120A      1.117741   121A      1.122175   122A      1.128883
     123A      1.143240   124A      1.153870   125A      1.159977
     126A      1.176036   127A      1.211108   128A      1.221537
     129A      1.226369   130A      1.242154   131A      1.252092
     132A      1.254129   133A      1.274203   134A      1.290308
     135A      1.306613   136A      1.332198   137A      1.333660
     138A      1.361073   139A      1.374022   140A      1.403021
     141A      1.443669   142A      1.472381   143A      1.481694
     144A      1.520765   145A      1.565823   146A      1.571077
     147A      1.582786   148A      1.601064   149A      1.629157
     150A      1.642258   151A      1.653117   152A      1.683785
     153A      1.685259   154A      1.693720   155A      1.698373
     156A      1.743368   157A      1.768431   158A      1.777602
     159A      1.785995   160A      1.808168   161A      1.825363
     162A      1.833385   163A      1.867377   164A      1.878074
     165A      1.881877   166A      1.885729   167A      1.900242
     168A      1.908506   169A      1.911616   170A      1.923048
     171A      1.936208   172A      1.939303   173A      1.943423
     174A      1.948581   175A      1.952965   176A      1.959492
     177A      1.970252   178A      1.979263   179A      1.986062
     180A      2.004805   181A      2.014706   182A      2.023518
     183A      2.046944   184A      2.074816   185A      2.085767
     186A      2.091333   187A      2.103962   188A      2.107003
     189A      2.114786   190A      2.119522   191A      2.126492
     192A      2.144779   193A      2.160511   194A      2.181540
     195A      2.185454   196A      2.224501   197A      2.243095
     198A      2.293449   199A      2.302719   200A      2.307067
     201A      2.314805   202A      2.323941   203A      2.336083
     204A      2.357540   205A      2.396236   206A      2.424673
     207A      2.449298   208A      2.456154   209A      2.465533
     210A      2.467731   211A      2.536139   212A      2.557248
     213A      2.578039   214A      2.585934   215A      2.611632
     216A      2.643211   217A      2.663114   218A      2.687874
     219A      2.699564   220A      2.758416   221A      2.774385
     222A      2.780259   223A      2.791138   224A      2.795246
     225A      2.810981   226A      2.821986   227A      2.855426
     228A      2.862936   229A      2.877828   230A      2.882965
     231A      2.909319   232A      2.952313   233A      2.968494
     234A      2.973985   235A      3.039227   236A      3.051528
     237A      3.084461   238A      3.124633   239A      3.209091
     240A      3.316639   241A      3.385704   242A      3.743448
     243A      3.959353

    Final Occupation by Irrep:
              A
    DOCC [    44 ]

  @RHF Final Energy:  -479.76870786743177

   => Energetics <=

    Nuclear Repulsion Energy =            635.5025544639343025
    One-Electron Energy =               -1908.9262848128350925
    Two-Electron Energy =                 793.6550224814690182
    Total Energy =                       -479.7687078674317718

Computation Completed

Properties will be evaluated at   0.000000,   0.000000,   0.000000 [a0]

Properties computed using the SCF density matrix

  Nuclear Dipole Moment: [e a0]
     X:     7.6476      Y:    -6.8528      Z:    11.7939

  Electronic Dipole Moment: [e a0]
     X:    -7.3908      Y:     7.6043      Z:   -11.7654

  Dipole Moment: [e a0]
     X:     0.2568      Y:     0.7515      Z:     0.0285     Total:     0.7947

  Dipole Moment: [D]
     X:     0.6528      Y:     1.9101      Z:     0.0723     Total:     2.0199

*** tstop() called on ds3 at Mon Apr 27 23:42:05 2020
Module time:
	user time   =     177.43 seconds =       2.96 minutes
	system time =      83.14 seconds =       1.39 minutes
	total time  =        256 seconds =       4.27 minutes
Total time:
	user time   =     177.43 seconds =       2.96 minutes
	system time =      83.14 seconds =       1.39 minutes
	total time  =        256 seconds =       4.27 minutes
                                     G D M A

                                 by Anthony Stone

                           version 2.2.06, 22 June 2011

               Distributed Multipoles from Gaussian wavefunctions

Starting at 23:42:5 on 27 Apr 2020

Using SCF density matrix from file ./SSI/SSI-051TRP-095LEU-1-dimer.test.3481.fchk

                         Distributed Multipole Analysis

Standard DMA

Positions and radii in angstrom
Multipole moments in atomic units, ea_0^k for rank k

C          x = -1.156618  y =  0.875698  z = -3.833378 angstrom
           Maximum rank =  0   Radius =  0.650 angstrom
                   Q00  =  -0.204130

C          x = -0.190618  y =  0.866698  z = -0.220378 angstrom
           Maximum rank =  0   Radius =  0.650 angstrom
                   Q00  =   0.278346

C          x = -0.677618  y =  0.184698  z = -1.366378 angstrom
           Maximum rank =  0   Radius =  0.650 angstrom
                   Q00  =  -0.056368

C          x = -0.708618  y =  1.134698  z = -2.444378 angstrom
           Maximum rank =  0   Radius =  0.650 angstrom
                   Q00  =  -0.114718

C          x = -0.198618  y =  2.293698  z = -1.952378 angstrom
           Maximum rank =  0   Radius =  0.650 angstrom
                   Q00  =   0.070306

C          x = -0.497618  y = -1.067302  z =  1.125622 angstrom
           Maximum rank =  0   Radius =  0.650 angstrom
                   Q00  =  -0.030150

C          x = -0.103618  y =  0.255698  z =  1.019622 angstrom
           Maximum rank =  0   Radius =  0.650 angstrom
                   Q00  =  -0.121884

C          x = -0.995618  y = -1.762302  z =  0.014622 angstrom
           Maximum rank =  0   Radius =  0.650 angstrom
                   Q00  =  -0.105985

C          x = -1.098618  y = -1.145302  z = -1.229378 angstrom
           Maximum rank =  0   Radius =  0.650 angstrom
                   Q00  =  -0.097244

N          x =  0.103382  y =  2.144698  z = -0.616378 angstrom
           Maximum rank =  0   Radius =  0.650 angstrom
                   Q00  =  -0.500834

H          x = -0.423618  y = -1.574302  z =  2.077622 angstrom
           Maximum rank =  0   Radius =  0.325 angstrom
                   Q00  =   0.065694

H          x =  0.297382  y =  0.781698  z =  1.857622 angstrom
           Maximum rank =  0   Radius =  0.325 angstrom
                   Q00  =   0.072206

H          x = -1.305618  y = -2.785302  z =  0.136622 angstrom
           Maximum rank =  0   Radius =  0.325 angstrom
                   Q00  =   0.059074

H          x = -1.504618  y = -1.681302  z = -2.076378 angstrom
           Maximum rank =  0   Radius =  0.325 angstrom
                   Q00  =   0.069838

H          x =  0.486382  y =  2.878698  z = -0.030378 angstrom
           Maximum rank =  0   Radius =  0.325 angstrom
                   Q00  =   0.216391

H          x = -0.063618  y =  3.205698  z = -2.526378 angstrom
           Maximum rank =  0   Radius =  0.325 angstrom
                   Q00  =   0.101248

H          x = -1.278618  y =  1.822698  z = -4.362378 angstrom
           Maximum rank =  0   Radius =  0.325 angstrom
                   Q00  =   0.103066

H          x = -2.135618  y =  0.406698  z = -3.771378 angstrom
           Maximum rank =  0   Radius =  0.325 angstrom
                   Q00  =   0.097203

H          x = -0.481179  y =  0.216098  z = -4.397924 angstrom
           Maximum rank =  0   Radius =  0.325 angstrom
                   Q00  =   0.096999

C          x =  2.451382  y = -1.761302  z =  3.509622 angstrom
           Maximum rank =  0   Radius =  0.650 angstrom
                   Q00  =  -0.237677

C          x =  2.370382  y = -1.764302  z =  5.039622 angstrom
           Maximum rank =  0   Radius =  0.650 angstrom
                   Q00  =  -0.234204

H          x =  2.369382  y = -0.746302  z =  3.123622 angstrom
           Maximum rank =  0   Radius =  0.325 angstrom
                   Q00  =   0.077727

H          x =  3.414382  y = -2.158302  z =  3.196622 angstrom
           Maximum rank =  0   Radius =  0.325 angstrom
                   Q00  =   0.081500

H          x =  1.661382  y = -2.384302  z =  3.091622 angstrom
           Maximum rank =  0   Radius =  0.325 angstrom
                   Q00  =   0.079565

H          x =  3.120382  y = -1.067302  z =  5.415622 angstrom
           Maximum rank =  0   Radius =  0.325 angstrom
                   Q00  =   0.075970

H          x =  1.385528  y = -1.453262  z =  5.418191 angstrom
           Maximum rank =  0   Radius =  0.325 angstrom
                   Q00  =   0.079234

H          x =  2.616083  y = -2.764502  z =  5.425931 angstrom
           Maximum rank =  0   Radius =  0.325 angstrom
                   Q00  =   0.078827

Total multipoles referred to origin at
           x =   0.000000,  y =    0.000000,  z =    0.000000 angstrom
                   Q00  =  -0.000000

Finished at 23:42:5 on 27 Apr 2020

  DMA results are available in the Python driver through the
	  variable('DMA DISTRIBUTED MULTIPOLES')
  and
	  variable('DMA TOTAL MULTIPOLES')
  commands.

    Psi4 stopped on: Monday, 27 April 2020 11:42PM
    Psi4 wall time for execution: 0:04:16.45

*** Psi4 exiting successfully. Buy a developer a beer!
