                               Psi4 1.3.2 release

  ==> Input File <==

--------------------------------------------------------------------------
import numpy as np
set {scf_type pk
basis cc-pvdz
d_convergence 10
gdma_switch   0
gdma_limit    0
gdma_origin   [ 0.0,  0.0,  0.0 ]
}
molecule test {
    units Angstrom
    0 1
    --
    0 1
    C                0.379028281378159     0.031503987858146    -1.850327528708160
    C                1.019028281378159     0.527503987858146    -3.157327528708159
    H                0.112028281378159     0.868503987858146    -1.207327528708160
    H                1.066028281378159    -0.632496012141854    -1.323327528708160
    H               -0.534971718621841    -0.517496012141854    -2.079327528708160
    H                0.362028281378159     1.269503987858146    -3.608327528708160
    H                2.000878281378159     0.986130987858146    -2.968565528708159
    H                1.123308281378159    -0.303866112141854    -3.870033528708159
    C               -0.259971718621841    -0.105496012141854     1.898672471291840
    C               -1.135971718621841    -0.449496012141854     3.109672471291841
    H               -0.617971718621841    -0.608496012141854     1.000672471291841
    H                0.763028281378159    -0.446496012141854     2.060672471291841
    H               -0.251971718621841     0.970503987858146     1.740672471291841
    H               -1.153971718621841    -1.535496012141854     3.209672471291841
    H               -2.167751718621842    -0.083149012141854     3.003772471291841
    H               -0.725821718621841    -0.014965012141854     4.033232471291840

}
e, wfn = energy('scf', return_wfn=True)
gdma(wfn)
dmavals = variable('DMA DISTRIBUTED MULTIPOLES')
charges = np.array(dmavals)
print(charges)
np.save('SSI-019LEU-037ILE-1-dimer.npy', np.array(charges))--------------------------------------------------------------------------

*** tstart() called on ds3
*** at Mon Apr 27 12:59:59 2020

   => Loading Basis Set <=

    Name: CC-PVDZ
    Role: ORBITAL
    Keyword: BASIS
    atoms 1-2, 9-10  entry C          line   138 file /theoryfs2/ds/metcalf/miniconda2/envs/tf2gpu/share/psi4/basis/cc-pvdz.gbs
    atoms 3-8, 11-16 entry H          line    22 file /theoryfs2/ds/metcalf/miniconda2/envs/tf2gpu/share/psi4/basis/cc-pvdz.gbs

         ---------------------------------------------------------
                                   SCF
               by Justin Turney, Rob Parrish, Andy Simmonett
                          and Daniel G. A. Smith
                              RHF Reference
                        1 Threads,    500 MiB Core
         ---------------------------------------------------------

  ==> Geometry <==

    Molecular point group: c1
    Full point group: C1

    Geometry (in Angstrom), charge = 0, multiplicity = 1:

       Center              X                  Y                   Z               Mass
    ------------   -----------------  -----------------  -----------------  -----------------
         C            0.379028281378     0.031503987858    -1.850327528708    12.000000000000
         C            1.019028281378     0.527503987858    -3.157327528708    12.000000000000
         H            0.112028281378     0.868503987858    -1.207327528708     1.007825032230
         H            1.066028281378    -0.632496012142    -1.323327528708     1.007825032230
         H           -0.534971718622    -0.517496012142    -2.079327528708     1.007825032230
         H            0.362028281378     1.269503987858    -3.608327528708     1.007825032230
         H            2.000878281378     0.986130987858    -2.968565528708     1.007825032230
         H            1.123308281378    -0.303866112142    -3.870033528708     1.007825032230
         C           -0.259971718622    -0.105496012142     1.898672471292    12.000000000000
         C           -1.135971718622    -0.449496012142     3.109672471292    12.000000000000
         H           -0.617971718622    -0.608496012142     1.000672471292     1.007825032230
         H            0.763028281378    -0.446496012142     2.060672471292     1.007825032230
         H           -0.251971718622     0.970503987858     1.740672471292     1.007825032230
         H           -1.153971718622    -1.535496012142     3.209672471292     1.007825032230
         H           -2.167751718622    -0.083149012142     3.003772471292     1.007825032230
         H           -0.725821718622    -0.014965012142     4.033232471292     1.007825032230

  Running in c1 symmetry.

  Rotational constants: A =      1.02833  B =      0.03680  C =      0.03655 [cm^-1]
  Rotational constants: A =  30828.69038  B =   1103.15524  C =   1095.73946 [MHz]
  Nuclear repulsion =  118.495564812084794

  Charge       = 0
  Multiplicity = 1
  Electrons    = 36
  Nalpha       = 18
  Nbeta        = 18

  ==> Algorithm <==

  SCF Algorithm Type is PK.
  DIIS enabled.
  MOM disabled.
  Fractional occupation disabled.
  Guess Type is SAD.
  Energy threshold   = 1.00e-06
  Density threshold  = 1.00e-10
  Integral threshold = 0.00e+00

  ==> Primary Basis <==

  Basis Set: CC-PVDZ
    Blend: CC-PVDZ
    Number of shells: 60
    Number of basis function: 116
    Number of Cartesian functions: 120
    Spherical Harmonics?: true
    Max angular momentum: 2

  ==> Pre-Iterations <==

   -------------------------------------------------------
    Irrep   Nso     Nmo     Nalpha   Nbeta   Ndocc  Nsocc
   -------------------------------------------------------
     A        116     116       0       0       0       0
   -------------------------------------------------------
    Total     116     116      18      18      18       0
   -------------------------------------------------------

  ==> Integral Setup <==

  Using integral reordering PK algorithm.
  Sizing the integral batches needed.
  Building batch lookup table.
   Calculation information:
      Number of atoms:                  16
      Number of AO shells:              60
      Number of primitives:            148
      Number of atomic orbitals:       120
      Number of basis functions:       116

      Integral cutoff                 1.00e-12
      Number of threads:                 1

	Batch   1 pq = [       0,    6786] index = [             0,23028291] size =     23028291
  Task number: 3
  Buffer size: 11059200
  Buffer per thread: 2
  We computed 1289450 shell quartets total.
  Whereas there are 1675365 unique shell quartets.

  ==> DiskJK: Disk-Based J/K Matrices <==

    J tasked:                  Yes
    K tasked:                  Yes
    wK tasked:                  No
    Memory [MiB]:              375
    Schwarz Cutoff:          1E-12

    OpenMP threads:              1

  Minimum eigenvalue in the overlap matrix is 6.2438794829E-03.
  Using Symmetric Orthogonalization.

  SCF Guess: Superposition of Atomic Densities via on-the-fly atomic UHF.

  ==> Iterations <==

                        Total Energy        Delta E     RMS |[F,P]|

   @RHF iter SAD:  -157.31174757446146   -1.57312e+02   0.00000e+00
   @RHF iter   1:  -158.31016449840828   -9.98417e-01   4.18942e-03 DIIS
   @RHF iter   2:  -158.44238825432888   -1.32224e-01   1.78737e-03 DIIS
   @RHF iter   3:  -158.46558541106359   -2.31972e-02   3.48800e-04 DIIS
   @RHF iter   4:  -158.46741288174496   -1.82747e-03   3.90639e-05 DIIS
   @RHF iter   5:  -158.46743674748535   -2.38657e-05   6.82368e-06 DIIS
   @RHF iter   6:  -158.46743741332355   -6.65838e-07   1.26913e-06 DIIS
   @RHF iter   7:  -158.46743742844609   -1.51225e-08   3.27403e-07 DIIS
   @RHF iter   8:  -158.46743742946967   -1.02358e-09   4.14902e-08 DIIS
   @RHF iter   9:  -158.46743742949931   -2.96438e-11   7.79473e-09 DIIS
   @RHF iter  10:  -158.46743742949997   -6.53699e-13   2.13420e-09 DIIS
   @RHF iter  11:  -158.46743742949957    3.97904e-13   6.13153e-10 DIIS
   @RHF iter  12:  -158.46743742950011   -5.40012e-13   1.46404e-10 DIIS
   @RHF iter  13:  -158.46743742950014   -2.84217e-14   2.39435e-11 DIIS
  Energy and wave function converged.

  ==> Post-Iterations <==

    Orbital Energies [Eh]
    ---------------------

    Doubly Occupied:

       1A    -11.219517     2A    -11.219380     3A    -11.217129
       4A    -11.216565     5A     -1.016281     6A     -1.014759
       7A     -0.840468     8A     -0.835282     9A     -0.599289
      10A     -0.596645    11A     -0.595250    12A     -0.591033
      13A     -0.506773    14A     -0.496859    15A     -0.487670
      16A     -0.486257    17A     -0.483885    18A     -0.480879

    Virtual:

      19A      0.177705    20A      0.192564    21A      0.218577
      22A      0.234085    23A      0.241085    24A      0.262354
      25A      0.266164    26A      0.276336    27A      0.281871
      28A      0.290223    29A      0.300304    30A      0.314613
      31A      0.390279    32A      0.414674    33A      0.574112
      34A      0.588590    35A      0.596457    36A      0.600886
      37A      0.603036    38A      0.656856    39A      0.672441
      40A      0.693884    41A      0.704044    42A      0.732715
      43A      0.842668    44A      0.880047    45A      0.888036
      46A      0.890036    47A      0.893606    48A      0.895648
      49A      0.897155    50A      0.906928    51A      0.916820
      52A      0.917570    53A      0.927171    54A      0.944266
      55A      0.961734    56A      1.002289    57A      1.120490
      58A      1.123322    59A      1.128594    60A      1.140353
      61A      1.229792    62A      1.238846    63A      1.460684
      64A      1.470520    65A      1.476506    66A      1.476719
      67A      1.575901    68A      1.588748    69A      1.683018
      70A      1.686353    71A      1.694867    72A      1.697191
      73A      1.856780    74A      1.862183    75A      1.868869
      76A      1.878833    77A      1.889751    78A      1.912244
      79A      1.919859    80A      1.931284    81A      1.939476
      82A      1.944929    83A      1.947496    84A      1.951689
      85A      1.955637    86A      1.964245    87A      1.995290
      88A      2.046259    89A      2.090946    90A      2.101744
      91A      2.113319    92A      2.116725    93A      2.300371
      94A      2.308142    95A      2.323796    96A      2.339080
      97A      2.441822    98A      2.452089    99A      2.461079
     100A      2.467796   101A      2.546884   102A      2.559012
     103A      2.571387   104A      2.574684   105A      2.753395
     106A      2.760167   107A      2.777702   108A      2.795490
     109A      2.850782   110A      2.851520   111A      2.861351
     112A      2.870699   113A      2.940244   114A      2.944495
     115A      2.949628   116A      2.967494

    Final Occupation by Irrep:
              A
    DOCC [    18 ]

  @RHF Final Energy:  -158.46743742950014

   => Energetics <=

    Nuclear Repulsion Energy =            118.4955648120847940
    One-Electron Energy =                -446.1181639604720317
    Two-Electron Energy =                 169.1551617188870864
    Total Energy =                       -158.4674374295001371

Computation Completed

Properties will be evaluated at   0.000000,   0.000000,   0.000000 [a0]

Properties computed using the SCF density matrix

  Nuclear Dipole Moment: [e a0]
     X:    -0.0236      Y:    -0.0448      Z:    -0.0077

  Electronic Dipole Moment: [e a0]
     X:     0.0188      Y:     0.0414      Z:     0.0020

  Dipole Moment: [e a0]
     X:    -0.0048      Y:    -0.0035      Z:    -0.0057     Total:     0.0082

  Dipole Moment: [D]
     X:    -0.0121      Y:    -0.0088      Z:    -0.0144     Total:     0.0208

*** tstop() called on ds3 at Mon Apr 27 13:00:12 2020
Module time:
	user time   =       8.67 seconds =       0.14 minutes
	system time =       4.34 seconds =       0.07 minutes
	total time  =         13 seconds =       0.22 minutes
Total time:
	user time   =       8.67 seconds =       0.14 minutes
	system time =       4.34 seconds =       0.07 minutes
	total time  =         13 seconds =       0.22 minutes
                                     G D M A

                                 by Anthony Stone

                           version 2.2.06, 22 June 2011

               Distributed Multipoles from Gaussian wavefunctions

Starting at 13:0:12 on 27 Apr 2020

Using SCF density matrix from file ./SSI/SSI-019LEU-037ILE-1-dimer.test.4915.fchk

                         Distributed Multipole Analysis

Standard DMA

Positions and radii in angstrom
Multipole moments in atomic units, ea_0^k for rank k

C          x =  0.379028  y =  0.031504  z = -1.850328 angstrom
           Maximum rank =  0   Radius =  0.650 angstrom
                   Q00  =  -0.250205

C          x =  1.019028  y =  0.527504  z = -3.157328 angstrom
           Maximum rank =  0   Radius =  0.650 angstrom
                   Q00  =  -0.228932

H          x =  0.112028  y =  0.868504  z = -1.207328 angstrom
           Maximum rank =  0   Radius =  0.325 angstrom
                   Q00  =   0.082540

H          x =  1.066028  y = -0.632496  z = -1.323328 angstrom
           Maximum rank =  0   Radius =  0.325 angstrom
                   Q00  =   0.079577

H          x = -0.534972  y = -0.517496  z = -2.079328 angstrom
           Maximum rank =  0   Radius =  0.325 angstrom
                   Q00  =   0.077917

H          x =  0.362028  y =  1.269504  z = -3.608328 angstrom
           Maximum rank =  0   Radius =  0.325 angstrom
                   Q00  =   0.079547

H          x =  2.000878  y =  0.986131  z = -2.968566 angstrom
           Maximum rank =  0   Radius =  0.325 angstrom
                   Q00  =   0.081194

H          x =  1.123308  y = -0.303866  z = -3.870034 angstrom
           Maximum rank =  0   Radius =  0.325 angstrom
                   Q00  =   0.079561

C          x = -0.259972  y = -0.105496  z =  1.898672 angstrom
           Maximum rank =  0   Radius =  0.650 angstrom
                   Q00  =  -0.241128

C          x = -1.135972  y = -0.449496  z =  3.109672 angstrom
           Maximum rank =  0   Radius =  0.650 angstrom
                   Q00  =  -0.239469

H          x = -0.617972  y = -0.608496  z =  1.000672 angstrom
           Maximum rank =  0   Radius =  0.325 angstrom
                   Q00  =   0.082988

H          x =  0.763028  y = -0.446496  z =  2.060672 angstrom
           Maximum rank =  0   Radius =  0.325 angstrom
                   Q00  =   0.079776

H          x = -0.251972  y =  0.970504  z =  1.740672 angstrom
           Maximum rank =  0   Radius =  0.325 angstrom
                   Q00  =   0.078789

H          x = -1.153972  y = -1.535496  z =  3.209672 angstrom
           Maximum rank =  0   Radius =  0.325 angstrom
                   Q00  =   0.078241

H          x = -2.167752  y = -0.083149  z =  3.003772 angstrom
           Maximum rank =  0   Radius =  0.325 angstrom
                   Q00  =   0.080525

H          x = -0.725822  y = -0.014965  z =  4.033232 angstrom
           Maximum rank =  0   Radius =  0.325 angstrom
                   Q00  =   0.079078

Total multipoles referred to origin at
           x =   0.000000,  y =    0.000000,  z =    0.000000 angstrom
                   Q00  =  -0.000000

Finished at 13:0:12 on 27 Apr 2020

  DMA results are available in the Python driver through the
	  variable('DMA DISTRIBUTED MULTIPOLES')
  and
	  variable('DMA TOTAL MULTIPOLES')
  commands.

    Psi4 stopped on: Monday, 27 April 2020 01:00PM
    Psi4 wall time for execution: 0:00:13.00

*** Psi4 exiting successfully. Buy a developer a beer!
