                               Psi4 1.3.2 release

  ==> Input File <==

--------------------------------------------------------------------------
import numpy as np
set {scf_type pk
basis cc-pvdz
d_convergence 10
gdma_switch   0
gdma_limit    0
gdma_origin   [ 0.0,  0.0,  0.0 ]
}
molecule test {
    units Angstrom
    0 1
    --
    0 1
    C                2.979208646647729     1.256183759187426    -0.987901124943429
    C                3.349208646647728     2.737183759187426    -0.885901124943429
    H                1.916208646647728     1.151183759187426    -1.201901124943429
    H                3.540208646647729     0.799183759187426    -1.802901124943429
    H                3.231208646647729     0.727183759187426    -0.074901124943429
    H                4.396208646647729     2.815183759187426    -0.601901124943429
    H                2.748968646647728     3.251983759187426    -0.121241124943429
    H                3.231168646647729     3.230333759187426    -1.862051124943429
    C                0.861208646647729    -1.625816240812574     0.345098875056571
    C                1.454208646647728    -1.407816240812574     1.742098875056571
    C               -0.446791353352272    -0.896816240812574     0.135098875056571
    C               -1.596791353352272    -1.591816240812574    -0.218901124943429
    C               -0.524791353352272     0.482183759187426     0.334098875056571
    C               -2.800791353352272    -0.916816240812574    -0.397901124943429
    C               -1.725791353352272     1.157183759187426     0.158098875056571
    C               -2.862791353352272     0.458183759187426    -0.211901124943429
    H                1.575208646647728    -1.275816240812574    -0.400901124943429
    H                0.715208646647729    -2.694816240812574     0.183098875056571
    H                1.603208646647728    -0.336816240812574     1.859098875056571
    H               -1.560791353352272    -2.663816240812574    -0.362901124943429
    H                0.354208646647728     1.043183759187426     0.615098875056571
    H               -3.689791353352271    -1.463816240812574    -0.683901124943429
    H               -1.766791353352272     2.230183759187426     0.293098875056571
    H               -3.798791353352271     0.982183759187426    -0.359901124943429
    H                2.415188646647729    -1.928156240812574     1.867668875056571
    H                0.733713646647729    -1.721856240812574     2.511688875056571

}
e, wfn = energy('scf', return_wfn=True)
gdma(wfn)
dmavals = variable('DMA DISTRIBUTED MULTIPOLES')
charges = np.array(dmavals)
print(charges)
np.save('SSI-054LEU-063PHE-1-dimer.npy', np.array(charges))--------------------------------------------------------------------------

*** tstart() called on ds3
*** at Mon Apr 27 08:09:15 2020

   => Loading Basis Set <=

    Name: CC-PVDZ
    Role: ORBITAL
    Keyword: BASIS
    atoms 1-2, 9-16  entry C          line   138 file /theoryfs2/ds/metcalf/miniconda2/envs/tf2gpu/share/psi4/basis/cc-pvdz.gbs
    atoms 3-8, 17-26 entry H          line    22 file /theoryfs2/ds/metcalf/miniconda2/envs/tf2gpu/share/psi4/basis/cc-pvdz.gbs

         ---------------------------------------------------------
                                   SCF
               by Justin Turney, Rob Parrish, Andy Simmonett
                          and Daniel G. A. Smith
                              RHF Reference
                        1 Threads,    500 MiB Core
         ---------------------------------------------------------

  ==> Geometry <==

    Molecular point group: c1
    Full point group: C1

    Geometry (in Angstrom), charge = 0, multiplicity = 1:

       Center              X                  Y                   Z               Mass
    ------------   -----------------  -----------------  -----------------  -----------------
         C            2.979208646648     1.256183759187    -0.987901124943    12.000000000000
         C            3.349208646648     2.737183759187    -0.885901124943    12.000000000000
         H            1.916208646648     1.151183759187    -1.201901124943     1.007825032230
         H            3.540208646648     0.799183759187    -1.802901124943     1.007825032230
         H            3.231208646648     0.727183759187    -0.074901124943     1.007825032230
         H            4.396208646648     2.815183759187    -0.601901124943     1.007825032230
         H            2.748968646648     3.251983759187    -0.121241124943     1.007825032230
         H            3.231168646648     3.230333759187    -1.862051124943     1.007825032230
         C            0.861208646648    -1.625816240813     0.345098875057    12.000000000000
         C            1.454208646648    -1.407816240813     1.742098875057    12.000000000000
         C           -0.446791353352    -0.896816240813     0.135098875057    12.000000000000
         C           -1.596791353352    -1.591816240813    -0.218901124943    12.000000000000
         C           -0.524791353352     0.482183759187     0.334098875057    12.000000000000
         C           -2.800791353352    -0.916816240813    -0.397901124943    12.000000000000
         C           -1.725791353352     1.157183759187     0.158098875057    12.000000000000
         C           -2.862791353352     0.458183759187    -0.211901124943    12.000000000000
         H            1.575208646648    -1.275816240813    -0.400901124943     1.007825032230
         H            0.715208646648    -2.694816240813     0.183098875057     1.007825032230
         H            1.603208646648    -0.336816240813     1.859098875057     1.007825032230
         H           -1.560791353352    -2.663816240813    -0.362901124943     1.007825032230
         H            0.354208646648     1.043183759187     0.615098875057     1.007825032230
         H           -3.689791353352    -1.463816240813    -0.683901124943     1.007825032230
         H           -1.766791353352     2.230183759187     0.293098875057     1.007825032230
         H           -3.798791353352     0.982183759187    -0.359901124943     1.007825032230
         H            2.415188646648    -1.928156240813     1.867668875057     1.007825032230
         H            0.733713646648    -1.721856240813     2.511688875057     1.007825032230

  Running in c1 symmetry.

  Rotational constants: A =      0.05357  B =      0.02171  C =      0.01714 [cm^-1]
  Rotational constants: A =   1605.93350  B =    650.83857  C =    513.84839 [MHz]
  Nuclear repulsion =  492.433761795487214

  Charge       = 0
  Multiplicity = 1
  Electrons    = 76
  Nalpha       = 38
  Nbeta        = 38

  ==> Algorithm <==

  SCF Algorithm Type is PK.
  DIIS enabled.
  MOM disabled.
  Fractional occupation disabled.
  Guess Type is SAD.
  Energy threshold   = 1.00e-06
  Density threshold  = 1.00e-10
  Integral threshold = 0.00e+00

  ==> Primary Basis <==

  Basis Set: CC-PVDZ
    Blend: CC-PVDZ
    Number of shells: 108
    Number of basis function: 220
    Number of Cartesian functions: 230
    Spherical Harmonics?: true
    Max angular momentum: 2

  ==> Pre-Iterations <==

   -------------------------------------------------------
    Irrep   Nso     Nmo     Nalpha   Nbeta   Ndocc  Nsocc
   -------------------------------------------------------
     A        220     220       0       0       0       0
   -------------------------------------------------------
    Total     220     220      38      38      38       0
   -------------------------------------------------------

  ==> Integral Setup <==

  Using integral reordering PK algorithm.
  Sizing the integral batches needed.
  Building batch lookup table.
   Calculation information:
      Number of atoms:                  26
      Number of AO shells:             108
      Number of primitives:            300
      Number of atomic orbitals:       230
      Number of basis functions:       220

      Integral cutoff                 1.00e-12
      Number of threads:                 1

	Batch   1 pq = [       0,    9405] index = [             0,44231715] size =     44231715
	Batch   2 pq = [    9405,   13301] index = [      44231715,88464951] size =     44233236
	Batch   3 pq = [   13301,   16290] index = [      88464951,132690195] size =     44225244
	Batch   4 pq = [   16290,   18810] index = [     132690195,176917455] size =     44227260
	Batch   5 pq = [   18810,   21030] index = [     176917455,221140965] size =     44223510
	Batch   6 pq = [   21030,   23037] index = [     221140965,265363203] size =     44222238
	Batch   7 pq = [   23037,   24310] index = [     265363203,295500205] size =     30137002
  Task number: 27
  Buffer size: 11059200
  Buffer per thread: 2
  We computed 15737191 shell quartets total.
  Whereas there are 17325441 unique shell quartets.

  ==> DiskJK: Disk-Based J/K Matrices <==

    J tasked:                  Yes
    K tasked:                  Yes
    wK tasked:                  No
    Memory [MiB]:              375
    Schwarz Cutoff:          1E-12

    OpenMP threads:              1

  Minimum eigenvalue in the overlap matrix is 2.9801269868E-04.
  Using Symmetric Orthogonalization.

  SCF Guess: Superposition of Atomic Densities via on-the-fly atomic UHF.

  ==> Iterations <==

                        Total Energy        Delta E     RMS |[F,P]|

   @RHF iter SAD:  -386.91943331851184   -3.86919e+02   0.00000e+00
   @RHF iter   1:  -387.77646273695791   -8.57029e-01   2.72399e-03 DIIS
   @RHF iter   2:  -387.99160300726516   -2.15140e-01   1.12944e-03 DIIS
   @RHF iter   3:  -388.02541070964639   -3.38077e-02   2.46453e-04 DIIS
   @RHF iter   4:  -388.02824917972998   -2.83847e-03   5.21060e-05 DIIS
   @RHF iter   5:  -388.02833446608116   -8.52864e-05   2.05108e-05 DIIS
   @RHF iter   6:  -388.02834747698688   -1.30109e-05   4.00673e-06 DIIS
   @RHF iter   7:  -388.02834812885771   -6.51871e-07   1.15033e-06 DIIS
   @RHF iter   8:  -388.02834818129963   -5.24419e-08   2.83090e-07 DIIS
   @RHF iter   9:  -388.02834818713109   -5.83145e-09   1.08317e-07 DIIS
   @RHF iter  10:  -388.02834818827773   -1.14665e-09   5.15884e-08 DIIS
   @RHF iter  11:  -388.02834818864829   -3.70562e-10   2.15129e-08 DIIS
   @RHF iter  12:  -388.02834818871759   -6.92921e-11   1.01883e-08 DIIS
   @RHF iter  13:  -388.02834818872680   -9.20863e-12   3.89547e-09 DIIS
   @RHF iter  14:  -388.02834818872998   -3.18323e-12   1.07207e-09 DIIS
   @RHF iter  15:  -388.02834818873072   -7.38964e-13   3.21621e-10 DIIS
   @RHF iter  16:  -388.02834818873237   -1.64846e-12   1.07353e-10 DIIS
   @RHF iter  17:  -388.02834818873225    1.13687e-13   5.01417e-11 DIIS
  Energy and wave function converged.

  ==> Post-Iterations <==

    Orbital Energies [Eh]
    ---------------------

    Doubly Occupied:

       1A    -11.237524     2A    -11.234205     3A    -11.234050
       4A    -11.229746     5A    -11.229551     6A    -11.229211
       7A    -11.228223     8A    -11.222926     9A    -11.220769
      10A    -11.217564    11A     -1.154776    12A     -1.062324
      13A     -1.019847    14A     -1.012042    15A     -0.980606
      16A     -0.862237    17A     -0.840491    18A     -0.823392
      19A     -0.784941    20A     -0.692170    21A     -0.638200
      22A     -0.631578    23A     -0.600767    24A     -0.599713
      25A     -0.595348    26A     -0.587293    27A     -0.575688
      28A     -0.537309    29A     -0.517008    30A     -0.503077
      31A     -0.501565    32A     -0.488414    33A     -0.487022
      34A     -0.481297    35A     -0.473842    36A     -0.465946
      37A     -0.332174    38A     -0.321861

    Virtual:

      39A      0.134788    40A      0.143228    41A      0.170542
      42A      0.194551    43A      0.197509    44A      0.218190
      45A      0.226551    46A      0.234951    47A      0.244407
      48A      0.260250    49A      0.261843    50A      0.262971
      51A      0.276374    52A      0.285044    53A      0.298221
      54A      0.300998    55A      0.311496    56A      0.351710
      57A      0.355814    58A      0.387334    59A      0.398566
      60A      0.430097    61A      0.452790    62A      0.470109
      63A      0.495568    64A      0.498589    65A      0.568335
      66A      0.595278    67A      0.598871    68A      0.605374
      69A      0.612986    70A      0.625966    71A      0.658412
      72A      0.666371    73A      0.686048    74A      0.694279
      75A      0.695410    76A      0.718907    77A      0.724744
      78A      0.733538    79A      0.742736    80A      0.747212
      81A      0.750716    82A      0.771226    83A      0.787465
      84A      0.798277    85A      0.830702    86A      0.851420
      87A      0.852062    88A      0.868421    89A      0.876031
      90A      0.885151    91A      0.887637    92A      0.891925
      93A      0.895152    94A      0.897106    95A      0.904846
      96A      0.905787    97A      0.917979    98A      0.922532
      99A      0.940814   100A      0.946019   101A      0.960248
     102A      0.974934   103A      0.980139   104A      0.997341
     105A      1.004524   106A      1.025381   107A      1.066024
     108A      1.084326   109A      1.122095   110A      1.123831
     111A      1.141115   112A      1.148156   113A      1.156704
     114A      1.171747   115A      1.189466   116A      1.225874
     117A      1.238275   118A      1.250019   119A      1.253503
     120A      1.279506   121A      1.302461   122A      1.309029
     123A      1.316479   124A      1.334624   125A      1.380001
     126A      1.425195   127A      1.471639   128A      1.477251
     129A      1.480736   130A      1.515936   131A      1.531096
     132A      1.579815   133A      1.590063   134A      1.617356
     135A      1.681992   136A      1.684439   137A      1.694930
     138A      1.699557   139A      1.740664   140A      1.747480
     141A      1.764165   142A      1.772105   143A      1.817182
     144A      1.837493   145A      1.863630   146A      1.870916
     147A      1.877578   148A      1.887382   149A      1.892859
     150A      1.895262   151A      1.910407   152A      1.918994
     153A      1.925297   154A      1.930161   155A      1.941940
     156A      1.943264   157A      1.949903   158A      1.951137
     159A      1.962381   160A      1.970238   161A      1.971611
     162A      1.984792   163A      2.000890   164A      2.014397
     165A      2.027953   166A      2.030381   167A      2.049296
     168A      2.065079   169A      2.074161   170A      2.090340
     171A      2.096379   172A      2.111262   173A      2.126607
     174A      2.159995   175A      2.166691   176A      2.174905
     177A      2.185641   178A      2.207842   179A      2.248986
     180A      2.258461   181A      2.282669   182A      2.297445
     183A      2.311401   184A      2.315570   185A      2.328853
     186A      2.340801   187A      2.349422   188A      2.445536
     189A      2.451246   190A      2.468852   191A      2.477225
     192A      2.498319   193A      2.547118   194A      2.555336
     195A      2.568238   196A      2.579447   197A      2.605494
     198A      2.649953   199A      2.736290   200A      2.757961
     201A      2.771561   202A      2.776244   203A      2.787062
     204A      2.800920   205A      2.812125   206A      2.844040
     207A      2.857077   208A      2.868014   209A      2.882044
     210A      2.914922   211A      2.946141   212A      2.966270
     213A      2.973836   214A      3.003257   215A      3.035058
     216A      3.067378   217A      3.183030   218A      3.212487
     219A      3.310580   220A      3.977977

    Final Occupation by Irrep:
              A
    DOCC [    38 ]

  @RHF Final Energy:  -388.02834818873225

   => Energetics <=

    Nuclear Repulsion Energy =            492.4337617954872144
    One-Electron Energy =               -1499.2148275073559489
    Two-Electron Energy =                 618.7527175231364254
    Total Energy =                       -388.0283481887322523

Computation Completed

Properties will be evaluated at   0.000000,   0.000000,   0.000000 [a0]

Properties computed using the SCF density matrix

  Nuclear Dipole Moment: [e a0]
     X:    14.6663      Y:     3.8863      Z:    -0.1338

  Electronic Dipole Moment: [e a0]
     X:   -14.5518      Y:    -3.9356      Z:     0.1298

  Dipole Moment: [e a0]
     X:     0.1145      Y:    -0.0493      Z:    -0.0040     Total:     0.1247

  Dipole Moment: [D]
     X:     0.2909      Y:    -0.1254      Z:    -0.0102     Total:     0.3170

*** tstop() called on ds3 at Mon Apr 27 08:14:12 2020
Module time:
	user time   =     109.21 seconds =       1.82 minutes
	system time =      41.02 seconds =       0.68 minutes
	total time  =        297 seconds =       4.95 minutes
Total time:
	user time   =     109.21 seconds =       1.82 minutes
	system time =      41.02 seconds =       0.68 minutes
	total time  =        297 seconds =       4.95 minutes
                                     G D M A

                                 by Anthony Stone

                           version 2.2.06, 22 June 2011

               Distributed Multipoles from Gaussian wavefunctions

Starting at 8:14:12 on 27 Apr 2020

Using SCF density matrix from file ./SSI/SSI-054LEU-063PHE-1-dimer.test.679.fchk

                         Distributed Multipole Analysis

Standard DMA

Positions and radii in angstrom
Multipole moments in atomic units, ea_0^k for rank k

C          x =  2.979209  y =  1.256184  z = -0.987901 angstrom
           Maximum rank =  0   Radius =  0.650 angstrom
                   Q00  =  -0.253755

C          x =  3.349209  y =  2.737184  z = -0.885901 angstrom
           Maximum rank =  0   Radius =  0.650 angstrom
                   Q00  =  -0.226169

H          x =  1.916209  y =  1.151184  z = -1.201901 angstrom
           Maximum rank =  0   Radius =  0.325 angstrom
                   Q00  =   0.084021

H          x =  3.540209  y =  0.799184  z = -1.802901 angstrom
           Maximum rank =  0   Radius =  0.325 angstrom
                   Q00  =   0.080908

H          x =  3.231209  y =  0.727184  z = -0.074901 angstrom
           Maximum rank =  0   Radius =  0.325 angstrom
                   Q00  =   0.077809

H          x =  4.396209  y =  2.815184  z = -0.601901 angstrom
           Maximum rank =  0   Radius =  0.325 angstrom
                   Q00  =   0.079085

H          x =  2.748969  y =  3.251984  z = -0.121241 angstrom
           Maximum rank =  0   Radius =  0.325 angstrom
                   Q00  =   0.077904

H          x =  3.231169  y =  3.230334  z = -1.862051 angstrom
           Maximum rank =  0   Radius =  0.325 angstrom
                   Q00  =   0.082102

C          x =  0.861209  y = -1.625816  z =  0.345099 angstrom
           Maximum rank =  0   Radius =  0.650 angstrom
                   Q00  =  -0.042045

C          x =  1.454209  y = -1.407816  z =  1.742099 angstrom
           Maximum rank =  0   Radius =  0.650 angstrom
                   Q00  =  -0.241902

C          x = -0.446791  y = -0.896816  z =  0.135099 angstrom
           Maximum rank =  0   Radius =  0.650 angstrom
                   Q00  =  -0.102347

C          x = -1.596791  y = -1.591816  z = -0.218901 angstrom
           Maximum rank =  0   Radius =  0.650 angstrom
                   Q00  =  -0.080860

C          x = -0.524791  y =  0.482184  z =  0.334099 angstrom
           Maximum rank =  0   Radius =  0.650 angstrom
                   Q00  =  -0.019986

C          x = -2.800791  y = -0.916816  z = -0.397901 angstrom
           Maximum rank =  0   Radius =  0.650 angstrom
                   Q00  =  -0.059474

C          x = -1.725791  y =  1.157184  z =  0.158099 angstrom
           Maximum rank =  0   Radius =  0.650 angstrom
                   Q00  =  -0.063429

C          x = -2.862791  y =  0.458184  z = -0.211901 angstrom
           Maximum rank =  0   Radius =  0.650 angstrom
                   Q00  =  -0.086991

H          x =  1.575209  y = -1.275816  z = -0.400901 angstrom
           Maximum rank =  0   Radius =  0.325 angstrom
                   Q00  =   0.077774

H          x =  0.715209  y = -2.694816  z =  0.183099 angstrom
           Maximum rank =  0   Radius =  0.325 angstrom
                   Q00  =   0.062311

H          x =  1.603209  y = -0.336816  z =  1.859099 angstrom
           Maximum rank =  0   Radius =  0.325 angstrom
                   Q00  =   0.077920

H          x = -1.560791  y = -2.663816  z = -0.362901 angstrom
           Maximum rank =  0   Radius =  0.325 angstrom
                   Q00  =   0.058434

H          x =  0.354209  y =  1.043184  z =  0.615099 angstrom
           Maximum rank =  0   Radius =  0.325 angstrom
                   Q00  =   0.059699

H          x = -3.689791  y = -1.463816  z = -0.683901 angstrom
           Maximum rank =  0   Radius =  0.325 angstrom
                   Q00  =   0.064236

H          x = -1.766791  y =  2.230184  z =  0.293099 angstrom
           Maximum rank =  0   Radius =  0.325 angstrom
                   Q00  =   0.063109

H          x = -3.798791  y =  0.982184  z = -0.359901 angstrom
           Maximum rank =  0   Radius =  0.325 angstrom
                   Q00  =   0.060016

H          x =  2.415189  y = -1.928156  z =  1.867669 angstrom
           Maximum rank =  0   Radius =  0.325 angstrom
                   Q00  =   0.087933

H          x =  0.733714  y = -1.721856  z =  2.511689 angstrom
           Maximum rank =  0   Radius =  0.325 angstrom
                   Q00  =   0.083696

Total multipoles referred to origin at
           x =   0.000000,  y =    0.000000,  z =    0.000000 angstrom
                   Q00  =  -0.000000

Finished at 8:14:12 on 27 Apr 2020

  DMA results are available in the Python driver through the
	  variable('DMA DISTRIBUTED MULTIPOLES')
  and
	  variable('DMA TOTAL MULTIPOLES')
  commands.

    Psi4 stopped on: Monday, 27 April 2020 08:14AM
    Psi4 wall time for execution: 0:04:56.57

*** Psi4 exiting successfully. Buy a developer a beer!
