                               Psi4 1.3.2 release

  ==> Input File <==

--------------------------------------------------------------------------
import numpy as np
set {scf_type pk
basis cc-pvdz
d_convergence 10
gdma_switch   0
gdma_limit    0
gdma_origin   [ 0.0,  0.0,  0.0 ]
}
molecule test {
    units Angstrom
    1 1
    --
    1 1
    C                2.077216074394109    -0.750701387256803    -0.766087427416931
    C                2.329216074394109    -1.682701387256803     0.423912572583069
    N                0.831216074394108    -1.175701387256803    -1.488087427416931
    H                1.980216074394109     0.278298612743197    -0.397087427416931
    H                2.938216074394109    -0.785701387256803    -1.443087427416932
    H                2.373216074394108    -2.722701387256803     0.091912572583069
    H                1.490216074394108    -1.584701387256803     1.113912572583068
    H                0.028216074394109    -1.181701387256803    -0.879087427416931
    H                0.651216074394109    -0.580701387256803    -2.293087427416931
    H                0.927216074394108    -2.130701387256803    -1.841087427416931
    H                3.245001074394108    -1.429399387256803     0.978142572583068
    C               -1.043783925605892     0.819298612743197     0.670912572583069
    C               -1.887783925605891     1.524298612743197     1.783912572583068
    C               -1.734783925605892    -0.347701387256803     0.046912572583069
    C               -0.665783925605892     1.836298612743197    -0.412087427416931
    H               -0.239783925605891     0.173298612743197     0.968912572583069
    H               -2.380783925605892     2.369298612743197     1.310912572583069
    H               -2.782783925605891    -0.105701387256803    -0.141087427416931
    H               -1.424783925605891    -0.496701387256803    -0.978087427416931
    H               -1.614783925605891    -1.280701387256803     0.603912572583069
    H               -0.133783925605891     2.674298612743197     0.040912572583069
    H               -0.018783925605891     1.399298612743197    -1.167087427416932
    H               -1.566783925605891     2.219298612743197    -0.895087427416931
    H               -1.273648925605891     1.926688612743197     2.603009572583069
    H               -2.724606925605892     0.938665612743197     2.192276572583069

}
e, wfn = energy('scf', return_wfn=True)
gdma(wfn)
dmavals = variable('DMA DISTRIBUTED MULTIPOLES')
charges = np.array(dmavals)
print(charges)
np.save('SSI-081LYS-105VAL-1-dimer.npy', np.array(charges))--------------------------------------------------------------------------

*** tstart() called on ds3
*** at Tue Apr 28 15:49:46 2020

   => Loading Basis Set <=

    Name: CC-PVDZ
    Role: ORBITAL
    Keyword: BASIS
    atoms 1-2, 12-15  entry C          line   138 file /theoryfs2/ds/metcalf/miniconda2/envs/tf2gpu/share/psi4/basis/cc-pvdz.gbs
    atoms 3           entry N          line   168 file /theoryfs2/ds/metcalf/miniconda2/envs/tf2gpu/share/psi4/basis/cc-pvdz.gbs
    atoms 4-11, 16-25 entry H          line    22 file /theoryfs2/ds/metcalf/miniconda2/envs/tf2gpu/share/psi4/basis/cc-pvdz.gbs

         ---------------------------------------------------------
                                   SCF
               by Justin Turney, Rob Parrish, Andy Simmonett
                          and Daniel G. A. Smith
                              RHF Reference
                        1 Threads,    500 MiB Core
         ---------------------------------------------------------

  ==> Geometry <==

    Molecular point group: c1
    Full point group: C1

    Geometry (in Angstrom), charge = 1, multiplicity = 1:

       Center              X                  Y                   Z               Mass
    ------------   -----------------  -----------------  -----------------  -----------------
         C            2.077216074394    -0.750701387257    -0.766087427417    12.000000000000
         C            2.329216074394    -1.682701387257     0.423912572583    12.000000000000
         N            0.831216074394    -1.175701387257    -1.488087427417    14.003074004430
         H            1.980216074394     0.278298612743    -0.397087427417     1.007825032230
         H            2.938216074394    -0.785701387257    -1.443087427417     1.007825032230
         H            2.373216074394    -2.722701387257     0.091912572583     1.007825032230
         H            1.490216074394    -1.584701387257     1.113912572583     1.007825032230
         H            0.028216074394    -1.181701387257    -0.879087427417     1.007825032230
         H            0.651216074394    -0.580701387257    -2.293087427417     1.007825032230
         H            0.927216074394    -2.130701387257    -1.841087427417     1.007825032230
         H            3.245001074394    -1.429399387257     0.978142572583     1.007825032230
         C           -1.043783925606     0.819298612743     0.670912572583    12.000000000000
         C           -1.887783925606     1.524298612743     1.783912572583    12.000000000000
         C           -1.734783925606    -0.347701387257     0.046912572583    12.000000000000
         C           -0.665783925606     1.836298612743    -0.412087427417    12.000000000000
         H           -0.239783925606     0.173298612743     0.968912572583     1.007825032230
         H           -2.380783925606     2.369298612743     1.310912572583     1.007825032230
         H           -2.782783925606    -0.105701387257    -0.141087427417     1.007825032230
         H           -1.424783925606    -0.496701387257    -0.978087427417     1.007825032230
         H           -1.614783925606    -1.280701387257     0.603912572583     1.007825032230
         H           -0.133783925606     2.674298612743     0.040912572583     1.007825032230
         H           -0.018783925606     1.399298612743    -1.167087427417     1.007825032230
         H           -1.566783925606     2.219298612743    -0.895087427417     1.007825032230
         H           -1.273648925606     1.926688612743     2.603009572583     1.007825032230
         H           -2.724606925606     0.938665612743     2.192276572583     1.007825032230

  Running in c1 symmetry.

  Rotational constants: A =      0.11342  B =      0.03342  C =      0.03232 [cm^-1]
  Rotational constants: A =   3400.15480  B =   1001.95229  C =    969.00331 [MHz]
  Nuclear repulsion =  343.261784883075563

  Charge       = 1
  Multiplicity = 1
  Electrons    = 60
  Nalpha       = 30
  Nbeta        = 30

  ==> Algorithm <==

  SCF Algorithm Type is PK.
  DIIS enabled.
  MOM disabled.
  Fractional occupation disabled.
  Guess Type is SAD.
  Energy threshold   = 1.00e-06
  Density threshold  = 1.00e-10
  Integral threshold = 0.00e+00

  ==> Primary Basis <==

  Basis Set: CC-PVDZ
    Blend: CC-PVDZ
    Number of shells: 96
    Number of basis function: 188
    Number of Cartesian functions: 195
    Spherical Harmonics?: true
    Max angular momentum: 2

  ==> Pre-Iterations <==

   -------------------------------------------------------
    Irrep   Nso     Nmo     Nalpha   Nbeta   Ndocc  Nsocc
   -------------------------------------------------------
     A        188     188       0       0       0       0
   -------------------------------------------------------
    Total     188     188      30      30      30       0
   -------------------------------------------------------

  ==> Integral Setup <==

  Using integral reordering PK algorithm.
  Sizing the integral batches needed.
  Building batch lookup table.
   Calculation information:
      Number of atoms:                  25
      Number of AO shells:              96
      Number of primitives:            244
      Number of atomic orbitals:       195
      Number of basis functions:       188

      Integral cutoff                 1.00e-12
      Number of threads:                 1

	Batch   1 pq = [       0,    9405] index = [             0,44231715] size =     44231715
	Batch   2 pq = [    9405,   13301] index = [      44231715,88464951] size =     44233236
	Batch   3 pq = [   13301,   16290] index = [      88464951,132690195] size =     44225244
	Batch   4 pq = [   16290,   17766] index = [     132690195,157824261] size =     25134066
  Task number: 15
  Buffer size: 11059200
  Buffer per thread: 2
  We computed 11050546 shell quartets total.
  Whereas there are 10841496 unique shell quartets.
     1.93 percent of shell quartets recomputed by reordering.

  ==> DiskJK: Disk-Based J/K Matrices <==

    J tasked:                  Yes
    K tasked:                  Yes
    wK tasked:                  No
    Memory [MiB]:              375
    Schwarz Cutoff:          1E-12

    OpenMP threads:              1

  Minimum eigenvalue in the overlap matrix is 4.0618781737E-03.
  Using Symmetric Orthogonalization.

  SCF Guess: Superposition of Atomic Densities via on-the-fly atomic UHF.

  ==> Iterations <==

                        Total Energy        Delta E     RMS |[F,P]|

   @RHF iter SAD:  -291.44272981976286   -2.91443e+02   0.00000e+00
   @RHF iter   1:  -291.66676234344510   -2.24033e-01   3.10735e-03 DIIS
   @RHF iter   2:  -291.87267158496115   -2.05909e-01   1.23046e-03 DIIS
   @RHF iter   3:  -291.90238919055014   -2.97176e-02   3.17844e-04 DIIS
   @RHF iter   4:  -291.90552829025546   -3.13910e-03   6.74193e-05 DIIS
   @RHF iter   5:  -291.90564546070277   -1.17170e-04   1.86232e-05 DIIS
   @RHF iter   6:  -291.90565650920638   -1.10485e-05   3.57340e-06 DIIS
   @RHF iter   7:  -291.90565704521708   -5.36011e-07   9.89466e-07 DIIS
   @RHF iter   8:  -291.90565709330082   -4.80837e-08   2.58880e-07 DIIS
   @RHF iter   9:  -291.90565709598962   -2.68881e-09   7.28873e-08 DIIS
   @RHF iter  10:  -291.90565709617113   -1.81501e-10   1.67930e-08 DIIS
   @RHF iter  11:  -291.90565709618267   -1.15392e-11   4.38782e-09 DIIS
   @RHF iter  12:  -291.90565709618295   -2.84217e-13   1.35296e-09 DIIS
   @RHF iter  13:  -291.90565709617971    3.24007e-12   2.71118e-10 DIIS
   @RHF iter  14:  -291.90565709618261   -2.89901e-12   7.53873e-11 DIIS
  Energy and wave function converged.

  ==> Post-Iterations <==

    Orbital Energies [Eh]
    ---------------------

    Doubly Occupied:

       1A    -15.888604     2A    -11.477035     3A    -11.403056
       4A    -11.362189     5A    -11.359774     6A    -11.353687
       7A    -11.335853     8A     -1.510402     9A     -1.229111
      10A     -1.212212    11A     -1.080442    12A     -1.050643
      13A     -1.049502    14A     -0.968437    15A     -0.955991
      16A     -0.914290    17A     -0.853063    18A     -0.791683
      19A     -0.773068    20A     -0.734138    21A     -0.719588
      22A     -0.717917    23A     -0.696523    24A     -0.688805
      25A     -0.675909    26A     -0.655009    27A     -0.637715
      28A     -0.605167    29A     -0.590730    30A     -0.574533

    Virtual:

      31A     -0.032658    32A      0.019384    33A      0.027615
      34A      0.047431    35A      0.074087    36A      0.088405
      37A      0.094994    38A      0.106462    39A      0.116781
      40A      0.126368    41A      0.130968    42A      0.138415
      43A      0.145286    44A      0.152710    45A      0.160053
      46A      0.174899    47A      0.183301    48A      0.186511
      49A      0.204191    50A      0.224097    51A      0.253163
      52A      0.276015    53A      0.312567    54A      0.382736
      55A      0.418161    56A      0.428728    57A      0.448066
      58A      0.456223    59A      0.475017    60A      0.481486
      61A      0.486966    62A      0.540615    63A      0.580466
      64A      0.599529    65A      0.622806    66A      0.632305
      67A      0.639825    68A      0.656470    69A      0.673176
      70A      0.692715    71A      0.702604    72A      0.712997
      73A      0.719819    74A      0.724009    75A      0.741782
      76A      0.746393    77A      0.755031    78A      0.762760
      79A      0.771360    80A      0.778294    81A      0.781618
      82A      0.795913    83A      0.797153    84A      0.814566
      85A      0.829739    86A      0.833220    87A      0.839105
      88A      0.853694    89A      0.859243    90A      0.873541
      91A      0.910323    92A      0.932254    93A      0.945335
      94A      0.968529    95A      0.994395    96A      1.031761
      97A      1.081249    98A      1.103527    99A      1.192537
     100A      1.215914   101A      1.254472   102A      1.262167
     103A      1.294984   104A      1.301539   105A      1.357991
     106A      1.407549   107A      1.426382   108A      1.460804
     109A      1.466840   110A      1.509297   111A      1.518381
     112A      1.525114   113A      1.545259   114A      1.561766
     115A      1.585763   116A      1.598849   117A      1.626998
     118A      1.658148   119A      1.662315   120A      1.691188
     121A      1.694496   122A      1.716861   123A      1.732666
     124A      1.741299   125A      1.762290   126A      1.774393
     127A      1.777456   128A      1.786528   129A      1.800399
     130A      1.806313   131A      1.823026   132A      1.830967
     133A      1.843031   134A      1.861177   135A      1.873270
     136A      1.879105   137A      1.908005   138A      1.917047
     139A      1.930395   140A      1.939859   141A      1.948358
     142A      1.963096   143A      1.985860   144A      2.020655
     145A      2.031225   146A      2.057397   147A      2.059183
     148A      2.077706   149A      2.103368   150A      2.133555
     151A      2.134362   152A      2.150228   153A      2.180823
     154A      2.204577   155A      2.217757   156A      2.235735
     157A      2.259506   158A      2.283568   159A      2.301942
     160A      2.333016   161A      2.380750   162A      2.406701
     163A      2.421015   164A      2.459512   165A      2.482377
     166A      2.516442   167A      2.517527   168A      2.541694
     169A      2.571357   170A      2.601510   171A      2.613023
     172A      2.646209   173A      2.656935   174A      2.664982
     175A      2.677814   176A      2.689895   177A      2.711322
     178A      2.720532   179A      2.757086   180A      2.762531
     181A      2.803922   182A      2.833419   183A      2.843561
     184A      2.875497   185A      2.895473   186A      2.995665
     187A      3.164474   188A      3.189699

    Final Occupation by Irrep:
              A
    DOCC [    30 ]

  @RHF Final Energy:  -291.90565709618261

   => Energetics <=

    Nuclear Repulsion Energy =            343.2617848830755634
    One-Electron Energy =               -1062.6047340726281618
    Two-Electron Energy =                 427.4372920933700470
    Total Energy =                       -291.9056570961826083

Computation Completed

Properties will be evaluated at   0.000000,   0.000000,   0.000000 [a0]

Properties computed using the SCF density matrix

  Nuclear Dipole Moment: [e a0]
     X:    -0.4965      Y:    -0.2962      Z:    -0.1184

  Electronic Dipole Moment: [e a0]
     X:     2.0439      Y:    -1.4349      Z:    -1.8282

  Dipole Moment: [e a0]
     X:     1.5474      Y:    -1.7311      Z:    -1.9465     Total:     3.0299

  Dipole Moment: [D]
     X:     3.9331      Y:    -4.4000      Z:    -4.9476     Total:     7.7012

*** tstop() called on ds3 at Tue Apr 28 15:52:42 2020
Module time:
	user time   =      58.64 seconds =       0.98 minutes
	system time =      18.84 seconds =       0.31 minutes
	total time  =        176 seconds =       2.93 minutes
Total time:
	user time   =      58.64 seconds =       0.98 minutes
	system time =      18.84 seconds =       0.31 minutes
	total time  =        176 seconds =       2.93 minutes
                                     G D M A

                                 by Anthony Stone

                           version 2.2.06, 22 June 2011

               Distributed Multipoles from Gaussian wavefunctions

Starting at 15:52:42 on 28 Apr 2020

Using SCF density matrix from file ./SSI/SSI-081LYS-105VAL-1-dimer.test.18253.fchk

                         Distributed Multipole Analysis

Standard DMA

Positions and radii in angstrom
Multipole moments in atomic units, ea_0^k for rank k

C          x =  2.077216  y = -0.750701  z = -0.766087 angstrom
           Maximum rank =  0   Radius =  0.650 angstrom
                   Q00  =  -0.038254

C          x =  2.329216  y = -1.682701  z =  0.423913 angstrom
           Maximum rank =  0   Radius =  0.650 angstrom
                   Q00  =  -0.230389

N          x =  0.831216  y = -1.175701  z = -1.488087 angstrom
           Maximum rank =  0   Radius =  0.650 angstrom
                   Q00  =  -0.164842

H          x =  1.980216  y =  0.278299  z = -0.397087 angstrom
           Maximum rank =  0   Radius =  0.325 angstrom
                   Q00  =   0.139360

H          x =  2.938216  y = -0.785701  z = -1.443087 angstrom
           Maximum rank =  0   Radius =  0.325 angstrom
                   Q00  =   0.132028

H          x =  2.373216  y = -2.722701  z =  0.091913 angstrom
           Maximum rank =  0   Radius =  0.325 angstrom
                   Q00  =   0.100962

H          x =  1.490216  y = -1.584701  z =  1.113913 angstrom
           Maximum rank =  0   Radius =  0.325 angstrom
                   Q00  =   0.103010

H          x =  0.028216  y = -1.181701  z = -0.879087 angstrom
           Maximum rank =  0   Radius =  0.325 angstrom
                   Q00  =   0.287946

H          x =  0.651216  y = -0.580701  z = -2.293087 angstrom
           Maximum rank =  0   Radius =  0.325 angstrom
                   Q00  =   0.264730

H          x =  0.927216  y = -2.130701  z = -1.841087 angstrom
           Maximum rank =  0   Radius =  0.325 angstrom
                   Q00  =   0.244346

H          x =  3.245001  y = -1.429399  z =  0.978143 angstrom
           Maximum rank =  0   Radius =  0.325 angstrom
                   Q00  =   0.156443

C          x = -1.043784  y =  0.819299  z =  0.670913 angstrom
           Maximum rank =  0   Radius =  0.650 angstrom
                   Q00  =  -0.081137

C          x = -1.887784  y =  1.524299  z =  1.783913 angstrom
           Maximum rank =  0   Radius =  0.650 angstrom
                   Q00  =  -0.221888

C          x = -1.734784  y = -0.347701  z =  0.046913 angstrom
           Maximum rank =  0   Radius =  0.650 angstrom
                   Q00  =  -0.210659

C          x = -0.665784  y =  1.836299  z = -0.412087 angstrom
           Maximum rank =  0   Radius =  0.650 angstrom
                   Q00  =  -0.227206

H          x = -0.239784  y =  0.173299  z =  0.968913 angstrom
           Maximum rank =  0   Radius =  0.325 angstrom
                   Q00  =  -0.032537

H          x = -2.380784  y =  2.369299  z =  1.310913 angstrom
           Maximum rank =  0   Radius =  0.325 angstrom
                   Q00  =   0.097171

H          x = -2.782784  y = -0.105701  z = -0.141087 angstrom
           Maximum rank =  0   Radius =  0.325 angstrom
                   Q00  =   0.122477

H          x = -1.424784  y = -0.496701  z = -0.978087 angstrom
           Maximum rank =  0   Radius =  0.325 angstrom
                   Q00  =   0.013976

H          x = -1.614784  y = -1.280701  z =  0.603913 angstrom
           Maximum rank =  0   Radius =  0.325 angstrom
                   Q00  =   0.084495

H          x = -0.133784  y =  2.674299  z =  0.040913 angstrom
           Maximum rank =  0   Radius =  0.325 angstrom
                   Q00  =   0.113382

H          x = -0.018784  y =  1.399299  z = -1.167087 angstrom
           Maximum rank =  0   Radius =  0.325 angstrom
                   Q00  =   0.016611

H          x = -1.566784  y =  2.219299  z = -0.895087 angstrom
           Maximum rank =  0   Radius =  0.325 angstrom
                   Q00  =   0.112935

H          x = -1.273649  y =  1.926689  z =  2.603010 angstrom
           Maximum rank =  0   Radius =  0.325 angstrom
                   Q00  =   0.112956

H          x = -2.724607  y =  0.938666  z =  2.192277 angstrom
           Maximum rank =  0   Radius =  0.325 angstrom
                   Q00  =   0.104082

Total multipoles referred to origin at
           x =   0.000000,  y =    0.000000,  z =    0.000000 angstrom
                   Q00  =   1.000000

Finished at 15:52:42 on 28 Apr 2020

  DMA results are available in the Python driver through the
	  variable('DMA DISTRIBUTED MULTIPOLES')
  and
	  variable('DMA TOTAL MULTIPOLES')
  commands.

    Psi4 stopped on: Tuesday, 28 April 2020 03:52PM
    Psi4 wall time for execution: 0:02:56.07

*** Psi4 exiting successfully. Buy a developer a beer!
