                               Psi4 1.3.2 release

  ==> Input File <==

--------------------------------------------------------------------------
import numpy as np
set {scf_type pk
basis cc-pvdz
d_convergence 10
gdma_switch   0
gdma_limit    0
gdma_origin   [ 0.0,  0.0,  0.0 ]
}
molecule test {
    units Angstrom
    0 1
    --
    0 1
    C                1.381115662737399     1.874436901907155     1.129709823566742
    C                0.585115662737399     0.621436901907155     1.416709823566742
    O                1.058115662737400    -0.511563098092845     1.267709823566742
    N               -0.666884337262601     0.810436901907155     1.787709823566742
    H                0.961115662737399     2.710436901907155     1.692709823566742
    H                1.300115662737400     2.093436901907155     0.072709823566742
    H               -1.227884337262600    -0.000563098092845     2.000709823566742
    H               -1.034884337262600     1.742436901907155     1.910709823566742
    H                2.439245662737399     1.757436901907155     1.406597823566742
    C               -0.628884337262600    -0.443563098092845    -2.005290176433259
    C                0.302115662737399    -1.607563098092845    -2.337290176433259
    C               -1.957884337262600    -0.752563098092845    -1.312290176433258
    H               -0.061884337262600     0.251436901907155    -1.385290176433258
    H               -0.863884337262600     0.092436901907155    -2.928290176433259
    H               -0.272884337262600    -2.400563098092845    -2.816290176433259
    H               -1.764884337262600    -1.398563098092845    -0.455290176433258
    H                0.783015662737400    -1.989413098092845    -1.424640376433258
    H                1.040455662737400    -1.251003098092845    -3.070585176433259
    H               -2.398344337262600     0.184496901907155    -0.940921176433259
    H               -2.635044337262600    -1.268523098092845    -2.008878876433259

}
e, wfn = energy('scf', return_wfn=True)
gdma(wfn)
dmavals = variable('DMA DISTRIBUTED MULTIPOLES')
charges = np.array(dmavals)
print(charges)
np.save('SSI-024ASN-027LEU-2-dimer.npy', np.array(charges))--------------------------------------------------------------------------

*** tstart() called on ds3
*** at Mon Apr 27 12:54:31 2020

   => Loading Basis Set <=

    Name: CC-PVDZ
    Role: ORBITAL
    Keyword: BASIS
    atoms 1-2, 10-12 entry C          line   138 file /theoryfs2/ds/metcalf/miniconda2/envs/tf2gpu/share/psi4/basis/cc-pvdz.gbs
    atoms 3          entry O          line   198 file /theoryfs2/ds/metcalf/miniconda2/envs/tf2gpu/share/psi4/basis/cc-pvdz.gbs
    atoms 4          entry N          line   168 file /theoryfs2/ds/metcalf/miniconda2/envs/tf2gpu/share/psi4/basis/cc-pvdz.gbs
    atoms 5-9, 13-20 entry H          line    22 file /theoryfs2/ds/metcalf/miniconda2/envs/tf2gpu/share/psi4/basis/cc-pvdz.gbs

         ---------------------------------------------------------
                                   SCF
               by Justin Turney, Rob Parrish, Andy Simmonett
                          and Daniel G. A. Smith
                              RHF Reference
                        1 Threads,    500 MiB Core
         ---------------------------------------------------------

  ==> Geometry <==

    Molecular point group: c1
    Full point group: C1

    Geometry (in Angstrom), charge = 0, multiplicity = 1:

       Center              X                  Y                   Z               Mass
    ------------   -----------------  -----------------  -----------------  -----------------
         C            1.381115662737     1.874436901907     1.129709823567    12.000000000000
         C            0.585115662737     0.621436901907     1.416709823567    12.000000000000
         O            1.058115662737    -0.511563098093     1.267709823567    15.994914619570
         N           -0.666884337263     0.810436901907     1.787709823567    14.003074004430
         H            0.961115662737     2.710436901907     1.692709823567     1.007825032230
         H            1.300115662737     2.093436901907     0.072709823567     1.007825032230
         H           -1.227884337263    -0.000563098093     2.000709823567     1.007825032230
         H           -1.034884337263     1.742436901907     1.910709823567     1.007825032230
         H            2.439245662737     1.757436901907     1.406597823567     1.007825032230
         C           -0.628884337263    -0.443563098093    -2.005290176433    12.000000000000
         C            0.302115662737    -1.607563098093    -2.337290176433    12.000000000000
         C           -1.957884337263    -0.752563098093    -1.312290176433    12.000000000000
         H           -0.061884337263     0.251436901907    -1.385290176433     1.007825032230
         H           -0.863884337263     0.092436901907    -2.928290176433     1.007825032230
         H           -0.272884337263    -2.400563098093    -2.816290176433     1.007825032230
         H           -1.764884337263    -1.398563098093    -0.455290176433     1.007825032230
         H            0.783015662737    -1.989413098093    -1.424640376433     1.007825032230
         H            1.040455662737    -1.251003098093    -3.070585176433     1.007825032230
         H           -2.398344337263     0.184496901907    -0.940921176433     1.007825032230
         H           -2.635044337263    -1.268523098093    -2.008878876433     1.007825032230

  Running in c1 symmetry.

  Rotational constants: A =      0.10956  B =      0.03695  C =      0.03328 [cm^-1]
  Rotational constants: A =   3284.58751  B =   1107.70647  C =    997.74690 [MHz]
  Nuclear repulsion =  308.618705452191762

  Charge       = 0
  Multiplicity = 1
  Electrons    = 58
  Nalpha       = 29
  Nbeta        = 29

  ==> Algorithm <==

  SCF Algorithm Type is PK.
  DIIS enabled.
  MOM disabled.
  Fractional occupation disabled.
  Guess Type is SAD.
  Energy threshold   = 1.00e-06
  Density threshold  = 1.00e-10
  Integral threshold = 0.00e+00

  ==> Primary Basis <==

  Basis Set: CC-PVDZ
    Blend: CC-PVDZ
    Number of shells: 81
    Number of basis function: 163
    Number of Cartesian functions: 170
    Spherical Harmonics?: true
    Max angular momentum: 2

  ==> Pre-Iterations <==

   -------------------------------------------------------
    Irrep   Nso     Nmo     Nalpha   Nbeta   Ndocc  Nsocc
   -------------------------------------------------------
     A        163     163       0       0       0       0
   -------------------------------------------------------
    Total     163     163      29      29      29       0
   -------------------------------------------------------

  ==> Integral Setup <==

  Using integral reordering PK algorithm.
  Sizing the integral batches needed.
  Building batch lookup table.
   Calculation information:
      Number of atoms:                  20
      Number of AO shells:              81
      Number of primitives:            219
      Number of atomic orbitals:       170
      Number of basis functions:       163

      Integral cutoff                 1.00e-12
      Number of threads:                 1

	Batch   1 pq = [       0,    9405] index = [             0,44231715] size =     44231715
	Batch   2 pq = [    9405,   13366] index = [      44231715,89331661] size =     45099946
  Task number: 9
  Buffer size: 11059200
  Buffer per thread: 2
  We computed 5192688 shell quartets total.
  Whereas there are 5516181 unique shell quartets.

  ==> DiskJK: Disk-Based J/K Matrices <==

    J tasked:                  Yes
    K tasked:                  Yes
    wK tasked:                  No
    Memory [MiB]:              375
    Schwarz Cutoff:          1E-12

    OpenMP threads:              1

  Minimum eigenvalue in the overlap matrix is 4.3203311874E-03.
  Using Symmetric Orthogonalization.

  SCF Guess: Superposition of Atomic Densities via on-the-fly atomic UHF.

  ==> Iterations <==

                        Total Energy        Delta E     RMS |[F,P]|

   @RHF iter SAD:  -324.93872410173367   -3.24939e+02   0.00000e+00
   @RHF iter   1:  -325.99861513956989   -1.05989e+00   4.16692e-03 DIIS
   @RHF iter   2:  -326.20013381362884   -2.01519e-01   2.32376e-03 DIIS
   @RHF iter   3:  -326.25680373537114   -5.66699e-02   4.96419e-04 DIIS
   @RHF iter   4:  -326.26066493243394   -3.86120e-03   2.02250e-04 DIIS
   @RHF iter   5:  -326.26133927577735   -6.74343e-04   3.07841e-05 DIIS
   @RHF iter   6:  -326.26136967371815   -3.03979e-05   1.33275e-05 DIIS
   @RHF iter   7:  -326.26137464728498   -4.97357e-06   5.07278e-06 DIIS
   @RHF iter   8:  -326.26137566558077   -1.01830e-06   1.80613e-06 DIIS
   @RHF iter   9:  -326.26137579969514   -1.34114e-07   4.95705e-07 DIIS
   @RHF iter  10:  -326.26137580670058   -7.00544e-09   1.66386e-07 DIIS
   @RHF iter  11:  -326.26137580763714   -9.36552e-10   3.94081e-08 DIIS
   @RHF iter  12:  -326.26137580768602   -4.88853e-11   9.36312e-09 DIIS
   @RHF iter  13:  -326.26137580768801   -1.98952e-12   2.30015e-09 DIIS
   @RHF iter  14:  -326.26137580768886   -8.52651e-13   8.15520e-10 DIIS
   @RHF iter  15:  -326.26137580768858    2.84217e-13   2.46898e-10 DIIS
   @RHF iter  16:  -326.26137580769000   -1.42109e-12   9.66903e-11 DIIS
  Energy and wave function converged.

  ==> Post-Iterations <==

    Orbital Energies [Eh]
    ---------------------

    Doubly Occupied:

       1A    -20.504243     2A    -15.592498     3A    -11.349787
       4A    -11.244535     5A    -11.213264     6A    -11.210469
       7A    -11.204790     8A     -1.365412     9A     -1.221166
      10A     -1.042444    11A     -1.004424    12A     -0.918265
      13A     -0.803664    14A     -0.784214    15A     -0.732409
      16A     -0.655034    17A     -0.624294    18A     -0.608557
      19A     -0.583732    20A     -0.569676    21A     -0.559266
      22A     -0.542103    23A     -0.528338    24A     -0.524266
      25A     -0.465763    26A     -0.455372    27A     -0.454025
      28A     -0.411282    29A     -0.404315

    Virtual:

      30A      0.154217    31A      0.186209    32A      0.200927
      33A      0.209966    34A      0.222426    35A      0.241044
      36A      0.250059    37A      0.262210    38A      0.265806
      39A      0.274834    40A      0.288988    41A      0.303659
      42A      0.312152    43A      0.355149    44A      0.378254
      45A      0.403769    46A      0.437533    47A      0.477549
      48A      0.543256    49A      0.582677    50A      0.613295
      51A      0.627137    52A      0.629932    53A      0.640362
      54A      0.651707    55A      0.671316    56A      0.698292
      57A      0.721347    58A      0.739637    59A      0.767763
      60A      0.814775    61A      0.816799    62A      0.839114
      63A      0.861189    64A      0.865753    65A      0.880735
      66A      0.891796    67A      0.899259    68A      0.904338
      69A      0.911419    70A      0.913251    71A      0.925005
      72A      0.934174    73A      0.946386    74A      0.962733
      75A      0.974736    76A      0.993670    77A      1.031794
      78A      1.068524    79A      1.069466    80A      1.120151
      81A      1.138793    82A      1.150475    83A      1.158007
      84A      1.247252    85A      1.328494    86A      1.355725
      87A      1.380585    88A      1.386895    89A      1.420931
      90A      1.430042    91A      1.461208    92A      1.475387
      93A      1.487148    94A      1.491201    95A      1.549095
      96A      1.643744    97A      1.647460    98A      1.660997
      99A      1.679917   100A      1.689839   101A      1.716854
     102A      1.735804   103A      1.820080   104A      1.855210
     105A      1.860839   106A      1.870474   107A      1.874176
     108A      1.887024   109A      1.896439   110A      1.903538
     111A      1.917878   112A      1.937150   113A      1.950568
     114A      1.958595   115A      1.970895   116A      1.982652
     117A      1.998661   118A      2.008360   119A      2.023474
     120A      2.029589   121A      2.048627   122A      2.056721
     123A      2.082721   124A      2.154833   125A      2.192755
     126A      2.201263   127A      2.211317   128A      2.273302
     129A      2.275479   130A      2.296232   131A      2.331674
     132A      2.357974   133A      2.433083   134A      2.455191
     135A      2.465384   136A      2.517337   137A      2.532733
     138A      2.549396   139A      2.563216   140A      2.603597
     141A      2.620003   142A      2.626377   143A      2.651098
     144A      2.735962   145A      2.756166   146A      2.761023
     147A      2.772252   148A      2.796117   149A      2.811251
     150A      2.817401   151A      2.857245   152A      2.933392
     153A      2.955119   154A      2.972257   155A      2.984674
     156A      3.078408   157A      3.093817   158A      3.133062
     159A      3.285206   160A      3.484797   161A      3.540403
     162A      3.862526   163A      3.907276

    Final Occupation by Irrep:
              A
    DOCC [    29 ]

  @RHF Final Energy:  -326.26137580769000

   => Energetics <=

    Nuclear Repulsion Energy =            308.6187054521917617
    One-Electron Energy =               -1054.6049452076208581
    Two-Electron Energy =                 419.7248639477390952
    Total Energy =                       -326.2613758076900012

Computation Completed

Properties will be evaluated at   0.000000,   0.000000,   0.000000 [a0]

Properties computed using the SCF density matrix

  Nuclear Dipole Moment: [e a0]
     X:    -3.4951      Y:     0.4859      Z:    -7.4489

  Electronic Dipole Moment: [e a0]
     X:     2.6576      Y:     0.9444      Z:     7.8343

  Dipole Moment: [e a0]
     X:    -0.8376      Y:     1.4303      Z:     0.3853     Total:     1.7017

  Dipole Moment: [D]
     X:    -2.1289      Y:     3.6355      Z:     0.9794     Total:     4.3253

*** tstop() called on ds3 at Mon Apr 27 12:55:30 2020
Module time:
	user time   =      42.55 seconds =       0.71 minutes
	system time =      18.75 seconds =       0.31 minutes
	total time  =         59 seconds =       0.98 minutes
Total time:
	user time   =      42.55 seconds =       0.71 minutes
	system time =      18.75 seconds =       0.31 minutes
	total time  =         59 seconds =       0.98 minutes
                                     G D M A

                                 by Anthony Stone

                           version 2.2.06, 22 June 2011

               Distributed Multipoles from Gaussian wavefunctions

Starting at 12:55:30 on 27 Apr 2020

Using SCF density matrix from file ./SSI/SSI-024ASN-027LEU-2-dimer.test.4615.fchk

                         Distributed Multipole Analysis

Standard DMA

Positions and radii in angstrom
Multipole moments in atomic units, ea_0^k for rank k

C          x =  1.381116  y =  1.874437  z =  1.129710 angstrom
           Maximum rank =  0   Radius =  0.650 angstrom
                   Q00  =  -0.258254

C          x =  0.585116  y =  0.621437  z =  1.416710 angstrom
           Maximum rank =  0   Radius =  0.650 angstrom
                   Q00  =   0.805519

O          x =  1.058116  y = -0.511563  z =  1.267710 angstrom
           Maximum rank =  0   Radius =  0.650 angstrom
                   Q00  =  -0.799409

N          x = -0.666884  y =  0.810437  z =  1.787710 angstrom
           Maximum rank =  0   Radius =  0.650 angstrom
                   Q00  =  -0.516567

H          x =  0.961116  y =  2.710437  z =  1.692710 angstrom
           Maximum rank =  0   Radius =  0.325 angstrom
                   Q00  =   0.076048

H          x =  1.300116  y =  2.093437  z =  0.072710 angstrom
           Maximum rank =  0   Radius =  0.325 angstrom
                   Q00  =   0.132283

H          x = -1.227884  y = -0.000563  z =  2.000710 angstrom
           Maximum rank =  0   Radius =  0.325 angstrom
                   Q00  =   0.225222

H          x = -1.034884  y =  1.742437  z =  1.910710 angstrom
           Maximum rank =  0   Radius =  0.325 angstrom
                   Q00  =   0.207219

H          x =  2.439246  y =  1.757437  z =  1.406598 angstrom
           Maximum rank =  0   Radius =  0.325 angstrom
                   Q00  =   0.131856

C          x = -0.628884  y = -0.443563  z = -2.005290 angstrom
           Maximum rank =  0   Radius =  0.650 angstrom
                   Q00  =  -0.058848

C          x =  0.302116  y = -1.607563  z = -2.337290 angstrom
           Maximum rank =  0   Radius =  0.650 angstrom
                   Q00  =  -0.249984

C          x = -1.957884  y = -0.752563  z = -1.312290 angstrom
           Maximum rank =  0   Radius =  0.650 angstrom
                   Q00  =  -0.243965

H          x = -0.061884  y =  0.251437  z = -1.385290 angstrom
           Maximum rank =  0   Radius =  0.325 angstrom
                   Q00  =   0.039648

H          x = -0.863884  y =  0.092437  z = -2.928290 angstrom
           Maximum rank =  0   Radius =  0.325 angstrom
                   Q00  =   0.028056

H          x = -0.272884  y = -2.400563  z = -2.816290 angstrom
           Maximum rank =  0   Radius =  0.325 angstrom
                   Q00  =   0.067585

H          x = -1.764884  y = -1.398563  z = -0.455290 angstrom
           Maximum rank =  0   Radius =  0.325 angstrom
                   Q00  =   0.078866

H          x =  0.783016  y = -1.989413  z = -1.424640 angstrom
           Maximum rank =  0   Radius =  0.325 angstrom
                   Q00  =   0.101617

H          x =  1.040456  y = -1.251003  z = -3.070585 angstrom
           Maximum rank =  0   Radius =  0.325 angstrom
                   Q00  =   0.082958

H          x = -2.398344  y =  0.184497  z = -0.940921 angstrom
           Maximum rank =  0   Radius =  0.325 angstrom
                   Q00  =   0.073015

H          x = -2.635044  y = -1.268523  z = -2.008879 angstrom
           Maximum rank =  0   Radius =  0.325 angstrom
                   Q00  =   0.077136

Total multipoles referred to origin at
           x =   0.000000,  y =    0.000000,  z =    0.000000 angstrom
                   Q00  =  -0.000000

Finished at 12:55:30 on 27 Apr 2020

  DMA results are available in the Python driver through the
	  variable('DMA DISTRIBUTED MULTIPOLES')
  and
	  variable('DMA TOTAL MULTIPOLES')
  commands.

    Psi4 stopped on: Monday, 27 April 2020 12:55PM
    Psi4 wall time for execution: 0:00:59.45

*** Psi4 exiting successfully. Buy a developer a beer!
