                               Psi4 1.3.2 release

  ==> Input File <==

--------------------------------------------------------------------------
import numpy as np
set {scf_type pk
basis cc-pvdz
d_convergence 10
gdma_switch   0
gdma_limit    0
gdma_origin   [ 0.0,  0.0,  0.0 ]
}
molecule test {
    units Angstrom
    0 1
    --
    0 1
    C                0.763068081448463     1.338860069879018     0.679748973637709
    C                1.069068081448463     2.333860069879018     1.766748973637709
    H                0.200068081448463     1.807860069879018    -0.128251026362291
    H                1.695068081448463     0.937860069879018     0.278748973637709
    H                0.196068081448463     0.510860069879018     1.099748973637709
    H                1.547068081448463     1.829860069879018     2.606748973637709
    H                0.142328081448463     2.828360069879018     2.093279973637709
    H                1.737888081448463     3.117290069879018     1.380837973637709
    C               -0.643931918551537    -1.302139930120982    -0.765251026362291
    C               -1.184931918551537    -2.369139930120982    -1.688251026362291
    H               -1.292931918551537    -0.428139930120982    -0.760251026362291
    H               -0.583931918551537    -1.695139930120982     0.249748973637709
    H                0.356068081448463    -1.009139930120982    -1.090251026362291
    H               -2.176931918551537    -2.590139930120982    -1.314251026362291
    H               -1.255581918551537    -2.027419930120982    -2.731436026362291
    H               -0.604141918551537    -3.299259930120982    -1.601277026362291

}
e, wfn = energy('scf', return_wfn=True)
gdma(wfn)
dmavals = variable('DMA DISTRIBUTED MULTIPOLES')
charges = np.array(dmavals)
print(charges)
np.save('SSI-016LEU-062LEU-1-dimer.npy', np.array(charges))--------------------------------------------------------------------------

*** tstart() called on ds3
*** at Mon Apr 27 22:15:53 2020

   => Loading Basis Set <=

    Name: CC-PVDZ
    Role: ORBITAL
    Keyword: BASIS
    atoms 1-2, 9-10  entry C          line   138 file /theoryfs2/ds/metcalf/miniconda2/envs/tf2gpu/share/psi4/basis/cc-pvdz.gbs
    atoms 3-8, 11-16 entry H          line    22 file /theoryfs2/ds/metcalf/miniconda2/envs/tf2gpu/share/psi4/basis/cc-pvdz.gbs

         ---------------------------------------------------------
                                   SCF
               by Justin Turney, Rob Parrish, Andy Simmonett
                          and Daniel G. A. Smith
                              RHF Reference
                        1 Threads,    500 MiB Core
         ---------------------------------------------------------

  ==> Geometry <==

    Molecular point group: c1
    Full point group: C1

    Geometry (in Angstrom), charge = 0, multiplicity = 1:

       Center              X                  Y                   Z               Mass
    ------------   -----------------  -----------------  -----------------  -----------------
         C            0.763068081448     1.338860069879     0.679748973638    12.000000000000
         C            1.069068081448     2.333860069879     1.766748973638    12.000000000000
         H            0.200068081448     1.807860069879    -0.128251026362     1.007825032230
         H            1.695068081448     0.937860069879     0.278748973638     1.007825032230
         H            0.196068081448     0.510860069879     1.099748973638     1.007825032230
         H            1.547068081448     1.829860069879     2.606748973638     1.007825032230
         H            0.142328081448     2.828360069879     2.093279973638     1.007825032230
         H            1.737888081448     3.117290069879     1.380837973638     1.007825032230
         C           -0.643931918552    -1.302139930121    -0.765251026362    12.000000000000
         C           -1.184931918552    -2.369139930121    -1.688251026362    12.000000000000
         H           -1.292931918552    -0.428139930121    -0.760251026362     1.007825032230
         H           -0.583931918552    -1.695139930121     0.249748973638     1.007825032230
         H            0.356068081448    -1.009139930121    -1.090251026362     1.007825032230
         H           -2.176931918552    -2.590139930121    -1.314251026362     1.007825032230
         H           -1.255581918552    -2.027419930121    -2.731436026362     1.007825032230
         H           -0.604141918552    -3.299259930121    -1.601277026362     1.007825032230

  Running in c1 symmetry.

  Rotational constants: A =      1.16756  B =      0.04317  C =      0.04300 [cm^-1]
  Rotational constants: A =  35002.52039  B =   1294.08006  C =   1289.03828 [MHz]
  Nuclear repulsion =  122.864132397660086

  Charge       = 0
  Multiplicity = 1
  Electrons    = 36
  Nalpha       = 18
  Nbeta        = 18

  ==> Algorithm <==

  SCF Algorithm Type is PK.
  DIIS enabled.
  MOM disabled.
  Fractional occupation disabled.
  Guess Type is SAD.
  Energy threshold   = 1.00e-06
  Density threshold  = 1.00e-10
  Integral threshold = 0.00e+00

  ==> Primary Basis <==

  Basis Set: CC-PVDZ
    Blend: CC-PVDZ
    Number of shells: 60
    Number of basis function: 116
    Number of Cartesian functions: 120
    Spherical Harmonics?: true
    Max angular momentum: 2

  ==> Pre-Iterations <==

   -------------------------------------------------------
    Irrep   Nso     Nmo     Nalpha   Nbeta   Ndocc  Nsocc
   -------------------------------------------------------
     A        116     116       0       0       0       0
   -------------------------------------------------------
    Total     116     116      18      18      18       0
   -------------------------------------------------------

  ==> Integral Setup <==

  Using integral reordering PK algorithm.
  Sizing the integral batches needed.
  Building batch lookup table.
   Calculation information:
      Number of atoms:                  16
      Number of AO shells:              60
      Number of primitives:            148
      Number of atomic orbitals:       120
      Number of basis functions:       116

      Integral cutoff                 1.00e-12
      Number of threads:                 1

	Batch   1 pq = [       0,    6786] index = [             0,23028291] size =     23028291
  Task number: 3
  Buffer size: 11059200
  Buffer per thread: 2
  We computed 1404571 shell quartets total.
  Whereas there are 1675365 unique shell quartets.

  ==> DiskJK: Disk-Based J/K Matrices <==

    J tasked:                  Yes
    K tasked:                  Yes
    wK tasked:                  No
    Memory [MiB]:              375
    Schwarz Cutoff:          1E-12

    OpenMP threads:              1

  Minimum eigenvalue in the overlap matrix is 4.8501370822E-03.
  Using Symmetric Orthogonalization.

  SCF Guess: Superposition of Atomic Densities via on-the-fly atomic UHF.

  ==> Iterations <==

                        Total Energy        Delta E     RMS |[F,P]|

   @RHF iter SAD:  -157.44623038572502   -1.57446e+02   0.00000e+00
   @RHF iter   1:  -158.29950158624189   -8.53271e-01   4.28504e-03 DIIS
   @RHF iter   2:  -158.43710342137325   -1.37602e-01   1.82765e-03 DIIS
   @RHF iter   3:  -158.46127583813063   -2.41724e-02   3.55729e-04 DIIS
   @RHF iter   4:  -158.46316592708757   -1.89009e-03   3.98169e-05 DIIS
   @RHF iter   5:  -158.46319057236607   -2.46453e-05   7.30311e-06 DIIS
   @RHF iter   6:  -158.46319132055817   -7.48192e-07   1.41630e-06 DIIS
   @RHF iter   7:  -158.46319133963686   -1.90787e-08   3.51425e-07 DIIS
   @RHF iter   8:  -158.46319134101768   -1.38081e-09   5.77416e-08 DIIS
   @RHF iter   9:  -158.46319134108336   -6.56826e-11   1.19640e-08 DIIS
   @RHF iter  10:  -158.46319134108634   -2.98428e-12   3.32811e-09 DIIS
   @RHF iter  11:  -158.46319134108651   -1.70530e-13   8.71690e-10 DIIS
   @RHF iter  12:  -158.46319134108623    2.84217e-13   1.66486e-10 DIIS
   @RHF iter  13:  -158.46319134108606    1.70530e-13   3.00257e-11 DIIS
  Energy and wave function converged.

  ==> Post-Iterations <==

    Orbital Energies [Eh]
    ---------------------

    Doubly Occupied:

       1A    -11.215770     2A    -11.215764     3A    -11.213902
       4A    -11.212534     5A     -1.024460     6A     -1.020677
       7A     -0.840108     8A     -0.827041     9A     -0.603699
      10A     -0.600896    11A     -0.598570    12A     -0.594879
      13A     -0.513506    14A     -0.497354    15A     -0.488463
      16A     -0.482950    17A     -0.477256    18A     -0.474879

    Virtual:

      19A      0.177545    20A      0.194539    21A      0.226127
      22A      0.235039    23A      0.237758    24A      0.265669
      25A      0.267504    26A      0.278623    27A      0.284809
      28A      0.299196    29A      0.303331    30A      0.324200
      31A      0.386870    32A      0.430544    33A      0.564979
      34A      0.597800    35A      0.599633    36A      0.604994
      37A      0.608258    38A      0.651777    39A      0.663225
      40A      0.707423    41A      0.733689    42A      0.761264
      43A      0.868040    44A      0.881995    45A      0.889463
      46A      0.894873    47A      0.895248    48A      0.898591
      49A      0.903516    50A      0.916709    51A      0.918414
      52A      0.924412    53A      0.939045    54A      0.952607
      55A      0.975531    56A      1.029516    57A      1.126045
      58A      1.135394    59A      1.137689    60A      1.149187
      61A      1.215680    62A      1.302264    63A      1.463666
      64A      1.486161    65A      1.492620    66A      1.501774
      67A      1.587618    68A      1.594972    69A      1.679939
      70A      1.681273    71A      1.694776    72A      1.695256
      73A      1.831122    74A      1.861609    75A      1.876603
      76A      1.891689    77A      1.909832    78A      1.925178
      79A      1.938354    80A      1.940222    81A      1.946361
      82A      1.954254    83A      1.958604    84A      1.966530
      85A      1.968036    86A      1.990878    87A      2.062182
      88A      2.079561    89A      2.089499    90A      2.105399
      91A      2.138930    92A      2.142923    93A      2.307001
      94A      2.311069    95A      2.341881    96A      2.382466
      97A      2.449840    98A      2.466982    99A      2.471892
     100A      2.489132   101A      2.552467   102A      2.571690
     103A      2.589467   104A      2.593089   105A      2.760987
     106A      2.769139   107A      2.788097   108A      2.808221
     109A      2.847270   110A      2.850943   111A      2.873056
     112A      2.873656   113A      2.940600   114A      2.950062
     115A      2.970348   116A      2.975606

    Final Occupation by Irrep:
              A
    DOCC [    18 ]

  @RHF Final Energy:  -158.46319134108606

   => Energetics <=

    Nuclear Repulsion Energy =            122.8641323976600859
    One-Electron Energy =                -454.8492327335706022
    Two-Electron Energy =                 173.5219089948244289
    Total Energy =                       -158.4631913410860591

Computation Completed

Properties will be evaluated at   0.000000,   0.000000,   0.000000 [a0]

Properties computed using the SCF density matrix

  Nuclear Dipole Moment: [e a0]
     X:    -0.0365      Y:    -0.0161      Z:     0.0782

  Electronic Dipole Moment: [e a0]
     X:     0.0257      Y:     0.0035      Z:    -0.0696

  Dipole Moment: [e a0]
     X:    -0.0108      Y:    -0.0126      Z:     0.0086     Total:     0.0187

  Dipole Moment: [D]
     X:    -0.0274      Y:    -0.0320      Z:     0.0217     Total:     0.0474

*** tstop() called on ds3 at Mon Apr 27 22:16:03 2020
Module time:
	user time   =       7.33 seconds =       0.12 minutes
	system time =       2.87 seconds =       0.05 minutes
	total time  =         10 seconds =       0.17 minutes
Total time:
	user time   =       7.33 seconds =       0.12 minutes
	system time =       2.87 seconds =       0.05 minutes
	total time  =         10 seconds =       0.17 minutes
                                     G D M A

                                 by Anthony Stone

                           version 2.2.06, 22 June 2011

               Distributed Multipoles from Gaussian wavefunctions

Starting at 22:16:3 on 27 Apr 2020

Using SCF density matrix from file ./SSI/SSI-016LEU-062LEU-1-dimer.test.4591.fchk

                         Distributed Multipole Analysis

Standard DMA

Positions and radii in angstrom
Multipole moments in atomic units, ea_0^k for rank k

C          x =  0.763068  y =  1.338860  z =  0.679749 angstrom
           Maximum rank =  0   Radius =  0.650 angstrom
                   Q00  =  -0.236243

C          x =  1.069068  y =  2.333860  z =  1.766749 angstrom
           Maximum rank =  0   Radius =  0.650 angstrom
                   Q00  =  -0.224595

H          x =  0.200068  y =  1.807860  z = -0.128251 angstrom
           Maximum rank =  0   Radius =  0.325 angstrom
                   Q00  =   0.077167

H          x =  1.695068  y =  0.937860  z =  0.278749 angstrom
           Maximum rank =  0   Radius =  0.325 angstrom
                   Q00  =   0.074738

H          x =  0.196068  y =  0.510860  z =  1.099749 angstrom
           Maximum rank =  0   Radius =  0.325 angstrom
                   Q00  =   0.077432

H          x =  1.547068  y =  1.829860  z =  2.606749 angstrom
           Maximum rank =  0   Radius =  0.325 angstrom
                   Q00  =   0.079316

H          x =  0.142328  y =  2.828360  z =  2.093280 angstrom
           Maximum rank =  0   Radius =  0.325 angstrom
                   Q00  =   0.075155

H          x =  1.737888  y =  3.117290  z =  1.380838 angstrom
           Maximum rank =  0   Radius =  0.325 angstrom
                   Q00  =   0.074453

C          x = -0.643932  y = -1.302140  z = -0.765251 angstrom
           Maximum rank =  0   Radius =  0.650 angstrom
                   Q00  =  -0.236742

C          x = -1.184932  y = -2.369140  z = -1.688251 angstrom
           Maximum rank =  0   Radius =  0.650 angstrom
                   Q00  =  -0.223587

H          x = -1.292932  y = -0.428140  z = -0.760251 angstrom
           Maximum rank =  0   Radius =  0.325 angstrom
                   Q00  =   0.077594

H          x = -0.583932  y = -1.695140  z =  0.249749 angstrom
           Maximum rank =  0   Radius =  0.325 angstrom
                   Q00  =   0.075647

H          x =  0.356068  y = -1.009140  z = -1.090251 angstrom
           Maximum rank =  0   Radius =  0.325 angstrom
                   Q00  =   0.076025

H          x = -2.176932  y = -2.590140  z = -1.314251 angstrom
           Maximum rank =  0   Radius =  0.325 angstrom
                   Q00  =   0.073365

H          x = -1.255582  y = -2.027420  z = -2.731436 angstrom
           Maximum rank =  0   Radius =  0.325 angstrom
                   Q00  =   0.081444

H          x = -0.604142  y = -3.299260  z = -1.601277 angstrom
           Maximum rank =  0   Radius =  0.325 angstrom
                   Q00  =   0.078832

Total multipoles referred to origin at
           x =   0.000000,  y =    0.000000,  z =    0.000000 angstrom
                   Q00  =  -0.000000

Finished at 22:16:3 on 27 Apr 2020

  DMA results are available in the Python driver through the
	  variable('DMA DISTRIBUTED MULTIPOLES')
  and
	  variable('DMA TOTAL MULTIPOLES')
  commands.

    Psi4 stopped on: Monday, 27 April 2020 10:16PM
    Psi4 wall time for execution: 0:00:10.46

*** Psi4 exiting successfully. Buy a developer a beer!
