                               Psi4 1.3.2 release

  ==> Input File <==

--------------------------------------------------------------------------
import numpy as np
set {scf_type pk
basis cc-pvdz
d_convergence 10
gdma_switch   0
gdma_limit    0
gdma_origin   [ 0.0,  0.0,  0.0 ]
}
molecule test {
    units Angstrom
    0 1
    --
    0 1
    C               -0.587825715520690    -1.576583133041001    -0.731611086716997
    C               -1.827825715520690    -1.959583133041001     0.079388913283003
    H               -0.628825715520690    -2.020583133041001    -1.727611086716997
    H               -0.463825715520690    -0.516583133041001    -0.777611086716997
    H                0.316174284479310    -1.940583133041001    -0.238611086716997
    H               -2.713825715520690    -1.986583133041001    -0.538611086716997
    H               -1.679428715520690    -2.960533133041001     0.510757373283003
    H               -1.964179715520690    -1.241933133041001     0.901815913283003
    C                0.752174284479310     1.711416866958999    -0.284611086716997
    C                1.653174284479310     1.824416866958999     0.934388913283003
    H                0.665174284479310     2.682416866958999    -0.769611086716997
    H                1.178174284479310     1.012416866958999    -1.004611086716997
    H               -0.245825715520690     1.409416866958999     0.028388913283003
    H                2.550174284479310     2.362416866958999     0.637388913283003
    H                1.135964284479310     2.375867866958999     1.733386913283003
    H                1.972924284479310     0.828222866958999     1.274032913283003

}
e, wfn = energy('scf', return_wfn=True)
gdma(wfn)
dmavals = variable('DMA DISTRIBUTED MULTIPOLES')
charges = np.array(dmavals)
print(charges)
np.save('SSI-078LEU-108VAL-1-dimer.npy', np.array(charges))--------------------------------------------------------------------------

*** tstart() called on ds3
*** at Sun Apr 26 18:18:54 2020

   => Loading Basis Set <=

    Name: CC-PVDZ
    Role: ORBITAL
    Keyword: BASIS
    atoms 1-2, 9-10  entry C          line   138 file /theoryfs2/ds/metcalf/miniconda2/envs/tf2gpu/share/psi4/basis/cc-pvdz.gbs
    atoms 3-8, 11-16 entry H          line    22 file /theoryfs2/ds/metcalf/miniconda2/envs/tf2gpu/share/psi4/basis/cc-pvdz.gbs

         ---------------------------------------------------------
                                   SCF
               by Justin Turney, Rob Parrish, Andy Simmonett
                          and Daniel G. A. Smith
                              RHF Reference
                        1 Threads,    500 MiB Core
         ---------------------------------------------------------

  ==> Geometry <==

    Molecular point group: c1
    Full point group: C1

    Geometry (in Angstrom), charge = 0, multiplicity = 1:

       Center              X                  Y                   Z               Mass
    ------------   -----------------  -----------------  -----------------  -----------------
         C           -0.587825715521    -1.576583133041    -0.731611086717    12.000000000000
         C           -1.827825715521    -1.959583133041     0.079388913283    12.000000000000
         H           -0.628825715521    -2.020583133041    -1.727611086717     1.007825032230
         H           -0.463825715521    -0.516583133041    -0.777611086717     1.007825032230
         H            0.316174284479    -1.940583133041    -0.238611086717     1.007825032230
         H           -2.713825715521    -1.986583133041    -0.538611086717     1.007825032230
         H           -1.679428715521    -2.960533133041     0.510757373283     1.007825032230
         H           -1.964179715521    -1.241933133041     0.901815913283     1.007825032230
         C            0.752174284479     1.711416866959    -0.284611086717    12.000000000000
         C            1.653174284479     1.824416866959     0.934388913283    12.000000000000
         H            0.665174284479     2.682416866959    -0.769611086717     1.007825032230
         H            1.178174284479     1.012416866959    -1.004611086717     1.007825032230
         H           -0.245825715521     1.409416866959     0.028388913283     1.007825032230
         H            2.550174284479     2.362416866959     0.637388913283     1.007825032230
         H            1.135964284479     2.375867866959     1.733386913283     1.007825032230
         H            1.972924284479     0.828222866959     1.274032913283     1.007825032230

  Running in c1 symmetry.

  Rotational constants: A =      0.43735  B =      0.05362  C =      0.05222 [cm^-1]
  Rotational constants: A =  13111.40026  B =   1607.43770  C =   1565.40889 [MHz]
  Nuclear repulsion =  124.185152226803211

  Charge       = 0
  Multiplicity = 1
  Electrons    = 36
  Nalpha       = 18
  Nbeta        = 18

  ==> Algorithm <==

  SCF Algorithm Type is PK.
  DIIS enabled.
  MOM disabled.
  Fractional occupation disabled.
  Guess Type is SAD.
  Energy threshold   = 1.00e-06
  Density threshold  = 1.00e-10
  Integral threshold = 0.00e+00

  ==> Primary Basis <==

  Basis Set: CC-PVDZ
    Blend: CC-PVDZ
    Number of shells: 60
    Number of basis function: 116
    Number of Cartesian functions: 120
    Spherical Harmonics?: true
    Max angular momentum: 2

  ==> Pre-Iterations <==

   -------------------------------------------------------
    Irrep   Nso     Nmo     Nalpha   Nbeta   Ndocc  Nsocc
   -------------------------------------------------------
     A        116     116       0       0       0       0
   -------------------------------------------------------
    Total     116     116      18      18      18       0
   -------------------------------------------------------

  ==> Integral Setup <==

  Using integral reordering PK algorithm.
  Sizing the integral batches needed.
  Building batch lookup table.
   Calculation information:
      Number of atoms:                  16
      Number of AO shells:              60
      Number of primitives:            148
      Number of atomic orbitals:       120
      Number of basis functions:       116

      Integral cutoff                 1.00e-12
      Number of threads:                 1

	Batch   1 pq = [       0,    6786] index = [             0,23028291] size =     23028291
  Task number: 3
  Buffer size: 11059200
  Buffer per thread: 2
  We computed 1505110 shell quartets total.
  Whereas there are 1675365 unique shell quartets.

  ==> DiskJK: Disk-Based J/K Matrices <==

    J tasked:                  Yes
    K tasked:                  Yes
    wK tasked:                  No
    Memory [MiB]:              375
    Schwarz Cutoff:          1E-12

    OpenMP threads:              1

  Minimum eigenvalue in the overlap matrix is 7.0558804276E-03.
  Using Symmetric Orthogonalization.

  SCF Guess: Superposition of Atomic Densities via on-the-fly atomic UHF.

  ==> Iterations <==

                        Total Energy        Delta E     RMS |[F,P]|

   @RHF iter SAD:  -157.40569805883018   -1.57406e+02   0.00000e+00
   @RHF iter   1:  -158.30078476962353   -8.95087e-01   4.22975e-03 DIIS
   @RHF iter   2:  -158.43520214644710   -1.34417e-01   1.79408e-03 DIIS
   @RHF iter   3:  -158.45857088867382   -2.33687e-02   3.51522e-04 DIIS
   @RHF iter   4:  -158.46042057744165   -1.84969e-03   3.97265e-05 DIIS
   @RHF iter   5:  -158.46044541255316   -2.48351e-05   7.13485e-06 DIIS
   @RHF iter   6:  -158.46044613207272   -7.19520e-07   1.44545e-06 DIIS
   @RHF iter   7:  -158.46044615214140   -2.00687e-08   3.35450e-07 DIIS
   @RHF iter   8:  -158.46044615327332   -1.13192e-09   4.53973e-08 DIIS
   @RHF iter   9:  -158.46044615330487   -3.15481e-11   1.05848e-08 DIIS
   @RHF iter  10:  -158.46044615330618   -1.30740e-12   2.90706e-09 DIIS
   @RHF iter  11:  -158.46044615330632   -1.42109e-13   8.28603e-10 DIIS
   @RHF iter  12:  -158.46044615330683   -5.11591e-13   1.78311e-10 DIIS
   @RHF iter  13:  -158.46044615330644    3.97904e-13   2.58132e-11 DIIS
  Energy and wave function converged.

  ==> Post-Iterations <==

    Orbital Energies [Eh]
    ---------------------

    Doubly Occupied:

       1A    -11.219119     2A    -11.216994     3A    -11.216521
       4A    -11.210623     5A     -1.023198     6A     -1.015925
       7A     -0.842076     8A     -0.833964     9A     -0.608438
      10A     -0.605339    11A     -0.594746    12A     -0.588791
      13A     -0.507120    14A     -0.499606    15A     -0.490867
      16A     -0.490163    17A     -0.483301    18A     -0.469529

    Virtual:

      19A      0.169534    20A      0.200688    21A      0.219363
      22A      0.236266    23A      0.243495    24A      0.252852
      25A      0.264724    26A      0.276977    27A      0.286638
      28A      0.310834    29A      0.317562    30A      0.345431
      31A      0.393702    32A      0.417122    33A      0.564915
      34A      0.596267    35A      0.603869    36A      0.609765
      37A      0.620075    38A      0.628034    39A      0.686062
      40A      0.689721    41A      0.703273    42A      0.826131
      43A      0.849951    44A      0.856606    45A      0.871833
      46A      0.880343    47A      0.892964    48A      0.895617
      49A      0.900641    50A      0.909788    51A      0.914757
      52A      0.926745    53A      0.948649    54A      0.953847
      55A      0.965913    56A      1.007388    57A      1.109980
      58A      1.116161    59A      1.119536    60A      1.182111
      61A      1.233146    62A      1.311603    63A      1.475126
      64A      1.486793    65A      1.494279    66A      1.495719
      67A      1.547441    68A      1.605664    69A      1.678159
      70A      1.685660    71A      1.690876    72A      1.728585
      73A      1.846835    74A      1.859055    75A      1.876181
      76A      1.890717    77A      1.904624    78A      1.907996
      79A      1.922896    80A      1.935643    81A      1.936810
      82A      1.942317    83A      1.945368    84A      1.961439
      85A      1.967722    86A      1.975050    87A      1.989881
      88A      2.024276    89A      2.115022    90A      2.145065
      91A      2.159542    92A      2.176206    93A      2.297610
      94A      2.304696    95A      2.309701    96A      2.331094
      97A      2.426868    98A      2.433529    99A      2.445023
     100A      2.477189   101A      2.574138   102A      2.592038
     103A      2.604114   104A      2.613638   105A      2.761345
     106A      2.770286   107A      2.794496   108A      2.801770
     109A      2.830494   110A      2.846759   111A      2.860507
     112A      2.872332   113A      2.927936   114A      2.956887
     115A      2.988579   116A      3.013531

    Final Occupation by Irrep:
              A
    DOCC [    18 ]

  @RHF Final Energy:  -158.46044615330644

   => Energetics <=

    Nuclear Repulsion Energy =            124.1851522268032113
    One-Electron Energy =                -457.4585565940978995
    Two-Electron Energy =                 174.8129582139882530
    Total Energy =                       -158.4604461533064352

Computation Completed

Properties will be evaluated at   0.000000,   0.000000,   0.000000 [a0]

Properties computed using the SCF density matrix

  Nuclear Dipole Moment: [e a0]
     X:     0.1150      Y:     0.0037      Z:     0.0273

  Electronic Dipole Moment: [e a0]
     X:    -0.0838      Y:     0.0497      Z:    -0.0409

  Dipole Moment: [e a0]
     X:     0.0312      Y:     0.0534      Z:    -0.0136     Total:     0.0633

  Dipole Moment: [D]
     X:     0.0792      Y:     0.1359      Z:    -0.0345     Total:     0.1610

*** tstop() called on ds3 at Sun Apr 26 18:19:05 2020
Module time:
	user time   =       7.80 seconds =       0.13 minutes
	system time =       2.57 seconds =       0.04 minutes
	total time  =         11 seconds =       0.18 minutes
Total time:
	user time   =       7.80 seconds =       0.13 minutes
	system time =       2.57 seconds =       0.04 minutes
	total time  =         11 seconds =       0.18 minutes
                                     G D M A

                                 by Anthony Stone

                           version 2.2.06, 22 June 2011

               Distributed Multipoles from Gaussian wavefunctions

Starting at 18:19:5 on 26 Apr 2020

Using SCF density matrix from file ./SSI/SSI-078LEU-108VAL-1-dimer.test.3378.fchk

                         Distributed Multipole Analysis

Standard DMA

Positions and radii in angstrom
Multipole moments in atomic units, ea_0^k for rank k

C          x = -0.587826  y = -1.576583  z = -0.731611 angstrom
           Maximum rank =  0   Radius =  0.650 angstrom
                   Q00  =  -0.246068

C          x = -1.827826  y = -1.959583  z =  0.079389 angstrom
           Maximum rank =  0   Radius =  0.650 angstrom
                   Q00  =  -0.236261

H          x = -0.628826  y = -2.020583  z = -1.727611 angstrom
           Maximum rank =  0   Radius =  0.325 angstrom
                   Q00  =   0.077860

H          x = -0.463826  y = -0.516583  z = -0.777611 angstrom
           Maximum rank =  0   Radius =  0.325 angstrom
                   Q00  =   0.099425

H          x =  0.316174  y = -1.940583  z = -0.238611 angstrom
           Maximum rank =  0   Radius =  0.325 angstrom
                   Q00  =   0.071731

H          x = -2.713826  y = -1.986583  z = -0.538611 angstrom
           Maximum rank =  0   Radius =  0.325 angstrom
                   Q00  =   0.082621

H          x = -1.679429  y = -2.960533  z =  0.510757 angstrom
           Maximum rank =  0   Radius =  0.325 angstrom
                   Q00  =   0.075902

H          x = -1.964180  y = -1.241933  z =  0.901816 angstrom
           Maximum rank =  0   Radius =  0.325 angstrom
                   Q00  =   0.074997

C          x =  0.752174  y =  1.711417  z = -0.284611 angstrom
           Maximum rank =  0   Radius =  0.650 angstrom
                   Q00  =  -0.241139

C          x =  1.653174  y =  1.824417  z =  0.934389 angstrom
           Maximum rank =  0   Radius =  0.650 angstrom
                   Q00  =  -0.222417

H          x =  0.665174  y =  2.682417  z = -0.769611 angstrom
           Maximum rank =  0   Radius =  0.325 angstrom
                   Q00  =   0.077023

H          x =  1.178174  y =  1.012417  z = -1.004611 angstrom
           Maximum rank =  0   Radius =  0.325 angstrom
                   Q00  =   0.079524

H          x = -0.245826  y =  1.409417  z =  0.028389 angstrom
           Maximum rank =  0   Radius =  0.325 angstrom
                   Q00  =   0.073789

H          x =  2.550174  y =  2.362417  z =  0.637389 angstrom
           Maximum rank =  0   Radius =  0.325 angstrom
                   Q00  =   0.076591

H          x =  1.135964  y =  2.375868  z =  1.733387 angstrom
           Maximum rank =  0   Radius =  0.325 angstrom
                   Q00  =   0.079007

H          x =  1.972924  y =  0.828223  z =  1.274033 angstrom
           Maximum rank =  0   Radius =  0.325 angstrom
                   Q00  =   0.077415

Total multipoles referred to origin at
           x =   0.000000,  y =    0.000000,  z =    0.000000 angstrom
                   Q00  =  -0.000000

Finished at 18:19:5 on 26 Apr 2020

  DMA results are available in the Python driver through the
	  variable('DMA DISTRIBUTED MULTIPOLES')
  and
	  variable('DMA TOTAL MULTIPOLES')
  commands.

    Psi4 stopped on: Sunday, 26 April 2020 06:19PM
    Psi4 wall time for execution: 0:00:11.34

*** Psi4 exiting successfully. Buy a developer a beer!
