                               Psi4 1.3.2 release

  ==> Input File <==

--------------------------------------------------------------------------
import numpy as np
set {scf_type pk
basis cc-pvdz
d_convergence 10
gdma_switch   0
gdma_limit    0
gdma_origin   [ 0.0,  0.0,  0.0 ]
}
molecule test {
    units Angstrom
    1 1
    --
    1 1
    C                0.306979451602045    -1.136845758133559     3.379810772974525
    C                0.088979451602045     0.903154241866440     1.997810772974525
    N                0.546979451602045     1.663154241866441     1.023810772974524
    N                0.721979451602045    -0.212845758133559     2.318810772974525
    N               -1.000020548397955     1.261154241866441     2.645810772974525
    H                1.346979451602045     1.321154241866441     0.502810772974524
    H                0.058979451602045     2.504154241866441     0.755810772974524
    H                1.486979451602045    -0.489845758133560     1.702810772974525
    H               -1.446020548397955     0.618154241866441     3.287810772974525
    H               -1.482020548397955     2.141154241866441     2.445810772974525
    H               -0.044020548397955    -2.061845758133559     2.915810772974525
    H               -0.499020548397955    -0.737845758133559     3.994810772974525
    H                1.149879451602045    -1.372072758133559     4.046287772974524
    C               -1.470020548397955    -0.694845758133560    -3.459189227025476
    C               -0.080020548397955    -0.659845758133560    -2.860189227025475
    O                0.828979451602045    -1.364845758133560    -3.299189227025476
    N                0.103979451602045     0.169154241866441    -1.852189227025475
    H                0.952979451602045     0.021154241866441    -1.314189227025475
    H               -0.699020548397955     0.655154241866440    -1.463189227025475
    H               -1.649020548397955     0.297154241866441    -3.870189227025475
    H               -2.194020548397955    -0.881845758133559    -2.664189227025475
    H               -1.579150548397955    -1.465227758133560    -4.236751227025476

}
e, wfn = energy('scf', return_wfn=True)
gdma(wfn)
dmavals = variable('DMA DISTRIBUTED MULTIPOLES')
charges = np.array(dmavals)
print(charges)
np.save('SSI-009ARG-103GLN-1-dimer.npy', np.array(charges))--------------------------------------------------------------------------

*** tstart() called on ds3
*** at Mon Apr 27 22:07:20 2020

   => Loading Basis Set <=

    Name: CC-PVDZ
    Role: ORBITAL
    Keyword: BASIS
    atoms 1-2, 14-15  entry C          line   138 file /theoryfs2/ds/metcalf/miniconda2/envs/tf2gpu/share/psi4/basis/cc-pvdz.gbs
    atoms 3-5, 17     entry N          line   168 file /theoryfs2/ds/metcalf/miniconda2/envs/tf2gpu/share/psi4/basis/cc-pvdz.gbs
    atoms 6-13, 18-22 entry H          line    22 file /theoryfs2/ds/metcalf/miniconda2/envs/tf2gpu/share/psi4/basis/cc-pvdz.gbs
    atoms 16          entry O          line   198 file /theoryfs2/ds/metcalf/miniconda2/envs/tf2gpu/share/psi4/basis/cc-pvdz.gbs

         ---------------------------------------------------------
                                   SCF
               by Justin Turney, Rob Parrish, Andy Simmonett
                          and Daniel G. A. Smith
                              RHF Reference
                        1 Threads,    500 MiB Core
         ---------------------------------------------------------

  ==> Geometry <==

    Molecular point group: c1
    Full point group: C1

    Geometry (in Angstrom), charge = 1, multiplicity = 1:

       Center              X                  Y                   Z               Mass
    ------------   -----------------  -----------------  -----------------  -----------------
         C            0.306979451602    -1.136845758134     3.379810772975    12.000000000000
         C            0.088979451602     0.903154241866     1.997810772975    12.000000000000
         N            0.546979451602     1.663154241866     1.023810772975    14.003074004430
         N            0.721979451602    -0.212845758134     2.318810772975    14.003074004430
         N           -1.000020548398     1.261154241866     2.645810772975    14.003074004430
         H            1.346979451602     1.321154241866     0.502810772975     1.007825032230
         H            0.058979451602     2.504154241866     0.755810772975     1.007825032230
         H            1.486979451602    -0.489845758134     1.702810772975     1.007825032230
         H           -1.446020548398     0.618154241866     3.287810772975     1.007825032230
         H           -1.482020548398     2.141154241866     2.445810772975     1.007825032230
         H           -0.044020548398    -2.061845758134     2.915810772975     1.007825032230
         H           -0.499020548398    -0.737845758134     3.994810772975     1.007825032230
         H            1.149879451602    -1.372072758134     4.046287772975     1.007825032230
         C           -1.470020548398    -0.694845758134    -3.459189227025    12.000000000000
         C           -0.080020548398    -0.659845758134    -2.860189227025    12.000000000000
         O            0.828979451602    -1.364845758134    -3.299189227025    15.994914619570
         N            0.103979451602     0.169154241866    -1.852189227025    14.003074004430
         H            0.952979451602     0.021154241866    -1.314189227025     1.007825032230
         H           -0.699020548398     0.655154241866    -1.463189227025     1.007825032230
         H           -1.649020548398     0.297154241866    -3.870189227025     1.007825032230
         H           -2.194020548398    -0.881845758134    -2.664189227025     1.007825032230
         H           -1.579150548398    -1.465227758134    -4.236751227025     1.007825032230

  Running in c1 symmetry.

  Rotational constants: A =      0.08243  B =      0.01609  C =      0.01522 [cm^-1]
  Rotational constants: A =   2471.14212  B =    482.40946  C =    456.20246 [MHz]
  Nuclear repulsion =  448.189919285606038

  Charge       = 1
  Multiplicity = 1
  Electrons    = 72
  Nalpha       = 36
  Nbeta        = 36

  ==> Algorithm <==

  SCF Algorithm Type is PK.
  DIIS enabled.
  MOM disabled.
  Fractional occupation disabled.
  Guess Type is SAD.
  Energy threshold   = 1.00e-06
  Density threshold  = 1.00e-10
  Integral threshold = 0.00e+00

  ==> Primary Basis <==

  Basis Set: CC-PVDZ
    Blend: CC-PVDZ
    Number of shells: 93
    Number of basis function: 191
    Number of Cartesian functions: 200
    Spherical Harmonics?: true
    Max angular momentum: 2

  ==> Pre-Iterations <==

   -------------------------------------------------------
    Irrep   Nso     Nmo     Nalpha   Nbeta   Ndocc  Nsocc
   -------------------------------------------------------
     A        191     191       0       0       0       0
   -------------------------------------------------------
    Total     191     191      36      36      36       0
   -------------------------------------------------------

  ==> Integral Setup <==

  Using integral reordering PK algorithm.
  Sizing the integral batches needed.
  Building batch lookup table.
   Calculation information:
      Number of atoms:                  22
      Number of AO shells:              93
      Number of primitives:            263
      Number of atomic orbitals:       200
      Number of basis functions:       191

      Integral cutoff                 1.00e-12
      Number of threads:                 1

	Batch   1 pq = [       0,    9405] index = [             0,44231715] size =     44231715
	Batch   2 pq = [    9405,   13301] index = [      44231715,88464951] size =     44233236
	Batch   3 pq = [   13301,   16290] index = [      88464951,132690195] size =     44225244
	Batch   4 pq = [   16290,   18336] index = [     132690195,168113616] size =     35423421
  Task number: 16
  Buffer size: 11059200
  Buffer per thread: 2
  We computed 6980957 shell quartets total.
  Whereas there are 9555006 unique shell quartets.

  ==> DiskJK: Disk-Based J/K Matrices <==

    J tasked:                  Yes
    K tasked:                  Yes
    wK tasked:                  No
    Memory [MiB]:              375
    Schwarz Cutoff:          1E-12

    OpenMP threads:              1

  Minimum eigenvalue in the overlap matrix is 3.8866805662E-03.
  Using Symmetric Orthogonalization.

  SCF Guess: Superposition of Atomic Densities via on-the-fly atomic UHF.

  ==> Iterations <==

                        Total Energy        Delta E     RMS |[F,P]|

   @RHF iter SAD:  -450.73944238408643   -4.50739e+02   0.00000e+00
   @RHF iter   1:  -451.27817602905236   -5.38734e-01   3.75571e-03 DIIS
   @RHF iter   2:  -451.49803664097192   -2.19861e-01   2.00600e-03 DIIS
   @RHF iter   3:  -451.55263383638993   -5.45972e-02   4.81563e-04 DIIS
   @RHF iter   4:  -451.55738746936737   -4.75363e-03   1.83816e-04 DIIS
   @RHF iter   5:  -451.55811438454089   -7.26915e-04   3.25009e-05 DIIS
   @RHF iter   6:  -451.55816610443185   -5.17199e-05   1.46502e-05 DIIS
   @RHF iter   7:  -451.55817413347972   -8.02905e-06   5.46995e-06 DIIS
   @RHF iter   8:  -451.55817566777120   -1.53429e-06   1.75315e-06 DIIS
   @RHF iter   9:  -451.55817583870294   -1.70932e-07   5.37793e-07 DIIS
   @RHF iter  10:  -451.55817585192477   -1.32218e-08   1.90933e-07 DIIS
   @RHF iter  11:  -451.55817585322279   -1.29802e-09   3.64772e-08 DIIS
   @RHF iter  12:  -451.55817585327696   -5.41718e-11   1.15913e-08 DIIS
   @RHF iter  13:  -451.55817585328242   -5.45697e-12   4.08030e-09 DIIS
   @RHF iter  14:  -451.55817585327941    3.01270e-12   1.45763e-09 DIIS
   @RHF iter  15:  -451.55817585328043   -1.02318e-12   6.93032e-10 DIIS
   @RHF iter  16:  -451.55817585327787    2.55795e-12   3.09664e-10 DIIS
   @RHF iter  17:  -451.55817585327713    7.38964e-13   1.11436e-10 DIIS
   @RHF iter  18:  -451.55817585328168   -4.54747e-12   3.24869e-11 DIIS
  Energy and wave function converged.

  ==> Post-Iterations <==

    Orbital Energies [Eh]
    ---------------------

    Doubly Occupied:

       1A    -20.601099     2A    -15.803296     3A    -15.800695
       4A    -15.800534     5A    -15.702382     6A    -11.602051
       7A    -11.452058     8A    -11.442786     9A    -11.330554
      10A     -1.560444    11A     -1.465936    12A     -1.414619
      13A     -1.404722    14A     -1.327857    15A     -1.153250
      16A     -1.092912    17A     -1.049490    18A     -0.988397
      19A     -0.957591    20A     -0.903789    21A     -0.874515
      22A     -0.865388    23A     -0.839324    24A     -0.834459
      25A     -0.807508    26A     -0.754843    27A     -0.746695
      28A     -0.735692    29A     -0.710684    30A     -0.664734
      31A     -0.647864    32A     -0.631239    33A     -0.619264
      34A     -0.596078    35A     -0.509204    36A     -0.503194

    Virtual:

      37A     -0.029853    38A      0.005219    39A      0.015598
      40A      0.021078    41A      0.050011    42A      0.063311
      43A      0.077201    44A      0.104463    45A      0.108824
      46A      0.112476    47A      0.135563    48A      0.139718
      49A      0.159120    50A      0.181979    51A      0.186166
      52A      0.193333    53A      0.256806    54A      0.293654
      55A      0.317204    56A      0.329426    57A      0.365521
      58A      0.412608    59A      0.426634    60A      0.439336
      61A      0.495427    62A      0.506033    63A      0.513718
      64A      0.520162    65A      0.541383    66A      0.546726
      67A      0.556406    68A      0.581430    69A      0.622691
      70A      0.639207    71A      0.640578    72A      0.644940
      73A      0.659696    74A      0.677683    75A      0.681065
      76A      0.696297    77A      0.736753    78A      0.744502
      79A      0.755667    80A      0.758176    81A      0.768617
      82A      0.784393    83A      0.802254    84A      0.815225
      85A      0.831026    86A      0.841114    87A      0.859205
      88A      0.871609    89A      0.888647    90A      0.904137
      91A      0.933039    92A      0.937351    93A      0.983971
      94A      0.999379    95A      1.024897    96A      1.034232
      97A      1.050525    98A      1.106359    99A      1.127272
     100A      1.143723   101A      1.166929   102A      1.186652
     103A      1.199638   104A      1.221692   105A      1.248640
     106A      1.271278   107A      1.288013   108A      1.299339
     109A      1.305505   110A      1.350911   111A      1.380127
     112A      1.429144   113A      1.442527   114A      1.482269
     115A      1.510311   116A      1.525571   117A      1.536024
     118A      1.568722   119A      1.572654   120A      1.596185
     121A      1.600841   122A      1.622658   123A      1.664726
     124A      1.685182   125A      1.694543   126A      1.717413
     127A      1.723356   128A      1.742192   129A      1.755702
     130A      1.762936   131A      1.767910   132A      1.783311
     133A      1.806558   134A      1.816769   135A      1.821087
     136A      1.865130   137A      1.872697   138A      1.896509
     139A      1.903882   140A      1.930896   141A      1.974423
     142A      1.997211   143A      2.004096   144A      2.006187
     145A      2.053232   146A      2.086031   147A      2.120486
     148A      2.141081   149A      2.149219   150A      2.161066
     151A      2.217607   152A      2.245442   153A      2.279394
     154A      2.285343   155A      2.299968   156A      2.327692
     157A      2.348862   158A      2.355739   159A      2.373594
     160A      2.404732   161A      2.432821   162A      2.444885
     163A      2.466465   164A      2.528828   165A      2.544891
     166A      2.562086   167A      2.574062   168A      2.617048
     169A      2.651638   170A      2.656485   171A      2.702290
     172A      2.718717   173A      2.730803   174A      2.763438
     175A      2.785662   176A      2.792607   177A      2.829631
     178A      2.877319   179A      2.897765   180A      2.988813
     181A      3.030372   182A      3.045371   183A      3.071766
     184A      3.106906   185A      3.176209   186A      3.377011
     187A      3.443113   188A      3.542930   189A      3.633905
     190A      3.758990   191A      3.797934

    Final Occupation by Irrep:
              A
    DOCC [    36 ]

  @RHF Final Energy:  -451.55817585328168

   => Energetics <=

    Nuclear Repulsion Energy =            448.1899192856060381
    One-Electron Energy =               -1491.1058930877416060
    Two-Electron Energy =                 591.3577979488538858
    Total Energy =                       -451.5581758532816821

Computation Completed

Properties will be evaluated at   0.000000,   0.000000,   0.000000 [a0]

Properties computed using the SCF density matrix

  Nuclear Dipole Moment: [e a0]
     X:    -4.3062      Y:     0.5001      Z:     5.6939

  Electronic Dipole Moment: [e a0]
     X:     3.1967      Y:     1.5872      Z:    -1.0861

  Dipole Moment: [e a0]
     X:    -1.1095      Y:     2.0873      Z:     4.6079     Total:     5.1788

  Dipole Moment: [D]
     X:    -2.8201      Y:     5.3054      Z:    11.7120     Total:    13.1633

*** tstop() called on ds3 at Mon Apr 27 22:08:31 2020
Module time:
	user time   =      47.22 seconds =       0.79 minutes
	system time =      26.94 seconds =       0.45 minutes
	total time  =         71 seconds =       1.18 minutes
Total time:
	user time   =      47.22 seconds =       0.79 minutes
	system time =      26.94 seconds =       0.45 minutes
	total time  =         71 seconds =       1.18 minutes
                                     G D M A

                                 by Anthony Stone

                           version 2.2.06, 22 June 2011

               Distributed Multipoles from Gaussian wavefunctions

Starting at 22:8:31 on 27 Apr 2020

Using SCF density matrix from file ./SSI/SSI-009ARG-103GLN-1-dimer.test.32365.fchk

                         Distributed Multipole Analysis

Standard DMA

Positions and radii in angstrom
Multipole moments in atomic units, ea_0^k for rank k

C          x =  0.306979  y = -1.136846  z =  3.379811 angstrom
           Maximum rank =  0   Radius =  0.650 angstrom
                   Q00  =  -0.125994

C          x =  0.088979  y =  0.903154  z =  1.997811 angstrom
           Maximum rank =  0   Radius =  0.650 angstrom
                   Q00  =   1.076164

N          x =  0.546979  y =  1.663154  z =  1.023811 angstrom
           Maximum rank =  0   Radius =  0.650 angstrom
                   Q00  =  -0.593309

N          x =  0.721979  y = -0.212846  z =  2.318811 angstrom
           Maximum rank =  0   Radius =  0.650 angstrom
                   Q00  =  -0.492216

N          x = -1.000021  y =  1.261154  z =  2.645811 angstrom
           Maximum rank =  0   Radius =  0.650 angstrom
                   Q00  =  -0.594303

H          x =  1.346979  y =  1.321154  z =  0.502811 angstrom
           Maximum rank =  0   Radius =  0.325 angstrom
                   Q00  =   0.263620

H          x =  0.058979  y =  2.504154  z =  0.755811 angstrom
           Maximum rank =  0   Radius =  0.325 angstrom
                   Q00  =   0.274984

H          x =  1.486979  y = -0.489846  z =  1.702811 angstrom
           Maximum rank =  0   Radius =  0.325 angstrom
                   Q00  =   0.237675

H          x = -1.446021  y =  0.618154  z =  3.287811 angstrom
           Maximum rank =  0   Radius =  0.325 angstrom
                   Q00  =   0.270104

H          x = -1.482021  y =  2.141154  z =  2.445811 angstrom
           Maximum rank =  0   Radius =  0.325 angstrom
                   Q00  =   0.272482

H          x = -0.044021  y = -2.061846  z =  2.915811 angstrom
           Maximum rank =  0   Radius =  0.325 angstrom
                   Q00  =   0.138722

H          x = -0.499021  y = -0.737846  z =  3.994811 angstrom
           Maximum rank =  0   Radius =  0.325 angstrom
                   Q00  =   0.115479

H          x =  1.149879  y = -1.372073  z =  4.046288 angstrom
           Maximum rank =  0   Radius =  0.325 angstrom
                   Q00  =   0.156024

C          x = -1.470021  y = -0.694846  z = -3.459189 angstrom
           Maximum rank =  0   Radius =  0.650 angstrom
                   Q00  =  -0.247510

C          x = -0.080021  y = -0.659846  z = -2.860189 angstrom
           Maximum rank =  0   Radius =  0.650 angstrom
                   Q00  =   0.788664

O          x =  0.828979  y = -1.364846  z = -3.299189 angstrom
           Maximum rank =  0   Radius =  0.650 angstrom
                   Q00  =  -0.772455

N          x =  0.103979  y =  0.169154  z = -1.852189 angstrom
           Maximum rank =  0   Radius =  0.650 angstrom
                   Q00  =  -0.499578

H          x =  0.952979  y =  0.021154  z = -1.314189 angstrom
           Maximum rank =  0   Radius =  0.325 angstrom
                   Q00  =   0.184251

H          x = -0.699021  y =  0.655154  z = -1.463189 angstrom
           Maximum rank =  0   Radius =  0.325 angstrom
                   Q00  =   0.191338

H          x = -1.649021  y =  0.297154  z = -3.870189 angstrom
           Maximum rank =  0   Radius =  0.325 angstrom
                   Q00  =   0.115857

H          x = -2.194021  y = -0.881846  z = -2.664189 angstrom
           Maximum rank =  0   Radius =  0.325 angstrom
                   Q00  =   0.090406

H          x = -1.579151  y = -1.465228  z = -4.236751 angstrom
           Maximum rank =  0   Radius =  0.325 angstrom
                   Q00  =   0.149594

Total multipoles referred to origin at
           x =   0.000000,  y =    0.000000,  z =    0.000000 angstrom
                   Q00  =   1.000000

Finished at 22:8:31 on 27 Apr 2020

  DMA results are available in the Python driver through the
	  variable('DMA DISTRIBUTED MULTIPOLES')
  and
	  variable('DMA TOTAL MULTIPOLES')
  commands.

    Psi4 stopped on: Monday, 27 April 2020 10:08PM
    Psi4 wall time for execution: 0:01:11.63

*** Psi4 exiting successfully. Buy a developer a beer!
