                               Psi4 1.3.2 release

  ==> Input File <==

--------------------------------------------------------------------------
import numpy as np
set {scf_type pk
basis cc-pvdz
d_convergence 10
gdma_switch   0
gdma_limit    0
gdma_origin   [ 0.0,  0.0,  0.0 ]
}
molecule test {
    units Angstrom
    1 1
    --
    1 1
    C                0.387558934187871    -2.495483636200451     0.173454171894449
    C               -1.012441065812129    -0.469483636200451    -0.019545828105551
    N               -0.215441065812129    -1.378483636200450    -0.564545828105551
    N               -1.314441065812130    -0.515483636200451     1.265454171894449
    N               -1.507441065812130     0.500516363799549    -0.762545828105551
    H                0.009558934187871    -1.285483636200450    -1.546545828105551
    H               -0.871441065812129    -1.187483636200451     1.895454171894449
    H               -1.894441065812129     0.210516363799549     1.664454171894449
    H               -1.356441065812130     0.490516363799549    -1.763545828105551
    H               -2.284441065812130     1.029516363799549    -0.395545828105551
    H               -0.340441065812129    -2.886483636200451     0.887454171894449
    H                1.261558934187870    -2.141483636200451     0.723454171894449
    H                0.690758934187871    -3.322983636200451    -0.484805828105551
    C                2.008558934187870     1.475516363799549     0.256454171894449
    C                1.643558934187870     2.805516363799549    -0.387545828105551
    H                2.758558934187871     1.640516363799549     1.031454171894449
    H                1.136558934187871     1.015516363799549     0.714454171894449
    H                2.422558934187870     0.800516363799549    -0.494545828105551
    H                1.005558934187871     2.583516363799550    -1.244545828105551
    H                2.558858934187871     3.321176363799549    -0.713625828105551
    H                1.060088934187870     3.423056363799549     0.311174171894449

}
e, wfn = energy('scf', return_wfn=True)
gdma(wfn)
dmavals = variable('DMA DISTRIBUTED MULTIPOLES')
charges = np.array(dmavals)
print(charges)
np.save('SSI-136ARG-142ALA-1-dimer.npy', np.array(charges))--------------------------------------------------------------------------

*** tstart() called on ds3
*** at Tue Apr 28 00:49:38 2020

   => Loading Basis Set <=

    Name: CC-PVDZ
    Role: ORBITAL
    Keyword: BASIS
    atoms 1-2, 14-15  entry C          line   138 file /theoryfs2/ds/metcalf/miniconda2/envs/tf2gpu/share/psi4/basis/cc-pvdz.gbs
    atoms 3-5         entry N          line   168 file /theoryfs2/ds/metcalf/miniconda2/envs/tf2gpu/share/psi4/basis/cc-pvdz.gbs
    atoms 6-13, 16-21 entry H          line    22 file /theoryfs2/ds/metcalf/miniconda2/envs/tf2gpu/share/psi4/basis/cc-pvdz.gbs

         ---------------------------------------------------------
                                   SCF
               by Justin Turney, Rob Parrish, Andy Simmonett
                          and Daniel G. A. Smith
                              RHF Reference
                        1 Threads,    500 MiB Core
         ---------------------------------------------------------

  ==> Geometry <==

    Molecular point group: c1
    Full point group: C1

    Geometry (in Angstrom), charge = 1, multiplicity = 1:

       Center              X                  Y                   Z               Mass
    ------------   -----------------  -----------------  -----------------  -----------------
         C            0.387558934188    -2.495483636200     0.173454171894    12.000000000000
         C           -1.012441065812    -0.469483636200    -0.019545828106    12.000000000000
         N           -0.215441065812    -1.378483636200    -0.564545828106    14.003074004430
         N           -1.314441065812    -0.515483636200     1.265454171894    14.003074004430
         N           -1.507441065812     0.500516363800    -0.762545828106    14.003074004430
         H            0.009558934188    -1.285483636200    -1.546545828106     1.007825032230
         H           -0.871441065812    -1.187483636200     1.895454171894     1.007825032230
         H           -1.894441065812     0.210516363800     1.664454171894     1.007825032230
         H           -1.356441065812     0.490516363800    -1.763545828106     1.007825032230
         H           -2.284441065812     1.029516363800    -0.395545828106     1.007825032230
         H           -0.340441065812    -2.886483636200     0.887454171894     1.007825032230
         H            1.261558934188    -2.141483636200     0.723454171894     1.007825032230
         H            0.690758934188    -3.322983636200    -0.484805828106     1.007825032230
         C            2.008558934188     1.475516363800     0.256454171894    12.000000000000
         C            1.643558934188     2.805516363800    -0.387545828106    12.000000000000
         H            2.758558934188     1.640516363800     1.031454171894     1.007825032230
         H            1.136558934188     1.015516363800     0.714454171894     1.007825032230
         H            2.422558934188     0.800516363800    -0.494545828106     1.007825032230
         H            1.005558934188     2.583516363800    -1.244545828106     1.007825032230
         H            2.558858934188     3.321176363800    -0.713625828106     1.007825032230
         H            1.060088934188     3.423056363800     0.311174171894     1.007825032230

  Running in c1 symmetry.

  Rotational constants: A =      0.09431  B =      0.04076  C =      0.03471 [cm^-1]
  Rotational constants: A =   2827.43161  B =   1221.91179  C =   1040.50471 [MHz]
  Nuclear repulsion =  328.630450249095588

  Charge       = 1
  Multiplicity = 1
  Electrons    = 58
  Nalpha       = 29
  Nbeta        = 29

  ==> Algorithm <==

  SCF Algorithm Type is PK.
  DIIS enabled.
  MOM disabled.
  Fractional occupation disabled.
  Guess Type is SAD.
  Energy threshold   = 1.00e-06
  Density threshold  = 1.00e-10
  Integral threshold = 0.00e+00

  ==> Primary Basis <==

  Basis Set: CC-PVDZ
    Blend: CC-PVDZ
    Number of shells: 84
    Number of basis function: 168
    Number of Cartesian functions: 175
    Spherical Harmonics?: true
    Max angular momentum: 2

  ==> Pre-Iterations <==

   -------------------------------------------------------
    Irrep   Nso     Nmo     Nalpha   Nbeta   Ndocc  Nsocc
   -------------------------------------------------------
     A        168     168       0       0       0       0
   -------------------------------------------------------
    Total     168     168      29      29      29       0
   -------------------------------------------------------

  ==> Integral Setup <==

  Using integral reordering PK algorithm.
  Sizing the integral batches needed.
  Building batch lookup table.
   Calculation information:
      Number of atoms:                  21
      Number of AO shells:              84
      Number of primitives:            224
      Number of atomic orbitals:       175
      Number of basis functions:       168

      Integral cutoff                 1.00e-12
      Number of threads:                 1

	Batch   1 pq = [       0,    9405] index = [             0,44231715] size =     44231715
	Batch   2 pq = [    9405,   13301] index = [      44231715,88464951] size =     44233236
	Batch   3 pq = [   13301,   14196] index = [      88464951,100770306] size =     12305355
  Task number: 10
  Buffer size: 11059200
  Buffer per thread: 2
  We computed 6186727 shell quartets total.
  Whereas there are 6374235 unique shell quartets.

  ==> DiskJK: Disk-Based J/K Matrices <==

    J tasked:                  Yes
    K tasked:                  Yes
    wK tasked:                  No
    Memory [MiB]:              375
    Schwarz Cutoff:          1E-12

    OpenMP threads:              1

  Minimum eigenvalue in the overlap matrix is 3.3563054979E-03.
  Using Symmetric Orthogonalization.

  SCF Guess: Superposition of Atomic Densities via on-the-fly atomic UHF.

  ==> Iterations <==

                        Total Energy        Delta E     RMS |[F,P]|

   @RHF iter SAD:  -322.12031805341587   -3.22120e+02   0.00000e+00
   @RHF iter   1:  -322.61338119694136   -4.93063e-01   3.42404e-03 DIIS
   @RHF iter   2:  -322.78612647579223   -1.72745e-01   1.35132e-03 DIIS
   @RHF iter   3:  -322.81173118961135   -2.56047e-02   3.20844e-04 DIIS
   @RHF iter   4:  -322.81417700317451   -2.44581e-03   4.99926e-05 DIIS
   @RHF iter   5:  -322.81424088976354   -6.38866e-05   2.05392e-05 DIIS
   @RHF iter   6:  -322.81424962928958   -8.73953e-06   4.20987e-06 DIIS
   @RHF iter   7:  -322.81425027009220   -6.40803e-07   1.35983e-06 DIIS
   @RHF iter   8:  -322.81425031402495   -4.39327e-08   4.01147e-07 DIIS
   @RHF iter   9:  -322.81425031790582   -3.88087e-09   1.00051e-07 DIIS
   @RHF iter  10:  -322.81425031815968   -2.53863e-10   3.03697e-08 DIIS
   @RHF iter  11:  -322.81425031818253   -2.28511e-11   7.86926e-09 DIIS
   @RHF iter  12:  -322.81425031818571   -3.18323e-12   2.56137e-09 DIIS
   @RHF iter  13:  -322.81425031818543    2.84217e-13   9.93871e-10 DIIS
   @RHF iter  14:  -322.81425031818509    3.41061e-13   3.03397e-10 DIIS
   @RHF iter  15:  -322.81425031818605   -9.66338e-13   6.46752e-11 DIIS
  Energy and wave function converged.

  ==> Post-Iterations <==

    Orbital Energies [Eh]
    ---------------------

    Doubly Occupied:

       1A    -15.792817     2A    -15.788948     3A    -15.788332
       4A    -11.591457     5A    -11.442881     6A    -11.330661
       7A    -11.325110     8A     -1.547469     9A     -1.403860
      10A     -1.392238    11A     -1.141367    12A     -1.131392
      13A     -1.039918    14A     -0.978395    15A     -0.945781
      16A     -0.940191    17A     -0.861103    18A     -0.855498
      19A     -0.827916    20A     -0.794460    21A     -0.745312
      22A     -0.723631    23A     -0.711389    24A     -0.708470
      25A     -0.621387    26A     -0.610029    27A     -0.598522
      28A     -0.593230    29A     -0.585491

    Virtual:

      30A     -0.015302    31A      0.015842    32A      0.023575
      33A      0.032941    34A      0.057777    35A      0.078994
      36A      0.088082    37A      0.110357    38A      0.113314
      39A      0.124271    40A      0.149518    41A      0.153831
      42A      0.169112    43A      0.178516    44A      0.186977
      45A      0.197039    46A      0.283549    47A      0.301598
      48A      0.325872    49A      0.336165    50A      0.436690
      51A      0.447445    52A      0.482113    53A      0.487942
      54A      0.489155    55A      0.513735    56A      0.523821
      57A      0.531552    58A      0.546911    59A      0.558297
      60A      0.580410    61A      0.599736    62A      0.669828
      63A      0.676977    64A      0.696675    65A      0.704714
      66A      0.730529    67A      0.745491    68A      0.747641
      69A      0.752597    70A      0.754233    71A      0.776942
      72A      0.793463    73A      0.795608    74A      0.795887
      75A      0.821110    76A      0.836008    77A      0.862071
      78A      0.869365    79A      0.900964    80A      0.911623
      81A      0.936934    82A      0.962509    83A      0.977550
      84A      1.007976    85A      1.024002    86A      1.035962
      87A      1.093514    88A      1.124188    89A      1.145659
      90A      1.163069    91A      1.197343    92A      1.206784
      93A      1.238168    94A      1.300052    95A      1.354858
      96A      1.381391    97A      1.388057    98A      1.439390
      99A      1.479660   100A      1.499917   101A      1.525642
     102A      1.545970   103A      1.567274   104A      1.574538
     105A      1.607348   106A      1.642406   107A      1.656972
     108A      1.669127   109A      1.720493   110A      1.732861
     111A      1.741681   112A      1.750149   113A      1.761727
     114A      1.767952   115A      1.784498   116A      1.811424
     117A      1.820614   118A      1.829284   119A      1.838806
     120A      1.842364   121A      1.849825   122A      1.852729
     123A      1.876680   124A      1.882177   125A      1.906790
     126A      1.988554   127A      2.000053   128A      2.013059
     129A      2.041503   130A      2.054008   131A      2.110310
     132A      2.153172   133A      2.161280   134A      2.184056
     135A      2.200374   136A      2.229471   137A      2.246551
     138A      2.255430   139A      2.320325   140A      2.322720
     141A      2.348195   142A      2.366138   143A      2.381039
     144A      2.436772   145A      2.460104   146A      2.475791
     147A      2.499348   148A      2.541245   149A      2.578705
     150A      2.615379   151A      2.623477   152A      2.659697
     153A      2.687842   154A      2.716740   155A      2.727547
     156A      2.745804   157A      2.751764   158A      2.787404
     159A      2.808534   160A      2.838137   161A      2.847800
     162A      2.885037   163A      2.897768   164A      3.059749
     165A      3.091054   166A      3.103897   167A      3.550529
     168A      3.628329

    Final Occupation by Irrep:
              A
    DOCC [    29 ]

  @RHF Final Energy:  -322.81425031818605

   => Energetics <=

    Nuclear Repulsion Energy =            328.6304502490955883
    One-Electron Energy =               -1077.2548907916464032
    Two-Electron Energy =                 425.8101902243647601
    Total Energy =                       -322.8142503181860548

Computation Completed

Properties will be evaluated at   0.000000,   0.000000,   0.000000 [a0]

Properties computed using the SCF density matrix

  Nuclear Dipole Moment: [e a0]
     X:     5.7807      Y:     3.4642      Z:     0.5484

  Electronic Dipole Moment: [e a0]
     X:    -7.4158      Y:    -4.6003      Z:    -0.5484

  Dipole Moment: [e a0]
     X:    -1.6351      Y:    -1.1361      Z:    -0.0001     Total:     1.9911

  Dipole Moment: [D]
     X:    -4.1560      Y:    -2.8878      Z:    -0.0002     Total:     5.0608

*** tstop() called on ds3 at Tue Apr 28 00:50:29 2020
Module time:
	user time   =      36.99 seconds =       0.62 minutes
	system time =      14.52 seconds =       0.24 minutes
	total time  =         51 seconds =       0.85 minutes
Total time:
	user time   =      36.99 seconds =       0.62 minutes
	system time =      14.52 seconds =       0.24 minutes
	total time  =         51 seconds =       0.85 minutes
                                     G D M A

                                 by Anthony Stone

                           version 2.2.06, 22 June 2011

               Distributed Multipoles from Gaussian wavefunctions

Starting at 0:50:29 on 28 Apr 2020

Using SCF density matrix from file ./SSI/SSI-136ARG-142ALA-1-dimer.test.401.fchk

                         Distributed Multipole Analysis

Standard DMA

Positions and radii in angstrom
Multipole moments in atomic units, ea_0^k for rank k

C          x =  0.387559  y = -2.495484  z =  0.173454 angstrom
           Maximum rank =  0   Radius =  0.650 angstrom
                   Q00  =  -0.126406

C          x = -1.012441  y = -0.469484  z = -0.019546 angstrom
           Maximum rank =  0   Radius =  0.650 angstrom
                   Q00  =   1.076176

N          x = -0.215441  y = -1.378484  z = -0.564546 angstrom
           Maximum rank =  0   Radius =  0.650 angstrom
                   Q00  =  -0.489161

N          x = -1.314441  y = -0.515484  z =  1.265454 angstrom
           Maximum rank =  0   Radius =  0.650 angstrom
                   Q00  =  -0.587884

N          x = -1.507441  y =  0.500516  z = -0.762546 angstrom
           Maximum rank =  0   Radius =  0.650 angstrom
                   Q00  =  -0.583191

H          x =  0.009559  y = -1.285484  z = -1.546546 angstrom
           Maximum rank =  0   Radius =  0.325 angstrom
                   Q00  =   0.237667

H          x = -0.871441  y = -1.187484  z =  1.895454 angstrom
           Maximum rank =  0   Radius =  0.325 angstrom
                   Q00  =   0.281937

H          x = -1.894441  y =  0.210516  z =  1.664454 angstrom
           Maximum rank =  0   Radius =  0.325 angstrom
                   Q00  =   0.265715

H          x = -1.356441  y =  0.490516  z = -1.763546 angstrom
           Maximum rank =  0   Radius =  0.325 angstrom
                   Q00  =   0.266201

H          x = -2.284441  y =  1.029516  z = -0.395546 angstrom
           Maximum rank =  0   Radius =  0.325 angstrom
                   Q00  =   0.260298

H          x = -0.340441  y = -2.886484  z =  0.887454 angstrom
           Maximum rank =  0   Radius =  0.325 angstrom
                   Q00  =   0.110035

H          x =  1.261559  y = -2.141484  z =  0.723454 angstrom
           Maximum rank =  0   Radius =  0.325 angstrom
                   Q00  =   0.124761

H          x =  0.690759  y = -3.322984  z = -0.484806 angstrom
           Maximum rank =  0   Radius =  0.325 angstrom
                   Q00  =   0.166302

C          x =  2.008559  y =  1.475516  z =  0.256454 angstrom
           Maximum rank =  0   Radius =  0.650 angstrom
                   Q00  =  -0.239777

C          x =  1.643559  y =  2.805516  z = -0.387546 angstrom
           Maximum rank =  0   Radius =  0.650 angstrom
                   Q00  =  -0.219306

H          x =  2.758559  y =  1.640516  z =  1.031454 angstrom
           Maximum rank =  0   Radius =  0.325 angstrom
                   Q00  =   0.104947

H          x =  1.136559  y =  1.015516  z =  0.714454 angstrom
           Maximum rank =  0   Radius =  0.325 angstrom
                   Q00  =   0.031104

H          x =  2.422559  y =  0.800516  z = -0.494546 angstrom
           Maximum rank =  0   Radius =  0.325 angstrom
                   Q00  =   0.073310

H          x =  1.005559  y =  2.583516  z = -1.244546 angstrom
           Maximum rank =  0   Radius =  0.325 angstrom
                   Q00  =   0.054505

H          x =  2.558859  y =  3.321176  z = -0.713626 angstrom
           Maximum rank =  0   Radius =  0.325 angstrom
                   Q00  =   0.108092

H          x =  1.060089  y =  3.423056  z =  0.311174 angstrom
           Maximum rank =  0   Radius =  0.325 angstrom
                   Q00  =   0.084676

Total multipoles referred to origin at
           x =   0.000000,  y =    0.000000,  z =    0.000000 angstrom
                   Q00  =   1.000000

Finished at 0:50:29 on 28 Apr 2020

  DMA results are available in the Python driver through the
	  variable('DMA DISTRIBUTED MULTIPOLES')
  and
	  variable('DMA TOTAL MULTIPOLES')
  commands.

    Psi4 stopped on: Tuesday, 28 April 2020 12:50AM
    Psi4 wall time for execution: 0:00:50.39

*** Psi4 exiting successfully. Buy a developer a beer!
