                               Psi4 1.3.2 release

  ==> Input File <==

--------------------------------------------------------------------------
import numpy as np
set {scf_type pk
basis cc-pvdz
d_convergence 10
gdma_switch   0
gdma_limit    0
gdma_origin   [ 0.0,  0.0,  0.0 ]
}
molecule test {
    units Angstrom
    0 1
    --
    0 1
    C               -3.033055657962338    -2.006121100410801     0.808354308076819
    C               -0.871055657962338    -2.200121100410800    -0.520645691923181
    C               -1.517055657962338    -2.104121100410800     0.726354308076819
    C                0.516944342037662    -2.235121100410800    -0.610645691923181
    C                1.279944342037662    -2.191121100410800     0.556354308076819
    C               -0.743055657962338    -2.010121100410800     1.890354308076819
    C                0.653944342037662    -2.090121100410800     1.806354308076819
    O                2.645944342037662    -2.219121100410800     0.438354308076819
    H               -1.465055657962338    -2.241121100410800    -1.425645691923180
    H                0.998944342037662    -2.314121100410800    -1.575645691923180
    H               -3.379055657962338    -2.544121100410801     1.692354308076820
    H               -3.455055657962338    -2.505121100410800    -0.064645691923181
    H               -1.221055657962338    -1.909121100410801     2.855354308076819
    H                2.928944342037662    -2.299121100410801    -0.479645691923181
    H                1.256944342037662    -2.039121100410800     2.702354308076819
    H               -3.402275657962338    -0.970601100410800     0.845494308076819
    C                0.921944342037662     1.120878899589199    -0.162645691923181
    C                1.498944342037662     1.360878899589199     1.176354308076820
    C                0.561944342037662     3.442878899589200     0.425354308076819
    C               -0.908055657962338     1.373878899589199    -2.414645691923180
    C               -0.588055657962338     2.570878899589200    -1.532645691923181
    O               -1.146055657962338     3.658878899589200    -1.693645691923181
    N                0.342944342037662     2.405878899589200    -0.577645691923181
    H                1.712944342037662     0.813878899589199    -0.846645691923181
    H                0.152944342037662     0.354878899589199    -0.084645691923181
    H                2.511944342037662     0.959878899589199     1.234354308076819
    H                0.877944342037662     0.850878899589199     1.914354308076819
    H               -0.386055657962338     3.709878899589199     0.889354308076819
    H               -1.072055657962338     0.507878899589199    -1.775645691923181
    H                1.491434342037662     2.438468899589199     1.397124308076819
    H                1.224314342037662     2.980578899589200     1.172044308076820
    H                1.061634342037662     4.340588899589199     0.032384308076819
    H               -1.813045657962338     1.576578899589199    -3.006165691923181
    H               -0.081095657962338     1.157448899589199    -3.106955691923181

}
e, wfn = energy('scf', return_wfn=True)
gdma(wfn)
dmavals = variable('DMA DISTRIBUTED MULTIPOLES')
charges = np.array(dmavals)
print(charges)
np.save('SSI-012TYR-087PRO-1-dimer.npy', np.array(charges))--------------------------------------------------------------------------

*** tstart() called on ds3
*** at Tue Apr 28 05:40:56 2020

   => Loading Basis Set <=

    Name: CC-PVDZ
    Role: ORBITAL
    Keyword: BASIS
    atoms 1-7, 17-21  entry C          line   138 file /theoryfs2/ds/metcalf/miniconda2/envs/tf2gpu/share/psi4/basis/cc-pvdz.gbs
    atoms 8, 22       entry O          line   198 file /theoryfs2/ds/metcalf/miniconda2/envs/tf2gpu/share/psi4/basis/cc-pvdz.gbs
    atoms 9-16, 24-34 entry H          line    22 file /theoryfs2/ds/metcalf/miniconda2/envs/tf2gpu/share/psi4/basis/cc-pvdz.gbs
    atoms 23          entry N          line   168 file /theoryfs2/ds/metcalf/miniconda2/envs/tf2gpu/share/psi4/basis/cc-pvdz.gbs

         ---------------------------------------------------------
                                   SCF
               by Justin Turney, Rob Parrish, Andy Simmonett
                          and Daniel G. A. Smith
                              RHF Reference
                        1 Threads,    500 MiB Core
         ---------------------------------------------------------

  ==> Geometry <==

    Molecular point group: c1
    Full point group: C1

    Geometry (in Angstrom), charge = 0, multiplicity = 1:

       Center              X                  Y                   Z               Mass
    ------------   -----------------  -----------------  -----------------  -----------------
         C           -3.033055657962    -2.006121100411     0.808354308077    12.000000000000
         C           -0.871055657962    -2.200121100411    -0.520645691923    12.000000000000
         C           -1.517055657962    -2.104121100411     0.726354308077    12.000000000000
         C            0.516944342038    -2.235121100411    -0.610645691923    12.000000000000
         C            1.279944342038    -2.191121100411     0.556354308077    12.000000000000
         C           -0.743055657962    -2.010121100411     1.890354308077    12.000000000000
         C            0.653944342038    -2.090121100411     1.806354308077    12.000000000000
         O            2.645944342038    -2.219121100411     0.438354308077    15.994914619570
         H           -1.465055657962    -2.241121100411    -1.425645691923     1.007825032230
         H            0.998944342038    -2.314121100411    -1.575645691923     1.007825032230
         H           -3.379055657962    -2.544121100411     1.692354308077     1.007825032230
         H           -3.455055657962    -2.505121100411    -0.064645691923     1.007825032230
         H           -1.221055657962    -1.909121100411     2.855354308077     1.007825032230
         H            2.928944342038    -2.299121100411    -0.479645691923     1.007825032230
         H            1.256944342038    -2.039121100411     2.702354308077     1.007825032230
         H           -3.402275657962    -0.970601100411     0.845494308077     1.007825032230
         C            0.921944342038     1.120878899589    -0.162645691923    12.000000000000
         C            1.498944342038     1.360878899589     1.176354308077    12.000000000000
         C            0.561944342038     3.442878899589     0.425354308077    12.000000000000
         C           -0.908055657962     1.373878899589    -2.414645691923    12.000000000000
         C           -0.588055657962     2.570878899589    -1.532645691923    12.000000000000
         O           -1.146055657962     3.658878899589    -1.693645691923    15.994914619570
         N            0.342944342038     2.405878899589    -0.577645691923    14.003074004430
         H            1.712944342038     0.813878899589    -0.846645691923     1.007825032230
         H            0.152944342038     0.354878899589    -0.084645691923     1.007825032230
         H            2.511944342038     0.959878899589     1.234354308077     1.007825032230
         H            0.877944342038     0.850878899589     1.914354308077     1.007825032230
         H           -0.386055657962     3.709878899589     0.889354308077     1.007825032230
         H           -1.072055657962     0.507878899589    -1.775645691923     1.007825032230
         H            1.491434342038     2.438468899589     1.397124308077     1.007825032230
         H            1.224314342038     2.980578899589     1.172044308077     1.007825032230
         H            1.061634342038     4.340588899589     0.032384308077     1.007825032230
         H           -1.813045657962     1.576578899589    -3.006165691923     1.007825032230
         H           -0.081095657962     1.157448899589    -3.106955691923     1.007825032230

  Running in c1 symmetry.

  Rotational constants: A =      0.02514  B =      0.01170  C =      0.00997 [cm^-1]
  Rotational constants: A =    753.54887  B =    350.88562  C =    298.86010 [MHz]
  Nuclear repulsion = 1011.629670400237160

  Charge       = 0
  Multiplicity = 1
  Electrons    = 114
  Nalpha       = 57
  Nbeta        = 57

  ==> Algorithm <==

  SCF Algorithm Type is PK.
  DIIS enabled.
  MOM disabled.
  Fractional occupation disabled.
  Guess Type is SAD.
  Energy threshold   = 1.00e-06
  Density threshold  = 1.00e-10
  Integral threshold = 0.00e+00

  ==> Primary Basis <==

  Basis Set: CC-PVDZ
    Blend: CC-PVDZ
    Number of shells: 147
    Number of basis function: 305
    Number of Cartesian functions: 320
    Spherical Harmonics?: true
    Max angular momentum: 2

  ==> Pre-Iterations <==

   -------------------------------------------------------
    Irrep   Nso     Nmo     Nalpha   Nbeta   Ndocc  Nsocc
   -------------------------------------------------------
     A        305     305       0       0       0       0
   -------------------------------------------------------
    Total     305     305      57      57      57       0
   -------------------------------------------------------

  ==> Integral Setup <==

  Using integral reordering PK algorithm.
  Sizing the integral batches needed.
  Building batch lookup table.
   Calculation information:
      Number of atoms:                  34
      Number of AO shells:             147
      Number of primitives:            425
      Number of atomic orbitals:       320
      Number of basis functions:       305

      Integral cutoff                 1.00e-12
      Number of threads:                 1

	Batch   1 pq = [       0,    9405] index = [             0,44231715] size =     44231715
	Batch   2 pq = [    9405,   13301] index = [      44231715,88464951] size =     44233236
	Batch   3 pq = [   13301,   16290] index = [      88464951,132690195] size =     44225244
	Batch   4 pq = [   16290,   18810] index = [     132690195,176917455] size =     44227260
	Batch   5 pq = [   18810,   21030] index = [     176917455,221140965] size =     44223510
	Batch   6 pq = [   21030,   23037] index = [     221140965,265363203] size =     44222238
	Batch   7 pq = [   23037,   24883] index = [     265363203,309594286] size =     44231083
	Batch   8 pq = [   24883,   26601] index = [     309594286,353819901] size =     44225615
	Batch   9 pq = [   26601,   28214] index = [     353819901,398029005] size =     44209104
	Batch  10 pq = [   28214,   29740] index = [     398029005,442248670] size =     44219665
	Batch  11 pq = [   29740,   31191] index = [     442248670,486454836] size =     44206166
	Batch  12 pq = [   31191,   32578] index = [     486454836,530679331] size =     44224495
	Batch  13 pq = [   32578,   33908] index = [     530679331,574893186] size =     44213855
	Batch  14 pq = [   33908,   35188] index = [     574893186,619115266] size =     44222080
	Batch  15 pq = [   35188,   36423] index = [     619115266,663335676] size =     44220410
	Batch  16 pq = [   36423,   37617] index = [     663335676,707538153] size =     44202477
	Batch  17 pq = [   37617,   38775] index = [     707538153,751769700] size =     44231547
	Batch  18 pq = [   38775,   39899] index = [     751769700,795985050] size =     44215350
	Batch  19 pq = [   39899,   40992] index = [     795985050,840192528] size =     44207478
	Batch  20 pq = [   40992,   42057] index = [     840192528,884416653] size =     44224125
	Batch  21 pq = [   42057,   43095] index = [     884416653,928611060] size =     44194407
	Batch  22 pq = [   43095,   44109] index = [     928611060,972823995] size =     44212935
	Batch  23 pq = [   44109,   45100] index = [     972823995,1017027550] size =     44203555
	Batch  24 pq = [   45100,   46070] index = [    1017027550,1061245485] size =     44217935
	Batch  25 pq = [   46070,   46665] index = [    1061245485,1088834445] size =     27588960
  Task number: 99
  Buffer size: 11059200
  Buffer per thread: 2
  We computed 68535597 shell quartets total.
  Whereas there are 59170881 unique shell quartets.
    15.83 percent of shell quartets recomputed by reordering.

  ==> DiskJK: Disk-Based J/K Matrices <==

    J tasked:                  Yes
    K tasked:                  Yes
    wK tasked:                  No
    Memory [MiB]:              375
    Schwarz Cutoff:          1E-12

    OpenMP threads:              1

  Minimum eigenvalue in the overlap matrix is 3.4056445946E-04.
  Using Symmetric Orthogonalization.

  SCF Guess: Superposition of Atomic Densities via on-the-fly atomic UHF.

  ==> Iterations <==

                        Total Energy        Delta E     RMS |[F,P]|

   @RHF iter SAD:  -668.71309528867539   -6.68713e+02   0.00000e+00
   @RHF iter   1:  -669.10537418982653   -3.92279e-01   2.62440e-03 DIIS
   @RHF iter   2:  -669.41332512225210   -3.07951e-01   1.37109e-03 DIIS
   @RHF iter   3:  -669.48282777598888   -6.95027e-02   3.49316e-04 DIIS
   @RHF iter   4:  -669.48948374446286   -6.65597e-03   1.36990e-04 DIIS
   @RHF iter   5:  -669.49052604091617   -1.04230e-03   2.37875e-05 DIIS
   @RHF iter   6:  -669.49058963510811   -6.35942e-05   1.21978e-05 DIIS
   @RHF iter   7:  -669.49060301076042   -1.33757e-05   4.27366e-06 DIIS
   @RHF iter   8:  -669.49060560604369   -2.59528e-06   1.80217e-06 DIIS
   @RHF iter   9:  -669.49060598406493   -3.78021e-07   6.49010e-07 DIIS
   @RHF iter  10:  -669.49060603068563   -4.66207e-08   2.16041e-07 DIIS
   @RHF iter  11:  -669.49060603528596   -4.60034e-09   6.96091e-08 DIIS
   @RHF iter  12:  -669.49060603581847   -5.32509e-10   2.63607e-08 DIIS
   @RHF iter  13:  -669.49060603588555   -6.70752e-11   7.70176e-09 DIIS
   @RHF iter  14:  -669.49060603590465   -1.90994e-11   3.09160e-09 DIIS
   @RHF iter  15:  -669.49060603590408    5.68434e-13   1.66119e-09 DIIS
   @RHF iter  16:  -669.49060603589953    4.54747e-12   7.96942e-10 DIIS
   @RHF iter  17:  -669.49060603589805    1.47793e-12   3.07477e-10 DIIS
   @RHF iter  18:  -669.49060603590499   -6.93490e-12   1.00124e-10 DIIS
   @RHF iter  19:  -669.49060603589771    7.27596e-12   3.60304e-11 DIIS
  Energy and wave function converged.

  ==> Post-Iterations <==

    Orbital Energies [Eh]
    ---------------------

    Doubly Occupied:

       1A    -20.594700     2A    -20.492899     3A    -15.572314
       4A    -11.334026     5A    -11.314139     6A    -11.261385
       7A    -11.254060     8A    -11.253326     9A    -11.250224
      10A    -11.247317    11A    -11.247215    12A    -11.238499
      13A    -11.233829    14A    -11.233047    15A    -11.206382
      16A     -1.407679    17A     -1.355234    18A     -1.244695
      19A     -1.160251    20A     -1.064945    21A     -1.045527
      22A     -1.030311    23A     -1.002519    24A     -0.966766
      25A     -0.935420    26A     -0.854754    27A     -0.844001
      28A     -0.813733    29A     -0.749615    30A     -0.742330
      31A     -0.719303    32A     -0.678706    33A     -0.668660
      34A     -0.653207    35A     -0.647938    36A     -0.618017
      37A     -0.606470    38A     -0.600550    39A     -0.597014
      40A     -0.593247    41A     -0.580373    42A     -0.576336
      43A     -0.571007    44A     -0.545952    45A     -0.535777
      46A     -0.529200    47A     -0.520999    48A     -0.508330
      49A     -0.507720    50A     -0.495788    51A     -0.479979
      52A     -0.474012    53A     -0.397456    54A     -0.380421
      55A     -0.355730    56A     -0.349391    57A     -0.313644

    Virtual:

      58A      0.113104    59A      0.134869    60A      0.154851
      61A      0.169470    62A      0.190766    63A      0.196070
      64A      0.202589    65A      0.207707    66A      0.218658
      67A      0.236174    68A      0.243237    69A      0.250598
      70A      0.251739    71A      0.264282    72A      0.269261
      73A      0.275183    74A      0.278547    75A      0.289489
      76A      0.301658    77A      0.313906    78A      0.341526
      79A      0.353610    80A      0.356703    81A      0.360670
      82A      0.376337    83A      0.391291    84A      0.419322
      85A      0.424798    86A      0.440281    87A      0.452595
      88A      0.464451    89A      0.482968    90A      0.497334
      91A      0.516220    92A      0.525366    93A      0.554892
      94A      0.567669    95A      0.595667    96A      0.603296
      97A      0.627898    98A      0.628186    99A      0.640670
     100A      0.647881   101A      0.661418   102A      0.666731
     103A      0.680034   104A      0.683194   105A      0.704530
     106A      0.718999   107A      0.720667   108A      0.724197
     109A      0.744615   110A      0.747320   111A      0.750408
     112A      0.753777   113A      0.770480   114A      0.777270
     115A      0.799860   116A      0.827042   117A      0.831300
     118A      0.837887   119A      0.845756   120A      0.853657
     121A      0.862856   122A      0.865227   123A      0.869105
     124A      0.873627   125A      0.877240   126A      0.885017
     127A      0.900111   128A      0.906493   129A      0.910377
     130A      0.910974   131A      0.920493   132A      0.925108
     133A      0.931500   134A      0.932132   135A      0.939796
     136A      0.944012   137A      0.951801   138A      0.970586
     139A      0.977629   140A      0.993537   141A      0.994874
     142A      1.004234   143A      1.024045   144A      1.034411
     145A      1.077147   146A      1.089197   147A      1.094516
     148A      1.112891   149A      1.120229   150A      1.129626
     151A      1.135547   152A      1.158658   153A      1.173046
     154A      1.180864   155A      1.201604   156A      1.222670
     157A      1.235513   158A      1.241126   159A      1.250337
     160A      1.271121   161A      1.277732   162A      1.296836
     163A      1.299551   164A      1.311333   165A      1.316960
     166A      1.332293   167A      1.344929   168A      1.349537
     169A      1.390258   170A      1.394681   171A      1.408312
     172A      1.441837   173A      1.454487   174A      1.482298
     175A      1.498315   176A      1.501865   177A      1.521097
     178A      1.528235   179A      1.547664   180A      1.551747
     181A      1.563412   182A      1.597596   183A      1.600315
     184A      1.618145   185A      1.641414   186A      1.652603
     187A      1.656183   188A      1.683517   189A      1.694102
     190A      1.697280   191A      1.708900   192A      1.727667
     193A      1.735200   194A      1.751711   195A      1.777227
     196A      1.783721   197A      1.790469   198A      1.825834
     199A      1.829624   200A      1.841215   201A      1.858731
     202A      1.862737   203A      1.877022   204A      1.887492
     205A      1.897046   206A      1.900480   207A      1.906465
     208A      1.911115   209A      1.921676   210A      1.923175
     211A      1.932668   212A      1.933171   213A      1.940573
     214A      1.948162   215A      1.961907   216A      1.969461
     217A      1.977179   218A      1.995214   219A      2.010074
     220A      2.020786   221A      2.030598   222A      2.039068
     223A      2.046969   224A      2.053295   225A      2.053713
     226A      2.063847   227A      2.077640   228A      2.103427
     229A      2.128094   230A      2.133448   231A      2.134300
     232A      2.146218   233A      2.151577   234A      2.153600
     235A      2.168366   236A      2.177589   237A      2.189600
     238A      2.220366   239A      2.241057   240A      2.251509
     241A      2.259516   242A      2.269177   243A      2.276352
     244A      2.285873   245A      2.294886   246A      2.321446
     247A      2.336503   248A      2.356034   249A      2.398415
     250A      2.408298   251A      2.419312   252A      2.422239
     253A      2.453187   254A      2.458738   255A      2.461858
     256A      2.478722   257A      2.492910   258A      2.511449
     259A      2.523138   260A      2.553073   261A      2.566203
     262A      2.580325   263A      2.597315   264A      2.613491
     265A      2.641396   266A      2.655242   267A      2.703070
     268A      2.738481   269A      2.747003   270A      2.759408
     271A      2.767916   272A      2.779206   273A      2.790360
     274A      2.804115   275A      2.817853   276A      2.824416
     277A      2.830739   278A      2.838262   279A      2.856136
     280A      2.892874   281A      2.905791   282A      2.958830
     283A      2.960759   284A      2.989291   285A      3.008190
     286A      3.048424   287A      3.057339   288A      3.082398
     289A      3.109025   290A      3.112127   291A      3.184790
     292A      3.236951   293A      3.250388   294A      3.258431
     295A      3.330917   296A      3.351151   297A      3.406867
     298A      3.521555   299A      3.568553   300A      3.636705
     301A      3.834696   302A      3.907910   303A      3.961183
     304A      4.167676   305A      5.257900

    Final Occupation by Irrep:
              A
    DOCC [    57 ]

  @RHF Final Energy:  -669.49060603589771

   => Energetics <=

    Nuclear Repulsion Energy =           1011.6296704002371598
    One-Electron Energy =               -2919.3278177039865113
    Two-Electron Energy =                1238.2075412678516386
    Total Energy =                       -669.4906060358978266

Computation Completed

Properties will be evaluated at   0.000000,   0.000000,   0.000000 [a0]

Properties computed using the SCF density matrix

  Nuclear Dipole Moment: [e a0]
     X:    -1.9219      Y:     2.6891      Z:     2.2170

  Electronic Dipole Moment: [e a0]
     X:     2.5332      Y:    -4.2650      Z:    -1.8903

  Dipole Moment: [e a0]
     X:     0.6113      Y:    -1.5760      Z:     0.3267     Total:     1.7216

  Dipole Moment: [D]
     X:     1.5537      Y:    -4.0057      Z:     0.8305     Total:     4.3760

*** tstop() called on ds3 at Tue Apr 28 07:29:46 2020
Module time:
	user time   =     527.10 seconds =       8.79 minutes
	system time =     224.06 seconds =       3.73 minutes
	total time  =       6530 seconds =     108.83 minutes
Total time:
	user time   =     527.10 seconds =       8.79 minutes
	system time =     224.06 seconds =       3.73 minutes
	total time  =       6530 seconds =     108.83 minutes
                                     G D M A

                                 by Anthony Stone

                           version 2.2.06, 22 June 2011

               Distributed Multipoles from Gaussian wavefunctions

Starting at 7:29:46 on 28 Apr 2020

Using SCF density matrix from file ./SSI/SSI-012TYR-087PRO-1-dimer.test.31854.fchk

                         Distributed Multipole Analysis

Standard DMA

Positions and radii in angstrom
Multipole moments in atomic units, ea_0^k for rank k

C          x = -3.033056  y = -2.006121  z =  0.808354 angstrom
           Maximum rank =  0   Radius =  0.650 angstrom
                   Q00  =  -0.193417

C          x = -0.871056  y = -2.200121  z = -0.520646 angstrom
           Maximum rank =  0   Radius =  0.650 angstrom
                   Q00  =   0.010424

C          x = -1.517056  y = -2.104121  z =  0.726354 angstrom
           Maximum rank =  0   Radius =  0.650 angstrom
                   Q00  =  -0.141108

C          x =  0.516944  y = -2.235121  z = -0.610646 angstrom
           Maximum rank =  0   Radius =  0.650 angstrom
                   Q00  =  -0.168973

C          x =  1.279944  y = -2.191121  z =  0.556354 angstrom
           Maximum rank =  0   Radius =  0.650 angstrom
                   Q00  =   0.313764

C          x = -0.743056  y = -2.010121  z =  1.890354 angstrom
           Maximum rank =  0   Radius =  0.650 angstrom
                   Q00  =  -0.063079

C          x =  0.653944  y = -2.090121  z =  1.806354 angstrom
           Maximum rank =  0   Radius =  0.650 angstrom
                   Q00  =  -0.116642

O          x =  2.645944  y = -2.219121  z =  0.438354 angstrom
           Maximum rank =  0   Radius =  0.650 angstrom
                   Q00  =  -0.647423

H          x = -1.465056  y = -2.241121  z = -1.425646 angstrom
           Maximum rank =  0   Radius =  0.325 angstrom
                   Q00  =   0.073947

H          x =  0.998944  y = -2.314121  z = -1.575646 angstrom
           Maximum rank =  0   Radius =  0.325 angstrom
                   Q00  =   0.074149

H          x = -3.379056  y = -2.544121  z =  1.692354 angstrom
           Maximum rank =  0   Radius =  0.325 angstrom
                   Q00  =   0.099916

H          x = -3.455056  y = -2.505121  z = -0.064646 angstrom
           Maximum rank =  0   Radius =  0.325 angstrom
                   Q00  =   0.098628

H          x = -1.221056  y = -1.909121  z =  2.855354 angstrom
           Maximum rank =  0   Radius =  0.325 angstrom
                   Q00  =   0.071493

H          x =  2.928944  y = -2.299121  z = -0.479646 angstrom
           Maximum rank =  0   Radius =  0.325 angstrom
                   Q00  =   0.410758

H          x =  1.256944  y = -2.039121  z =  2.702354 angstrom
           Maximum rank =  0   Radius =  0.325 angstrom
                   Q00  =   0.085731

H          x = -3.402276  y = -0.970601  z =  0.845494 angstrom
           Maximum rank =  0   Radius =  0.325 angstrom
                   Q00  =   0.104100

C          x =  0.921944  y =  1.120879  z = -0.162646 angstrom
           Maximum rank =  0   Radius =  0.650 angstrom
                   Q00  =   0.032648

C          x =  1.498944  y =  1.360879  z =  1.176354 angstrom
           Maximum rank =  0   Radius =  0.650 angstrom
                   Q00  =  -0.276521

C          x =  0.561944  y =  3.442879  z =  0.425354 angstrom
           Maximum rank =  0   Radius =  0.650 angstrom
                   Q00  =  -0.099759

C          x = -0.908056  y =  1.373879  z = -2.414646 angstrom
           Maximum rank =  0   Radius =  0.650 angstrom
                   Q00  =  -0.274833

C          x = -0.588056  y =  2.570879  z = -1.532646 angstrom
           Maximum rank =  0   Radius =  0.650 angstrom
                   Q00  =   0.769663

O          x = -1.146056  y =  3.658879  z = -1.693646 angstrom
           Maximum rank =  0   Radius =  0.650 angstrom
                   Q00  =  -0.789930

N          x =  0.342944  y =  2.405879  z = -0.577646 angstrom
           Maximum rank =  0   Radius =  0.650 angstrom
                   Q00  =  -0.470308

H          x =  1.712944  y =  0.813879  z = -0.846646 angstrom
           Maximum rank =  0   Radius =  0.325 angstrom
                   Q00  =   0.056197

H          x =  0.152944  y =  0.354879  z = -0.084646 angstrom
           Maximum rank =  0   Radius =  0.325 angstrom
                   Q00  =   0.085058

H          x =  2.511944  y =  0.959879  z =  1.234354 angstrom
           Maximum rank =  0   Radius =  0.325 angstrom
                   Q00  =   0.094537

H          x =  0.877944  y =  0.850879  z =  1.914354 angstrom
           Maximum rank =  0   Radius =  0.325 angstrom
                   Q00  =   0.101857

H          x = -0.386056  y =  3.709879  z =  0.889354 angstrom
           Maximum rank =  0   Radius =  0.325 angstrom
                   Q00  =   0.094832

H          x = -1.072056  y =  0.507879  z = -1.775646 angstrom
           Maximum rank =  0   Radius =  0.325 angstrom
                   Q00  =   0.105974

H          x =  1.491434  y =  2.438469  z =  1.397124 angstrom
           Maximum rank =  0   Radius =  0.325 angstrom
                   Q00  =   0.119069

H          x =  1.224314  y =  2.980579  z =  1.172044 angstrom
           Maximum rank =  0   Radius =  0.325 angstrom
                   Q00  =   0.098259

H          x =  1.061634  y =  4.340589  z =  0.032384 angstrom
           Maximum rank =  0   Radius =  0.325 angstrom
                   Q00  =   0.098422

H          x = -1.813046  y =  1.576579  z = -3.006166 angstrom
           Maximum rank =  0   Radius =  0.325 angstrom
                   Q00  =   0.126215

H          x = -0.081096  y =  1.157449  z = -3.106956 angstrom
           Maximum rank =  0   Radius =  0.325 angstrom
                   Q00  =   0.116354

Total multipoles referred to origin at
           x =   0.000000,  y =    0.000000,  z =    0.000000 angstrom
                   Q00  =  -0.000000

Finished at 7:29:46 on 28 Apr 2020

  DMA results are available in the Python driver through the
	  variable('DMA DISTRIBUTED MULTIPOLES')
  and
	  variable('DMA TOTAL MULTIPOLES')
  commands.

    Psi4 stopped on: Tuesday, 28 April 2020 07:29AM
    Psi4 wall time for execution: 1:48:50.03

*** Psi4 exiting successfully. Buy a developer a beer!
