                               Psi4 1.3.2 release

  ==> Input File <==

--------------------------------------------------------------------------
import numpy as np
set {scf_type pk
basis cc-pvdz
d_convergence 10
gdma_switch   0
gdma_limit    0
gdma_origin   [ 0.0,  0.0,  0.0 ]
}
molecule test {
    units Angstrom
    0 1
    --
    0 1
    C                1.000878316116555    -1.424728511193072    -0.132699693234341
    C                1.639878316116555    -0.261728511193072     0.610300306765659
    C                1.813878316116555    -1.522728511193072    -1.417699693234341
    H               -0.059121683883445    -1.258728511193072    -0.324699693234341
    H                1.134878316116555    -2.336728511193072     0.450300306765659
    H                1.266878316116555     0.679271488806928     0.208300306765659
    H                1.453878316116555    -0.312728511193072     1.683300306765659
    H                1.807878316116555    -2.543728511193072    -1.800699693234341
    H                2.710348316116555    -0.358118511193072     0.376203306765659
    H                2.818808316116555    -1.207168511193072    -1.100629693234341
    H                1.434528316116555    -0.818528511193072    -2.172809693234341
    C               -1.519121683883445     1.293271488806928     0.245300306765659
    C               -2.883121683883445     1.816271488806928     0.689300306765659
    H               -1.591121683883445     0.864271488806928    -0.755699693234341
    H               -0.793121683883445     2.104271488806928     0.224300306765659
    H               -1.181121683883445     0.528271488806928     0.945300306765659
    H               -3.181121683883445     2.587271488806928    -0.011699693234341
    H               -3.607801683883445     0.989503488806928     0.653354306765659
    H               -2.837605683883445     2.269295488806928     1.690648306765659

}
e, wfn = energy('scf', return_wfn=True)
gdma(wfn)
dmavals = variable('DMA DISTRIBUTED MULTIPOLES')
charges = np.array(dmavals)
print(charges)
np.save('SSI-028PRO-058LEU-1-dimer.npy', np.array(charges))--------------------------------------------------------------------------

*** tstart() called on ds3
*** at Mon Apr 27 16:19:37 2020

   => Loading Basis Set <=

    Name: CC-PVDZ
    Role: ORBITAL
    Keyword: BASIS
    atoms 1-3, 12-13  entry C          line   138 file /theoryfs2/ds/metcalf/miniconda2/envs/tf2gpu/share/psi4/basis/cc-pvdz.gbs
    atoms 4-11, 14-19 entry H          line    22 file /theoryfs2/ds/metcalf/miniconda2/envs/tf2gpu/share/psi4/basis/cc-pvdz.gbs

         ---------------------------------------------------------
                                   SCF
               by Justin Turney, Rob Parrish, Andy Simmonett
                          and Daniel G. A. Smith
                              RHF Reference
                        1 Threads,    500 MiB Core
         ---------------------------------------------------------

  ==> Geometry <==

    Molecular point group: c1
    Full point group: C1

    Geometry (in Angstrom), charge = 0, multiplicity = 1:

       Center              X                  Y                   Z               Mass
    ------------   -----------------  -----------------  -----------------  -----------------
         C            1.000878316117    -1.424728511193    -0.132699693234    12.000000000000
         C            1.639878316117    -0.261728511193     0.610300306766    12.000000000000
         C            1.813878316117    -1.522728511193    -1.417699693234    12.000000000000
         H           -0.059121683883    -1.258728511193    -0.324699693234     1.007825032230
         H            1.134878316117    -2.336728511193     0.450300306766     1.007825032230
         H            1.266878316117     0.679271488807     0.208300306766     1.007825032230
         H            1.453878316117    -0.312728511193     1.683300306766     1.007825032230
         H            1.807878316117    -2.543728511193    -1.800699693234     1.007825032230
         H            2.710348316117    -0.358118511193     0.376203306766     1.007825032230
         H            2.818808316117    -1.207168511193    -1.100629693234     1.007825032230
         H            1.434528316117    -0.818528511193    -2.172809693234     1.007825032230
         C           -1.519121683883     1.293271488807     0.245300306766    12.000000000000
         C           -2.883121683883     1.816271488807     0.689300306766    12.000000000000
         H           -1.591121683883     0.864271488807    -0.755699693234     1.007825032230
         H           -0.793121683883     2.104271488807     0.224300306766     1.007825032230
         H           -1.181121683883     0.528271488807     0.945300306766     1.007825032230
         H           -3.181121683883     2.587271488807    -0.011699693234     1.007825032230
         H           -3.607801683883     0.989503488807     0.653354306766     1.007825032230
         H           -2.837605683883     2.269295488807     1.690648306766     1.007825032230

  Running in c1 symmetry.

  Rotational constants: A =      0.29566  B =      0.03894  C =      0.03692 [cm^-1]
  Rotational constants: A =   8863.64640  B =   1167.37067  C =   1106.84499 [MHz]
  Nuclear repulsion =  180.783221327000973

  Charge       = 0
  Multiplicity = 1
  Electrons    = 44
  Nalpha       = 22
  Nbeta        = 22

  ==> Algorithm <==

  SCF Algorithm Type is PK.
  DIIS enabled.
  MOM disabled.
  Fractional occupation disabled.
  Guess Type is SAD.
  Energy threshold   = 1.00e-06
  Density threshold  = 1.00e-10
  Integral threshold = 0.00e+00

  ==> Primary Basis <==

  Basis Set: CC-PVDZ
    Blend: CC-PVDZ
    Number of shells: 72
    Number of basis function: 140
    Number of Cartesian functions: 145
    Spherical Harmonics?: true
    Max angular momentum: 2

  ==> Pre-Iterations <==

   -------------------------------------------------------
    Irrep   Nso     Nmo     Nalpha   Nbeta   Ndocc  Nsocc
   -------------------------------------------------------
     A        140     140       0       0       0       0
   -------------------------------------------------------
    Total     140     140      22      22      22       0
   -------------------------------------------------------

  ==> Integral Setup <==

  Using integral reordering PK algorithm.
  Sizing the integral batches needed.
  Building batch lookup table.
   Calculation information:
      Number of atoms:                  19
      Number of AO shells:              72
      Number of primitives:            180
      Number of atomic orbitals:       145
      Number of basis functions:       140

      Integral cutoff                 1.00e-12
      Number of threads:                 1

	Batch   1 pq = [       0,    9405] index = [             0,44231715] size =     44231715
	Batch   2 pq = [    9405,    9870] index = [      44231715,48713385] size =      4481670
  Task number: 5
  Buffer size: 11059200
  Buffer per thread: 2
  We computed 2877593 shell quartets total.
  Whereas there are 3454506 unique shell quartets.

  ==> DiskJK: Disk-Based J/K Matrices <==

    J tasked:                  Yes
    K tasked:                  Yes
    wK tasked:                  No
    Memory [MiB]:              375
    Schwarz Cutoff:          1E-12

    OpenMP threads:              1

  Minimum eigenvalue in the overlap matrix is 5.1112312121E-03.
  Using Symmetric Orthogonalization.

  SCF Guess: Superposition of Atomic Densities via on-the-fly atomic UHF.

  ==> Iterations <==

                        Total Energy        Delta E     RMS |[F,P]|

   @RHF iter SAD:  -196.51006841913286   -1.96510e+02   0.00000e+00
   @RHF iter   1:  -197.29215762165589   -7.82089e-01   3.84626e-03 DIIS
   @RHF iter   2:  -197.45419982346951   -1.62042e-01   1.66747e-03 DIIS
   @RHF iter   3:  -197.48345852554684   -2.92587e-02   3.29746e-04 DIIS
   @RHF iter   4:  -197.48569512229139   -2.23660e-03   5.00491e-05 DIIS
   @RHF iter   5:  -197.48573620655543   -4.10843e-05   1.56193e-05 DIIS
   @RHF iter   6:  -197.48573998323155   -3.77668e-06   2.56034e-06 DIIS
   @RHF iter   7:  -197.48574010721521   -1.23984e-07   4.80791e-07 DIIS
   @RHF iter   8:  -197.48574011194646   -4.73125e-09   1.09085e-07 DIIS
   @RHF iter   9:  -197.48574011218804   -2.41585e-10   3.45271e-08 DIIS
   @RHF iter  10:  -197.48574011221439   -2.63469e-11   7.79539e-09 DIIS
   @RHF iter  11:  -197.48574011221612   -1.73372e-12   1.50549e-09 DIIS
   @RHF iter  12:  -197.48574011221601    1.13687e-13   3.14928e-10 DIIS
   @RHF iter  13:  -197.48574011221558    4.26326e-13   6.73205e-11 DIIS
  Energy and wave function converged.

  ==> Post-Iterations <==

    Orbital Energies [Eh]
    ---------------------

    Doubly Occupied:

       1A    -11.218925     2A    -11.217170     3A    -11.214530
       4A    -11.213263     5A    -11.211046     6A     -1.063646
       7A     -1.020258     8A     -0.912237     9A     -0.837193
      10A     -0.797689    11A     -0.634721    12A     -0.610567
      13A     -0.601278    14A     -0.598705    15A     -0.541112
      16A     -0.511975    17A     -0.498847    18A     -0.490405
      19A     -0.484206    20A     -0.479233    21A     -0.467053
      22A     -0.458181

    Virtual:

      23A      0.175488    24A      0.194883    25A      0.215813
      26A      0.225918    27A      0.230212    28A      0.246636
      29A      0.263511    30A      0.270342    31A      0.277727
      32A      0.281842    33A      0.297871    34A      0.322707
      35A      0.325340    36A      0.349946    37A      0.376202
      38A      0.400987    39A      0.435667    40A      0.568588
      41A      0.573390    42A      0.598841    43A      0.603741
      44A      0.625534    45A      0.627867    46A      0.636760
      47A      0.673113    48A      0.713194    49A      0.770317
      50A      0.796412    51A      0.830364    52A      0.848116
      53A      0.863252    54A      0.867293    55A      0.889693
      56A      0.891519    57A      0.892524    58A      0.895637
      59A      0.898869    60A      0.913357    61A      0.916389
      62A      0.920922    63A      0.932284    64A      0.948078
      65A      0.959317    66A      0.970662    67A      0.980621
      68A      1.021607    69A      1.093647    70A      1.123460
      71A      1.141345    72A      1.160832    73A      1.213509
      74A      1.240475    75A      1.397404    76A      1.455976
      77A      1.470768    78A      1.479987    79A      1.502419
      80A      1.581473    81A      1.614577    82A      1.623971
      83A      1.636823    84A      1.677277    85A      1.692132
      86A      1.730504    87A      1.740918    88A      1.790080
      89A      1.844483    90A      1.865689    91A      1.883155
      92A      1.890168    93A      1.912398    94A      1.915448
      95A      1.926387    96A      1.937616    97A      1.945269
      98A      1.948034    99A      1.958962   100A      1.963586
     101A      1.975167   102A      1.983659   103A      2.008650
     104A      2.025473   105A      2.045967   106A      2.070652
     107A      2.098037   108A      2.106524   109A      2.127501
     110A      2.141952   111A      2.189506   112A      2.225167
     113A      2.291489   114A      2.304569   115A      2.347616
     116A      2.360353   117A      2.439947   118A      2.452794
     119A      2.467303   120A      2.486731   121A      2.501844
     122A      2.553082   123A      2.568249   124A      2.581654
     125A      2.637775   126A      2.693757   127A      2.757566
     128A      2.765885   129A      2.773695   130A      2.791754
     131A      2.808841   132A      2.846777   133A      2.850627
     134A      2.862828   135A      2.869891   136A      2.927124
     137A      2.946501   138A      2.957184   139A      2.971516
     140A      3.060576

    Final Occupation by Irrep:
              A
    DOCC [    22 ]

  @RHF Final Energy:  -197.48574011221558

   => Energetics <=

    Nuclear Repulsion Energy =            180.7832213270009731
    One-Electron Energy =                -622.3734385522773209
    Two-Electron Energy =                 244.1044771130607387
    Total Energy =                       -197.4857401122155807

Computation Completed

Properties will be evaluated at   0.000000,   0.000000,   0.000000 [a0]

Properties computed using the SCF density matrix

  Nuclear Dipole Moment: [e a0]
     X:    -0.5848      Y:     1.1122      Z:     0.0614

  Electronic Dipole Moment: [e a0]
     X:     0.5406      Y:    -1.1051      Z:    -0.0519

  Dipole Moment: [e a0]
     X:    -0.0442      Y:     0.0072      Z:     0.0094     Total:     0.0458

  Dipole Moment: [D]
     X:    -0.1123      Y:     0.0182      Z:     0.0240     Total:     0.1163

*** tstop() called on ds3 at Mon Apr 27 16:20:02 2020
Module time:
	user time   =      18.75 seconds =       0.31 minutes
	system time =       6.96 seconds =       0.12 minutes
	total time  =         25 seconds =       0.42 minutes
Total time:
	user time   =      18.75 seconds =       0.31 minutes
	system time =       6.96 seconds =       0.12 minutes
	total time  =         25 seconds =       0.42 minutes
                                     G D M A

                                 by Anthony Stone

                           version 2.2.06, 22 June 2011

               Distributed Multipoles from Gaussian wavefunctions

Starting at 16:20:2 on 27 Apr 2020

Using SCF density matrix from file ./SSI/SSI-028PRO-058LEU-1-dimer.test.26438.fchk

                         Distributed Multipole Analysis

Standard DMA

Positions and radii in angstrom
Multipole moments in atomic units, ea_0^k for rank k

C          x =  1.000878  y = -1.424729  z = -0.132700 angstrom
           Maximum rank =  0   Radius =  0.650 angstrom
                   Q00  =  -0.094384

C          x =  1.639878  y = -0.261729  z =  0.610300 angstrom
           Maximum rank =  0   Radius =  0.650 angstrom
                   Q00  =  -0.220737

C          x =  1.813878  y = -1.522729  z = -1.417700 angstrom
           Maximum rank =  0   Radius =  0.650 angstrom
                   Q00  =  -0.228317

H          x = -0.059122  y = -1.258729  z = -0.324700 angstrom
           Maximum rank =  0   Radius =  0.325 angstrom
                   Q00  =   0.059385

H          x =  1.134878  y = -2.336729  z =  0.450300 angstrom
           Maximum rank =  0   Radius =  0.325 angstrom
                   Q00  =   0.049039

H          x =  1.266878  y =  0.679271  z =  0.208300 angstrom
           Maximum rank =  0   Radius =  0.325 angstrom
                   Q00  =   0.081631

H          x =  1.453878  y = -0.312729  z =  1.683300 angstrom
           Maximum rank =  0   Radius =  0.325 angstrom
                   Q00  =   0.080041

H          x =  1.807878  y = -2.543729  z = -1.800700 angstrom
           Maximum rank =  0   Radius =  0.325 angstrom
                   Q00  =   0.081519

H          x =  2.710348  y = -0.358119  z =  0.376203 angstrom
           Maximum rank =  0   Radius =  0.325 angstrom
                   Q00  =   0.051979

H          x =  2.818808  y = -1.207169  z = -1.100630 angstrom
           Maximum rank =  0   Radius =  0.325 angstrom
                   Q00  =   0.060998

H          x =  1.434528  y = -0.818529  z = -2.172810 angstrom
           Maximum rank =  0   Radius =  0.325 angstrom
                   Q00  =   0.078072

C          x = -1.519122  y =  1.293271  z =  0.245300 angstrom
           Maximum rank =  0   Radius =  0.650 angstrom
                   Q00  =  -0.244674

C          x = -2.883122  y =  1.816271  z =  0.689300 angstrom
           Maximum rank =  0   Radius =  0.650 angstrom
                   Q00  =  -0.229870

H          x = -1.591122  y =  0.864271  z = -0.755700 angstrom
           Maximum rank =  0   Radius =  0.325 angstrom
                   Q00  =   0.078154

H          x = -0.793122  y =  2.104271  z =  0.224300 angstrom
           Maximum rank =  0   Radius =  0.325 angstrom
                   Q00  =   0.078676

H          x = -1.181122  y =  0.528271  z =  0.945300 angstrom
           Maximum rank =  0   Radius =  0.325 angstrom
                   Q00  =   0.080045

H          x = -3.181122  y =  2.587271  z = -0.011700 angstrom
           Maximum rank =  0   Radius =  0.325 angstrom
                   Q00  =   0.078174

H          x = -3.607802  y =  0.989503  z =  0.653354 angstrom
           Maximum rank =  0   Radius =  0.325 angstrom
                   Q00  =   0.078995

H          x = -2.837606  y =  2.269295  z =  1.690648 angstrom
           Maximum rank =  0   Radius =  0.325 angstrom
                   Q00  =   0.081274

Total multipoles referred to origin at
           x =   0.000000,  y =    0.000000,  z =    0.000000 angstrom
                   Q00  =  -0.000000

Finished at 16:20:2 on 27 Apr 2020

  DMA results are available in the Python driver through the
	  variable('DMA DISTRIBUTED MULTIPOLES')
  and
	  variable('DMA TOTAL MULTIPOLES')
  commands.

    Psi4 stopped on: Monday, 27 April 2020 04:20PM
    Psi4 wall time for execution: 0:00:25.31

*** Psi4 exiting successfully. Buy a developer a beer!
