                               Psi4 1.3.2 release

  ==> Input File <==

--------------------------------------------------------------------------
import numpy as np
set {scf_type pk
basis cc-pvdz
d_convergence 10
gdma_switch   0
gdma_limit    0
gdma_origin   [ 0.0,  0.0,  0.0 ]
}
molecule test {
    units Angstrom
    0 1
    --
    0 1
    C                0.609114833076927     1.541590223642715    -3.381948345661665
    C                0.653114833076926     0.892590223642715    -2.008948345661665
    O                0.233114833076926    -0.283409776357285    -1.901948345661665
    O                1.090114833076927     1.544590223642715    -1.034948345661665
    H               -0.441885166923074     1.644590223642715    -3.622948345661666
    H                1.079114833076926     0.877590223642715    -4.111948345661666
    H                1.109564833076927     2.520240223642715    -3.424311345661665
    C               -1.803885166923074    -2.143409776357285     1.140051654338335
    C               -0.199885166923074    -0.384409776357285     1.774051654338335
    N               -0.875885166923074    -1.044409776357285     0.846051654338335
    N               -0.339885166923074    -0.699409776357285     3.048051654338335
    N                0.619114833076926     0.589590223642715     1.436051654338335
    H               -0.661885166923073    -0.820409776357285    -0.123948345661665
    H               -2.610885166923073    -1.776409776357285     1.780051654338335
    H               -1.263885166923074    -2.931409776357285     1.671051654338335
    H               -1.005885166923074    -1.405409776357285     3.315051654338335
    H                0.203114833076926    -0.239409776357285     3.760051654338335
    H                0.740114833076926     0.831590223642715     0.449051654338335
    H                1.224114833076926     1.014590223642715     2.115051654338335
    H               -2.252675166923074    -2.579189776357285     0.235242654338335

}
e, wfn = energy('scf', return_wfn=True)
gdma(wfn)
dmavals = variable('DMA DISTRIBUTED MULTIPOLES')
charges = np.array(dmavals)
print(charges)
np.save('SSI-013GLU-069ARG-1-dimer.npy', np.array(charges))--------------------------------------------------------------------------

*** tstart() called on ds3
*** at Tue Apr 28 04:15:18 2020

   => Loading Basis Set <=

    Name: CC-PVDZ
    Role: ORBITAL
    Keyword: BASIS
    atoms 1-2, 8-9   entry C          line   138 file /theoryfs2/ds/metcalf/miniconda2/envs/tf2gpu/share/psi4/basis/cc-pvdz.gbs
    atoms 3-4        entry O          line   198 file /theoryfs2/ds/metcalf/miniconda2/envs/tf2gpu/share/psi4/basis/cc-pvdz.gbs
    atoms 5-7, 13-20 entry H          line    22 file /theoryfs2/ds/metcalf/miniconda2/envs/tf2gpu/share/psi4/basis/cc-pvdz.gbs
    atoms 10-12      entry N          line   168 file /theoryfs2/ds/metcalf/miniconda2/envs/tf2gpu/share/psi4/basis/cc-pvdz.gbs

         ---------------------------------------------------------
                                   SCF
               by Justin Turney, Rob Parrish, Andy Simmonett
                          and Daniel G. A. Smith
                              RHF Reference
                        1 Threads,    500 MiB Core
         ---------------------------------------------------------

  ==> Geometry <==

    Molecular point group: c1
    Full point group: C1

    Geometry (in Angstrom), charge = 0, multiplicity = 1:

       Center              X                  Y                   Z               Mass
    ------------   -----------------  -----------------  -----------------  -----------------
         C            0.609114833077     1.541590223643    -3.381948345662    12.000000000000
         C            0.653114833077     0.892590223643    -2.008948345662    12.000000000000
         O            0.233114833077    -0.283409776357    -1.901948345662    15.994914619570
         O            1.090114833077     1.544590223643    -1.034948345662    15.994914619570
         H           -0.441885166923     1.644590223643    -3.622948345662     1.007825032230
         H            1.079114833077     0.877590223643    -4.111948345662     1.007825032230
         H            1.109564833077     2.520240223643    -3.424311345662     1.007825032230
         C           -1.803885166923    -2.143409776357     1.140051654338    12.000000000000
         C           -0.199885166923    -0.384409776357     1.774051654338    12.000000000000
         N           -0.875885166923    -1.044409776357     0.846051654338    14.003074004430
         N           -0.339885166923    -0.699409776357     3.048051654338    14.003074004430
         N            0.619114833077     0.589590223643     1.436051654338    14.003074004430
         H           -0.661885166923    -0.820409776357    -0.123948345662     1.007825032230
         H           -2.610885166923    -1.776409776357     1.780051654338     1.007825032230
         H           -1.263885166923    -2.931409776357     1.671051654338     1.007825032230
         H           -1.005885166923    -1.405409776357     3.315051654338     1.007825032230
         H            0.203114833077    -0.239409776357     3.760051654338     1.007825032230
         H            0.740114833077     0.831590223643     0.449051654338     1.007825032230
         H            1.224114833077     1.014590223643     2.115051654338     1.007825032230
         H           -2.252675166923    -2.579189776357     0.235242654338     1.007825032230

  Running in c1 symmetry.

  Rotational constants: A =      0.10087  B =      0.02396  C =      0.01975 [cm^-1]
  Rotational constants: A =   3024.02866  B =    718.39241  C =    592.14479 [MHz]
  Nuclear repulsion =  463.674967214949675

  Charge       = 0
  Multiplicity = 1
  Electrons    = 72
  Nalpha       = 36
  Nbeta        = 36

  ==> Algorithm <==

  SCF Algorithm Type is PK.
  DIIS enabled.
  MOM disabled.
  Fractional occupation disabled.
  Guess Type is SAD.
  Energy threshold   = 1.00e-06
  Density threshold  = 1.00e-10
  Integral threshold = 0.00e+00

  ==> Primary Basis <==

  Basis Set: CC-PVDZ
    Blend: CC-PVDZ
    Number of shells: 87
    Number of basis function: 181
    Number of Cartesian functions: 190
    Spherical Harmonics?: true
    Max angular momentum: 2

  ==> Pre-Iterations <==

   -------------------------------------------------------
    Irrep   Nso     Nmo     Nalpha   Nbeta   Ndocc  Nsocc
   -------------------------------------------------------
     A        181     181       0       0       0       0
   -------------------------------------------------------
    Total     181     181      36      36      36       0
   -------------------------------------------------------

  ==> Integral Setup <==

  Using integral reordering PK algorithm.
  Sizing the integral batches needed.
  Building batch lookup table.
   Calculation information:
      Number of atoms:                  20
      Number of AO shells:              87
      Number of primitives:            253
      Number of atomic orbitals:       190
      Number of basis functions:       181

      Integral cutoff                 1.00e-12
      Number of threads:                 1

	Batch   1 pq = [       0,    9405] index = [             0,44231715] size =     44231715
	Batch   2 pq = [    9405,   13301] index = [      44231715,88464951] size =     44233236
	Batch   3 pq = [   13301,   16471] index = [      88464951,135655156] size =     47190205
  Task number: 13
  Buffer size: 11059200
  Buffer per thread: 2
  We computed 5850622 shell quartets total.
  Whereas there are 7328706 unique shell quartets.

  ==> DiskJK: Disk-Based J/K Matrices <==

    J tasked:                  Yes
    K tasked:                  Yes
    wK tasked:                  No
    Memory [MiB]:              375
    Schwarz Cutoff:          1E-12

    OpenMP threads:              1

  Minimum eigenvalue in the overlap matrix is 3.6496165099E-03.
  Using Symmetric Orthogonalization.

  SCF Guess: Superposition of Atomic Densities via on-the-fly atomic UHF.

  ==> Iterations <==

                        Total Energy        Delta E     RMS |[F,P]|

   @RHF iter SAD:  -469.76363037286342   -4.69764e+02   0.00000e+00
   @RHF iter   1:  -470.72935375289427   -9.65723e-01   4.18051e-03 DIIS
   @RHF iter   2:  -470.94919033773874   -2.19837e-01   2.14957e-03 DIIS
   @RHF iter   3:  -471.00429714197270   -5.51068e-02   3.88956e-04 DIIS
   @RHF iter   4:  -471.00744013887095   -3.14300e-03   1.30204e-04 DIIS
   @RHF iter   5:  -471.00779416084771   -3.54022e-04   2.40163e-05 DIIS
   @RHF iter   6:  -471.00781108588990   -1.69250e-05   8.79586e-06 DIIS
   @RHF iter   7:  -471.00781273643764   -1.65055e-06   2.78509e-06 DIIS
   @RHF iter   8:  -471.00781294508897   -2.08651e-07   1.03662e-06 DIIS
   @RHF iter   9:  -471.00781297138298   -2.62940e-08   3.02127e-07 DIIS
   @RHF iter  10:  -471.00781297436191   -2.97894e-09   8.10755e-08 DIIS
   @RHF iter  11:  -471.00781297468444   -3.22530e-10   2.63076e-08 DIIS
   @RHF iter  12:  -471.00781297471929   -3.48450e-11   1.24672e-08 DIIS
   @RHF iter  13:  -471.00781297473014   -1.08571e-11   3.87182e-09 DIIS
   @RHF iter  14:  -471.00781297472935    7.95808e-13   1.16862e-09 DIIS
   @RHF iter  15:  -471.00781297473134   -1.98952e-12   4.61358e-10 DIIS
   @RHF iter  16:  -471.00781297473270   -1.36424e-12   1.62985e-10 DIIS
   @RHF iter  17:  -471.00781297473168    1.02318e-12   6.74185e-11 DIIS
  Energy and wave function converged.

  ==> Post-Iterations <==

    Orbital Energies [Eh]
    ---------------------

    Doubly Occupied:

       1A    -20.430513     2A    -20.424748     3A    -15.645560
       4A    -15.614862     5A    -15.593459     6A    -11.423337
       7A    -11.310593     8A    -11.274992     9A    -11.173137
      10A     -1.383958    11A     -1.318865    12A     -1.243523
      13A     -1.222642    14A     -1.202365    15A     -0.994962
      16A     -0.926965    17A     -0.881648    18A     -0.817427
      19A     -0.776288    20A     -0.706713    21A     -0.692309
      22A     -0.674957    23A     -0.642864    24A     -0.638289
      25A     -0.599709    26A     -0.584953    27A     -0.560625
      28A     -0.550137    29A     -0.546014    30A     -0.483898
      31A     -0.463172    32A     -0.455635    33A     -0.417287
      34A     -0.346764    35A     -0.339114    36A     -0.332831

    Virtual:

      37A      0.127118    38A      0.158245    39A      0.181367
      40A      0.207670    41A      0.213505    42A      0.237540
      43A      0.241631    44A      0.247888    45A      0.273416
      46A      0.286938    47A      0.309309    48A      0.344005
      49A      0.364976    50A      0.412916    51A      0.435667
      52A      0.449355    53A      0.484962    54A      0.494850
      55A      0.582164    56A      0.593150    57A      0.606245
      58A      0.624780    59A      0.657915    60A      0.671208
      61A      0.677606    62A      0.690560    63A      0.700538
      64A      0.727774    65A      0.730854    66A      0.771322
      67A      0.796546    68A      0.815895    69A      0.834329
      70A      0.839667    71A      0.842585    72A      0.861960
      73A      0.895220    74A      0.909305    75A      0.914699
      76A      0.921932    77A      0.935380    78A      0.949781
      79A      0.961914    80A      0.979136    81A      0.987216
      82A      0.997099    83A      1.060618    84A      1.073132
      85A      1.086861    86A      1.099095    87A      1.121252
      88A      1.141533    89A      1.205845    90A      1.214204
      91A      1.234707    92A      1.256450    93A      1.289430
      94A      1.298564    95A      1.328774    96A      1.346897
      97A      1.350822    98A      1.376303    99A      1.425540
     100A      1.438209   101A      1.452984   102A      1.497756
     103A      1.515463   104A      1.545067   105A      1.567472
     106A      1.582401   107A      1.611767   108A      1.630972
     109A      1.652968   110A      1.685081   111A      1.705792
     112A      1.722516   113A      1.727444   114A      1.745907
     115A      1.813988   116A      1.820248   117A      1.858602
     118A      1.877283   119A      1.890133   120A      1.915186
     121A      1.923099   122A      1.934399   123A      1.946120
     124A      1.960272   125A      1.963367   126A      1.976498
     127A      1.993505   128A      2.015181   129A      2.036205
     130A      2.069808   131A      2.093976   132A      2.132785
     133A      2.167673   134A      2.181618   135A      2.196450
     136A      2.233471   137A      2.255722   138A      2.268135
     139A      2.307806   140A      2.353293   141A      2.377276
     142A      2.405574   143A      2.430102   144A      2.450412
     145A      2.462159   146A      2.477391   147A      2.508566
     148A      2.529855   149A      2.544979   150A      2.583782
     151A      2.622487   152A      2.641087   153A      2.648354
     154A      2.719208   155A      2.720857   156A      2.756895
     157A      2.800049   158A      2.807722   159A      2.846486
     160A      2.868613   161A      2.871774   162A      2.902470
     163A      2.952585   164A      2.997113   165A      3.013127
     166A      3.040728   167A      3.090189   168A      3.134324
     169A      3.154536   170A      3.174397   171A      3.228937
     172A      3.295420   173A      3.461096   174A      3.488227
     175A      3.655353   176A      3.665200   177A      3.736981
     178A      3.847896   179A      3.915358   180A      3.935273
     181A      4.063986

    Final Occupation by Irrep:
              A
    DOCC [    36 ]

  @RHF Final Energy:  -471.00781297473168

   => Energetics <=

    Nuclear Repulsion Energy =            463.6749672149496746
    One-Electron Energy =               -1563.9753322503472646
    Two-Electron Energy =                 629.2925520606659120
    Total Energy =                       -471.0078129747316780

Computation Completed

Properties will be evaluated at   0.000000,   0.000000,   0.000000 [a0]

Properties computed using the SCF density matrix

  Nuclear Dipole Moment: [e a0]
     X:    -3.6303      Y:    -2.6752      Z:     1.8851

  Electronic Dipole Moment: [e a0]
     X:     2.3341      Y:     1.2235      Z:     2.2250

  Dipole Moment: [e a0]
     X:    -1.2962      Y:    -1.4516      Z:     4.1101     Total:     4.5476

  Dipole Moment: [D]
     X:    -3.2946      Y:    -3.6897      Z:    10.4468     Total:    11.5587

*** tstop() called on ds3 at Tue Apr 28 04:17:38 2020
Module time:
	user time   =      44.02 seconds =       0.73 minutes
	system time =      18.26 seconds =       0.30 minutes
	total time  =        140 seconds =       2.33 minutes
Total time:
	user time   =      44.02 seconds =       0.73 minutes
	system time =      18.26 seconds =       0.30 minutes
	total time  =        140 seconds =       2.33 minutes
                                     G D M A

                                 by Anthony Stone

                           version 2.2.06, 22 June 2011

               Distributed Multipoles from Gaussian wavefunctions

Starting at 4:17:38 on 28 Apr 2020

Using SCF density matrix from file ./SSI/SSI-013GLU-069ARG-1-dimer.test.27397.fchk

                         Distributed Multipole Analysis

Standard DMA

Positions and radii in angstrom
Multipole moments in atomic units, ea_0^k for rank k

C          x =  0.609115  y =  1.541590  z = -3.381948 angstrom
           Maximum rank =  0   Radius =  0.650 angstrom
                   Q00  =  -0.249520

C          x =  0.653115  y =  0.892590  z = -2.008948 angstrom
           Maximum rank =  0   Radius =  0.650 angstrom
                   Q00  =   0.867300

O          x =  0.233115  y = -0.283410  z = -1.901948 angstrom
           Maximum rank =  0   Radius =  0.650 angstrom
                   Q00  =  -0.911510

O          x =  1.090115  y =  1.544590  z = -1.034948 angstrom
           Maximum rank =  0   Radius =  0.650 angstrom
                   Q00  =  -0.925211

H          x = -0.441885  y =  1.644590  z = -3.622948 angstrom
           Maximum rank =  0   Radius =  0.325 angstrom
                   Q00  =   0.097972

H          x =  1.079115  y =  0.877590  z = -4.111948 angstrom
           Maximum rank =  0   Radius =  0.325 angstrom
                   Q00  =   0.096322

H          x =  1.109565  y =  2.520240  z = -3.424311 angstrom
           Maximum rank =  0   Radius =  0.325 angstrom
                   Q00  =   0.081595

C          x = -1.803885  y = -2.143410  z =  1.140052 angstrom
           Maximum rank =  0   Radius =  0.650 angstrom
                   Q00  =  -0.103373

C          x = -0.199885  y = -0.384410  z =  1.774052 angstrom
           Maximum rank =  0   Radius =  0.650 angstrom
                   Q00  =   1.061266

N          x = -0.875885  y = -1.044410  z =  0.846052 angstrom
           Maximum rank =  0   Radius =  0.650 angstrom
                   Q00  =  -0.500261

N          x = -0.339885  y = -0.699410  z =  3.048052 angstrom
           Maximum rank =  0   Radius =  0.650 angstrom
                   Q00  =  -0.580083

N          x =  0.619115  y =  0.589590  z =  1.436052 angstrom
           Maximum rank =  0   Radius =  0.650 angstrom
                   Q00  =  -0.619611

H          x = -0.661885  y = -0.820410  z = -0.123948 angstrom
           Maximum rank =  0   Radius =  0.325 angstrom
                   Q00  =   0.283379

H          x = -2.610885  y = -1.776410  z =  1.780052 angstrom
           Maximum rank =  0   Radius =  0.325 angstrom
                   Q00  =   0.083236

H          x = -1.263885  y = -2.931410  z =  1.671052 angstrom
           Maximum rank =  0   Radius =  0.325 angstrom
                   Q00  =   0.083509

H          x = -1.005885  y = -1.405410  z =  3.315052 angstrom
           Maximum rank =  0   Radius =  0.325 angstrom
                   Q00  =   0.238261

H          x =  0.203115  y = -0.239410  z =  3.760052 angstrom
           Maximum rank =  0   Radius =  0.325 angstrom
                   Q00  =   0.241452

H          x =  0.740115  y =  0.831590  z =  0.449052 angstrom
           Maximum rank =  0   Radius =  0.325 angstrom
                   Q00  =   0.376040

H          x =  1.224115  y =  1.014590  z =  2.115052 angstrom
           Maximum rank =  0   Radius =  0.325 angstrom
                   Q00  =   0.220556

H          x = -2.252675  y = -2.579190  z =  0.235243 angstrom
           Maximum rank =  0   Radius =  0.325 angstrom
                   Q00  =   0.158680

Total multipoles referred to origin at
           x =   0.000000,  y =    0.000000,  z =    0.000000 angstrom
                   Q00  =  -0.000000

Finished at 4:17:38 on 28 Apr 2020

  DMA results are available in the Python driver through the
	  variable('DMA DISTRIBUTED MULTIPOLES')
  and
	  variable('DMA TOTAL MULTIPOLES')
  commands.

    Psi4 stopped on: Tuesday, 28 April 2020 04:17AM
    Psi4 wall time for execution: 0:02:20.16

*** Psi4 exiting successfully. Buy a developer a beer!
