                               Psi4 1.3.2 release

  ==> Input File <==

--------------------------------------------------------------------------
import numpy as np
set {scf_type pk
basis cc-pvdz
d_convergence 10
gdma_switch   0
gdma_limit    0
gdma_origin   [ 0.0,  0.0,  0.0 ]
}
molecule test {
    units Angstrom
    0 1
    --
    0 1
    C                0.504332025697673     1.707168542321441     0.632395456345936
    C               -0.808667974302327     2.475168542321441     0.480395456345936
    H                0.399332025697673     0.901168542321441     1.358395456345936
    H                0.794332025697673     1.279168542321441    -0.328604543654064
    H                1.292332025697672     2.386168542321441     0.964395456345936
    H               -0.667667974302327     3.248168542321441    -0.278604543654064
    H               -1.084697974302328     2.955581542321442     1.430665456345936
    H               -1.614127974302327     1.809478302321441     0.136745456345936
    C               -0.171667974302327    -1.901831457678559     0.104395456345936
    C                0.470332025697673    -2.282831457678559    -1.215604543654064
    H               -0.835667974302327    -2.692831457678559     0.444395456345936
    H                0.603332025697673    -1.748831457678559     0.856395456345936
    H               -0.734667974302327    -0.978831457678559    -0.005604543654064
    H                1.273332025697673    -1.578831457678559    -1.438604543654064
    H               -0.261187974302327    -2.262887457678559    -2.036874543654065
    H                0.902892025697673    -3.289827457678558    -1.121534543654064

}
e, wfn = energy('scf', return_wfn=True)
gdma(wfn)
dmavals = variable('DMA DISTRIBUTED MULTIPOLES')
charges = np.array(dmavals)
print(charges)
np.save('SSI-093ALA-099THR-1-dimer.npy', np.array(charges))--------------------------------------------------------------------------

*** tstart() called on ds3
*** at Tue Apr 28 00:49:27 2020

   => Loading Basis Set <=

    Name: CC-PVDZ
    Role: ORBITAL
    Keyword: BASIS
    atoms 1-2, 9-10  entry C          line   138 file /theoryfs2/ds/metcalf/miniconda2/envs/tf2gpu/share/psi4/basis/cc-pvdz.gbs
    atoms 3-8, 11-16 entry H          line    22 file /theoryfs2/ds/metcalf/miniconda2/envs/tf2gpu/share/psi4/basis/cc-pvdz.gbs

         ---------------------------------------------------------
                                   SCF
               by Justin Turney, Rob Parrish, Andy Simmonett
                          and Daniel G. A. Smith
                              RHF Reference
                        1 Threads,    500 MiB Core
         ---------------------------------------------------------

  ==> Geometry <==

    Molecular point group: c1
    Full point group: C1

    Geometry (in Angstrom), charge = 0, multiplicity = 1:

       Center              X                  Y                   Z               Mass
    ------------   -----------------  -----------------  -----------------  -----------------
         C            0.504332025698     1.707168542321     0.632395456346    12.000000000000
         C           -0.808667974302     2.475168542321     0.480395456346    12.000000000000
         H            0.399332025698     0.901168542321     1.358395456346     1.007825032230
         H            0.794332025698     1.279168542321    -0.328604543654     1.007825032230
         H            1.292332025698     2.386168542321     0.964395456346     1.007825032230
         H           -0.667667974302     3.248168542321    -0.278604543654     1.007825032230
         H           -1.084697974302     2.955581542321     1.430665456346     1.007825032230
         H           -1.614127974302     1.809478302321     0.136745456346     1.007825032230
         C           -0.171667974302    -1.901831457679     0.104395456346    12.000000000000
         C            0.470332025698    -2.282831457679    -1.215604543654    12.000000000000
         H           -0.835667974302    -2.692831457679     0.444395456346     1.007825032230
         H            0.603332025698    -1.748831457679     0.856395456346     1.007825032230
         H           -0.734667974302    -0.978831457679    -0.005604543654     1.007825032230
         H            1.273332025698    -1.578831457679    -1.438604543654     1.007825032230
         H           -0.261187974302    -2.262887457679    -2.036874543654     1.007825032230
         H            0.902892025698    -3.289827457679    -1.121534543654     1.007825032230

  Running in c1 symmetry.

  Rotational constants: A =      0.42465  B =      0.05321  C =      0.05242 [cm^-1]
  Rotational constants: A =  12730.76138  B =   1595.08637  C =   1571.44394 [MHz]
  Nuclear repulsion =  123.788041488367639

  Charge       = 0
  Multiplicity = 1
  Electrons    = 36
  Nalpha       = 18
  Nbeta        = 18

  ==> Algorithm <==

  SCF Algorithm Type is PK.
  DIIS enabled.
  MOM disabled.
  Fractional occupation disabled.
  Guess Type is SAD.
  Energy threshold   = 1.00e-06
  Density threshold  = 1.00e-10
  Integral threshold = 0.00e+00

  ==> Primary Basis <==

  Basis Set: CC-PVDZ
    Blend: CC-PVDZ
    Number of shells: 60
    Number of basis function: 116
    Number of Cartesian functions: 120
    Spherical Harmonics?: true
    Max angular momentum: 2

  ==> Pre-Iterations <==

   -------------------------------------------------------
    Irrep   Nso     Nmo     Nalpha   Nbeta   Ndocc  Nsocc
   -------------------------------------------------------
     A        116     116       0       0       0       0
   -------------------------------------------------------
    Total     116     116      18      18      18       0
   -------------------------------------------------------

  ==> Integral Setup <==

  Using integral reordering PK algorithm.
  Sizing the integral batches needed.
  Building batch lookup table.
   Calculation information:
      Number of atoms:                  16
      Number of AO shells:              60
      Number of primitives:            148
      Number of atomic orbitals:       120
      Number of basis functions:       116

      Integral cutoff                 1.00e-12
      Number of threads:                 1

	Batch   1 pq = [       0,    6786] index = [             0,23028291] size =     23028291
  Task number: 3
  Buffer size: 11059200
  Buffer per thread: 2
  We computed 1492398 shell quartets total.
  Whereas there are 1675365 unique shell quartets.

  ==> DiskJK: Disk-Based J/K Matrices <==

    J tasked:                  Yes
    K tasked:                  Yes
    wK tasked:                  No
    Memory [MiB]:              375
    Schwarz Cutoff:          1E-12

    OpenMP threads:              1

  Minimum eigenvalue in the overlap matrix is 7.5249006149E-03.
  Using Symmetric Orthogonalization.

  SCF Guess: Superposition of Atomic Densities via on-the-fly atomic UHF.

  ==> Iterations <==

                        Total Energy        Delta E     RMS |[F,P]|

   @RHF iter SAD:  -157.36806937830798   -1.57368e+02   0.00000e+00
   @RHF iter   1:  -158.30635430815610   -9.38285e-01   4.23242e-03 DIIS
   @RHF iter   2:  -158.44076855091788   -1.34414e-01   1.81168e-03 DIIS
   @RHF iter   3:  -158.46455088883187   -2.37823e-02   3.50833e-04 DIIS
   @RHF iter   4:  -158.46639640237674   -1.84551e-03   3.86728e-05 DIIS
   @RHF iter   5:  -158.46641992099518   -2.35186e-05   6.39260e-06 DIIS
   @RHF iter   6:  -158.46642053216840   -6.11173e-07   1.00429e-06 DIIS
   @RHF iter   7:  -158.46642054247491   -1.03065e-08   3.01440e-07 DIIS
   @RHF iter   8:  -158.46642054324883   -7.73923e-10   3.77442e-08 DIIS
   @RHF iter   9:  -158.46642054326949   -2.06626e-11   7.68038e-09 DIIS
   @RHF iter  10:  -158.46642054327009   -5.96856e-13   2.07466e-09 DIIS
   @RHF iter  11:  -158.46642054327032   -2.27374e-13   6.44352e-10 DIIS
   @RHF iter  12:  -158.46642054327054   -2.27374e-13   1.66202e-10 DIIS
   @RHF iter  13:  -158.46642054327023    3.12639e-13   2.05149e-11 DIIS
  Energy and wave function converged.

  ==> Post-Iterations <==

    Orbital Energies [Eh]
    ---------------------

    Doubly Occupied:

       1A    -11.220078     2A    -11.218360     3A    -11.217025
       4A    -11.214735     5A     -1.021961     6A     -1.017584
       7A     -0.837959     8A     -0.834158     9A     -0.605730
      10A     -0.599206    11A     -0.597644    12A     -0.592645
      13A     -0.503517    14A     -0.499840    15A     -0.488037
      16A     -0.487139    17A     -0.484240    18A     -0.479976

    Virtual:

      19A      0.168921    20A      0.198469    21A      0.222385
      22A      0.226629    23A      0.244146    24A      0.258994
      25A      0.260414    26A      0.273378    27A      0.280967
      28A      0.300904    29A      0.325541    30A      0.348418
      31A      0.388947    32A      0.407436    33A      0.571053
      34A      0.597262    35A      0.598401    36A      0.608023
      37A      0.623826    38A      0.631197    39A      0.650261
      40A      0.682663    41A      0.688114    42A      0.817793
      43A      0.841172    44A      0.854473    45A      0.877152
      46A      0.888930    47A      0.891569    48A      0.895988
      49A      0.901498    50A      0.906479    51A      0.913765
      52A      0.921154    53A      0.939994    54A      0.959606
      55A      0.986971    56A      1.018142    57A      1.123451
      58A      1.124342    59A      1.128224    60A      1.157475
      61A      1.233592    62A      1.248444    63A      1.472323
      64A      1.475549    65A      1.479423    66A      1.493185
      67A      1.553895    68A      1.588453    69A      1.679621
      70A      1.682666    71A      1.693259    72A      1.705661
      73A      1.856304    74A      1.860821    75A      1.870276
      76A      1.888705    77A      1.905275    78A      1.906772
      79A      1.940706    80A      1.945235    81A      1.948670
      82A      1.950022    83A      1.951166    84A      1.959008
      85A      1.961993    86A      1.965685    87A      1.973453
      88A      2.022445    89A      2.096824    90A      2.109411
      91A      2.120726    92A      2.140800    93A      2.295625
      94A      2.300148    95A      2.315650    96A      2.320541
      97A      2.448005    98A      2.454533    99A      2.463607
     100A      2.468551   101A      2.561922   102A      2.565963
     103A      2.573254   104A      2.583803   105A      2.754838
     106A      2.767756   107A      2.791542   108A      2.797800
     109A      2.848116   110A      2.851566   111A      2.857104
     112A      2.860270   113A      2.929788   114A      2.958756
     115A      2.970018   116A      2.987542

    Final Occupation by Irrep:
              A
    DOCC [    18 ]

  @RHF Final Energy:  -158.46642054327023

   => Energetics <=

    Nuclear Repulsion Energy =            123.7880414883676394
    One-Electron Energy =                -456.6692547958640489
    Two-Electron Energy =                 174.4147927642261777
    Total Energy =                       -158.4664205432702317

Computation Completed

Properties will be evaluated at   0.000000,   0.000000,   0.000000 [a0]

Properties computed using the SCF density matrix

  Nuclear Dipole Moment: [e a0]
     X:     0.0633      Y:     0.0260      Z:    -0.0177

  Electronic Dipole Moment: [e a0]
     X:    -0.0521      Y:    -0.0194      Z:     0.0248

  Dipole Moment: [e a0]
     X:     0.0112      Y:     0.0066      Z:     0.0071     Total:     0.0148

  Dipole Moment: [D]
     X:     0.0284      Y:     0.0167      Z:     0.0181     Total:     0.0376

*** tstop() called on ds3 at Tue Apr 28 00:49:37 2020
Module time:
	user time   =       7.63 seconds =       0.13 minutes
	system time =       2.81 seconds =       0.05 minutes
	total time  =         10 seconds =       0.17 minutes
Total time:
	user time   =       7.63 seconds =       0.13 minutes
	system time =       2.81 seconds =       0.05 minutes
	total time  =         10 seconds =       0.17 minutes
                                     G D M A

                                 by Anthony Stone

                           version 2.2.06, 22 June 2011

               Distributed Multipoles from Gaussian wavefunctions

Starting at 0:49:37 on 28 Apr 2020

Using SCF density matrix from file ./SSI/SSI-093ALA-099THR-1-dimer.test.32692.fchk

                         Distributed Multipole Analysis

Standard DMA

Positions and radii in angstrom
Multipole moments in atomic units, ea_0^k for rank k

C          x =  0.504332  y =  1.707169  z =  0.632395 angstrom
           Maximum rank =  0   Radius =  0.650 angstrom
                   Q00  =  -0.232623

C          x = -0.808668  y =  2.475169  z =  0.480395 angstrom
           Maximum rank =  0   Radius =  0.650 angstrom
                   Q00  =  -0.241360

H          x =  0.399332  y =  0.901169  z =  1.358395 angstrom
           Maximum rank =  0   Radius =  0.325 angstrom
                   Q00  =   0.081992

H          x =  0.794332  y =  1.279169  z = -0.328605 angstrom
           Maximum rank =  0   Radius =  0.325 angstrom
                   Q00  =   0.077835

H          x =  1.292332  y =  2.386169  z =  0.964395 angstrom
           Maximum rank =  0   Radius =  0.325 angstrom
                   Q00  =   0.079081

H          x = -0.667668  y =  3.248169  z = -0.278605 angstrom
           Maximum rank =  0   Radius =  0.325 angstrom
                   Q00  =   0.077456

H          x = -1.084698  y =  2.955582  z =  1.430665 angstrom
           Maximum rank =  0   Radius =  0.325 angstrom
                   Q00  =   0.080174

H          x = -1.614128  y =  1.809478  z =  0.136745 angstrom
           Maximum rank =  0   Radius =  0.325 angstrom
                   Q00  =   0.078402

C          x = -0.171668  y = -1.901831  z =  0.104395 angstrom
           Maximum rank =  0   Radius =  0.650 angstrom
                   Q00  =  -0.232932

C          x =  0.470332  y = -2.282831  z = -1.215605 angstrom
           Maximum rank =  0   Radius =  0.650 angstrom
                   Q00  =  -0.234631

H          x = -0.835668  y = -2.692831  z =  0.444395 angstrom
           Maximum rank =  0   Radius =  0.325 angstrom
                   Q00  =   0.077457

H          x =  0.603332  y = -1.748831  z =  0.856395 angstrom
           Maximum rank =  0   Radius =  0.325 angstrom
                   Q00  =   0.077371

H          x = -0.734668  y = -0.978831  z = -0.005605 angstrom
           Maximum rank =  0   Radius =  0.325 angstrom
                   Q00  =   0.080055

H          x =  1.273332  y = -1.578831  z = -1.438605 angstrom
           Maximum rank =  0   Radius =  0.325 angstrom
                   Q00  =   0.077298

H          x = -0.261188  y = -2.262887  z = -2.036875 angstrom
           Maximum rank =  0   Radius =  0.325 angstrom
                   Q00  =   0.078181

H          x =  0.902892  y = -3.289827  z = -1.121535 angstrom
           Maximum rank =  0   Radius =  0.325 angstrom
                   Q00  =   0.076244

Total multipoles referred to origin at
           x =   0.000000,  y =    0.000000,  z =    0.000000 angstrom
                   Q00  =  -0.000000

Finished at 0:49:37 on 28 Apr 2020

  DMA results are available in the Python driver through the
	  variable('DMA DISTRIBUTED MULTIPOLES')
  and
	  variable('DMA TOTAL MULTIPOLES')
  commands.

    Psi4 stopped on: Tuesday, 28 April 2020 12:49AM
    Psi4 wall time for execution: 0:00:10.21

*** Psi4 exiting successfully. Buy a developer a beer!
