                               Psi4 1.3.2 release

  ==> Input File <==

--------------------------------------------------------------------------
import numpy as np
set {scf_type pk
basis cc-pvdz
d_convergence 10
gdma_switch   0
gdma_limit    0
gdma_origin   [ 0.0,  0.0,  0.0 ]
}
molecule test {
    units Angstrom
    0 1
    --
    0 1
    C               -2.061793279245814     1.216971452189944    -1.880625640054646
    N               -0.941793279245814     1.735971452189944    -1.071625640054646
    H               -0.268793279245814     1.007971452189944    -0.834625640054646
    H               -0.446793279245814     2.475971452189944    -1.552625640054646
    H               -1.262793279245814     2.106971452189944    -0.187625640054646
    H               -1.723793279245814     1.028971452189944    -2.905625640054646
    H               -2.861793279245813     1.963971452189944    -1.927625640054646
    H               -2.467607279245813     0.277301452189944    -1.477705640054646
    C                1.432206720754186    -1.171028547810056     2.026374359945354
    C                0.753206720754186    -0.798028547810056     0.720374359945354
    O                0.586206720754186     0.409971452189944     0.493374359945354
    O                0.411206720754186    -1.688028547810056    -0.087625640054646
    H                1.326206720754187    -0.349028547810056     2.723374359945354
    H                2.494206720754187    -1.318028547810056     1.825374359945354
    H                0.995166720754186    -2.075648547810056     2.474321359945354

}
e, wfn = energy('scf', return_wfn=True)
gdma(wfn)
dmavals = variable('DMA DISTRIBUTED MULTIPOLES')
charges = np.array(dmavals)
print(charges)
np.save('SSI-019LYS-071GLU-1-dimer.npy', np.array(charges))--------------------------------------------------------------------------

*** tstart() called on ds3
*** at Tue Apr 28 10:52:40 2020

   => Loading Basis Set <=

    Name: CC-PVDZ
    Role: ORBITAL
    Keyword: BASIS
    atoms 1, 9-10    entry C          line   138 file /theoryfs2/ds/metcalf/miniconda2/envs/tf2gpu/share/psi4/basis/cc-pvdz.gbs
    atoms 2          entry N          line   168 file /theoryfs2/ds/metcalf/miniconda2/envs/tf2gpu/share/psi4/basis/cc-pvdz.gbs
    atoms 3-8, 13-15 entry H          line    22 file /theoryfs2/ds/metcalf/miniconda2/envs/tf2gpu/share/psi4/basis/cc-pvdz.gbs
    atoms 11-12      entry O          line   198 file /theoryfs2/ds/metcalf/miniconda2/envs/tf2gpu/share/psi4/basis/cc-pvdz.gbs

         ---------------------------------------------------------
                                   SCF
               by Justin Turney, Rob Parrish, Andy Simmonett
                          and Daniel G. A. Smith
                              RHF Reference
                        1 Threads,    500 MiB Core
         ---------------------------------------------------------

  ==> Geometry <==

    Molecular point group: c1
    Full point group: C1

    Geometry (in Angstrom), charge = 0, multiplicity = 1:

       Center              X                  Y                   Z               Mass
    ------------   -----------------  -----------------  -----------------  -----------------
         C           -2.061793279246     1.216971452190    -1.880625640055    12.000000000000
         N           -0.941793279246     1.735971452190    -1.071625640055    14.003074004430
         H           -0.268793279246     1.007971452190    -0.834625640055     1.007825032230
         H           -0.446793279246     2.475971452190    -1.552625640055     1.007825032230
         H           -1.262793279246     2.106971452190    -0.187625640055     1.007825032230
         H           -1.723793279246     1.028971452190    -2.905625640055     1.007825032230
         H           -2.861793279246     1.963971452190    -1.927625640055     1.007825032230
         H           -2.467607279246     0.277301452190    -1.477705640055     1.007825032230
         C            1.432206720754    -1.171028547810     2.026374359945    12.000000000000
         C            0.753206720754    -0.798028547810     0.720374359945    12.000000000000
         O            0.586206720754     0.409971452190     0.493374359945    15.994914619570
         O            0.411206720754    -1.688028547810    -0.087625640055    15.994914619570
         H            1.326206720754    -0.349028547810     2.723374359945     1.007825032230
         H            2.494206720754    -1.318028547810     1.825374359945     1.007825032230
         H            0.995166720754    -2.075648547810     2.474321359945     1.007825032230

  Running in c1 symmetry.

  Rotational constants: A =      0.26146  B =      0.04397  C =      0.03914 [cm^-1]
  Rotational constants: A =   7838.23879  B =   1318.06967  C =   1173.46834 [MHz]
  Nuclear repulsion =  241.041601093409781

  Charge       = 0
  Multiplicity = 1
  Electrons    = 50
  Nalpha       = 25
  Nbeta        = 25

  ==> Algorithm <==

  SCF Algorithm Type is PK.
  DIIS enabled.
  MOM disabled.
  Fractional occupation disabled.
  Guess Type is SAD.
  Energy threshold   = 1.00e-06
  Density threshold  = 1.00e-10
  Integral threshold = 0.00e+00

  ==> Primary Basis <==

  Basis Set: CC-PVDZ
    Blend: CC-PVDZ
    Number of shells: 63
    Number of basis function: 129
    Number of Cartesian functions: 135
    Spherical Harmonics?: true
    Max angular momentum: 2

  ==> Pre-Iterations <==

   -------------------------------------------------------
    Irrep   Nso     Nmo     Nalpha   Nbeta   Ndocc  Nsocc
   -------------------------------------------------------
     A        129     129       0       0       0       0
   -------------------------------------------------------
    Total     129     129      25      25      25       0
   -------------------------------------------------------

  ==> Integral Setup <==

  Using integral reordering PK algorithm.
  Sizing the integral batches needed.
  Building batch lookup table.
   Calculation information:
      Number of atoms:                  15
      Number of AO shells:              63
      Number of primitives:            177
      Number of atomic orbitals:       135
      Number of basis functions:       129

      Integral cutoff                 1.00e-12
      Number of threads:                 1

	Batch   1 pq = [       0,    8385] index = [             0,35158305] size =     35158305
  Task number: 4
  Buffer size: 11059200
  Buffer per thread: 2
  We computed 1692651 shell quartets total.
  Whereas there are 2033136 unique shell quartets.

  ==> DiskJK: Disk-Based J/K Matrices <==

    J tasked:                  Yes
    K tasked:                  Yes
    wK tasked:                  No
    Memory [MiB]:              375
    Schwarz Cutoff:          1E-12

    OpenMP threads:              1

  Minimum eigenvalue in the overlap matrix is 4.9979554521E-03.
  Using Symmetric Orthogonalization.

  SCF Guess: Superposition of Atomic Densities via on-the-fly atomic UHF.

  ==> Iterations <==

                        Total Energy        Delta E     RMS |[F,P]|

   @RHF iter SAD:  -321.83062188052401   -3.21831e+02   0.00000e+00
   @RHF iter   1:  -322.79664995027667   -9.66028e-01   5.17246e-03 DIIS
   @RHF iter   2:  -322.96428472518920   -1.67635e-01   2.82924e-03 DIIS
   @RHF iter   3:  -323.01128276273710   -4.69980e-02   4.80924e-04 DIIS
   @RHF iter   4:  -323.01376523091591   -2.48247e-03   1.73914e-04 DIIS
   @RHF iter   5:  -323.01407451012000   -3.09279e-04   3.87457e-05 DIIS
   @RHF iter   6:  -323.01409088576315   -1.63756e-05   1.84701e-05 DIIS
   @RHF iter   7:  -323.01409418573337   -3.29997e-06   3.78281e-06 DIIS
   @RHF iter   8:  -323.01409459989827   -4.14165e-07   1.68789e-06 DIIS
   @RHF iter   9:  -323.01409468270509   -8.28068e-08   4.83796e-07 DIIS
   @RHF iter  10:  -323.01409468889443   -6.18934e-09   1.53422e-07 DIIS
   @RHF iter  11:  -323.01409468926948   -3.75053e-10   3.70738e-08 DIIS
   @RHF iter  12:  -323.01409468929302   -2.35332e-11   8.93852e-09 DIIS
   @RHF iter  13:  -323.01409468929540   -2.38742e-12   2.80506e-09 DIIS
   @RHF iter  14:  -323.01409468929523    1.70530e-13   1.05261e-09 DIIS
   @RHF iter  15:  -323.01409468929540   -1.70530e-13   3.48079e-10 DIIS
   @RHF iter  16:  -323.01409468929711   -1.70530e-12   1.63520e-10 DIIS
   @RHF iter  17:  -323.01409468929654    5.68434e-13   6.48075e-11 DIIS
  Energy and wave function converged.

  ==> Post-Iterations <==

    Orbital Energies [Eh]
    ---------------------

    Doubly Occupied:

       1A    -20.436230     2A    -20.408739     3A    -15.713172
       4A    -11.338367     5A    -11.268594     6A    -11.171404
       7A     -1.347441     8A     -1.319345     9A     -1.198972
      10A     -1.008794    11A     -0.925626    12A     -0.805827
      13A     -0.796780    14A     -0.705695    15A     -0.649776
      16A     -0.611682    17A     -0.609502    18A     -0.561550
      19A     -0.547749    20A     -0.545398    21A     -0.482496
      22A     -0.459274    23A     -0.352239    24A     -0.326548
      25A     -0.325199

    Virtual:

      26A      0.109322    27A      0.165495    28A      0.172399
      29A      0.213066    30A      0.226329    31A      0.246943
      32A      0.278491    33A      0.287412    34A      0.308813
      35A      0.340965    36A      0.352081    37A      0.449545
      38A      0.516722    39A      0.525482    40A      0.571849
      41A      0.580575    42A      0.599792    43A      0.670984
      44A      0.703611    45A      0.722097    46A      0.748945
      47A      0.791204    48A      0.799954    49A      0.807508
      50A      0.820119    51A      0.839094    52A      0.864458
      53A      0.894943    54A      0.909630    55A      0.919392
      56A      0.929491    57A      0.953678    58A      0.956987
      59A      0.988913    60A      1.019779    61A      1.065813
      62A      1.085091    63A      1.106085    64A      1.209539
      65A      1.216259    66A      1.238654    67A      1.298154
      68A      1.381175    69A      1.427983    70A      1.438305
      71A      1.453122    72A      1.469623    73A      1.493343
      74A      1.518366    75A      1.597667    76A      1.607456
      77A      1.640391    78A      1.701810    79A      1.719360
      80A      1.753448    81A      1.770084    82A      1.830230
      83A      1.836811    84A      1.854017    85A      1.875233
      86A      1.898482    87A      1.939876    88A      1.962798
      89A      1.997728    90A      2.018453    91A      2.071945
      92A      2.091073    93A      2.104937    94A      2.112254
      95A      2.123756    96A      2.139065    97A      2.175481
      98A      2.252936    99A      2.273830   100A      2.302837
     101A      2.317787   102A      2.396838   103A      2.414894
     104A      2.468197   105A      2.540495   106A      2.558076
     107A      2.603899   108A      2.622861   109A      2.650456
     110A      2.662117   111A      2.692045   112A      2.806468
     113A      2.837678   114A      2.871758   115A      2.888135
     116A      2.913860   117A      2.968355   118A      3.080465
     119A      3.132184   120A      3.143057   121A      3.221255
     122A      3.288325   123A      3.393284   124A      3.481859
     125A      3.647028   126A      3.691926   127A      3.921284
     128A      3.929293   129A      4.063173

    Final Occupation by Irrep:
              A
    DOCC [    25 ]

  @RHF Final Energy:  -323.01409468929654

   => Energetics <=

    Nuclear Repulsion Energy =            241.0416010934097812
    One-Electron Energy =                -920.2785929119460206
    Two-Electron Energy =                 356.2228971292396977
    Total Energy =                       -323.0140946892965417

Computation Completed

Properties will be evaluated at   0.000000,   0.000000,   0.000000 [a0]

Properties computed using the SCF density matrix

  Nuclear Dipole Moment: [e a0]
     X:    -3.9448      Y:     4.7872      Z:    -1.7412

  Electronic Dipole Moment: [e a0]
     X:     1.7746      Y:    -1.3911      Z:     0.0972

  Dipole Moment: [e a0]
     X:    -2.1702      Y:     3.3961      Z:    -1.6440     Total:     4.3527

  Dipole Moment: [D]
     X:    -5.5162      Y:     8.6320      Z:    -4.1786     Total:    11.0635

*** tstop() called on ds3 at Tue Apr 28 10:52:57 2020
Module time:
	user time   =      12.68 seconds =       0.21 minutes
	system time =       5.17 seconds =       0.09 minutes
	total time  =         17 seconds =       0.28 minutes
Total time:
	user time   =      12.68 seconds =       0.21 minutes
	system time =       5.17 seconds =       0.09 minutes
	total time  =         17 seconds =       0.28 minutes
                                     G D M A

                                 by Anthony Stone

                           version 2.2.06, 22 June 2011

               Distributed Multipoles from Gaussian wavefunctions

Starting at 10:52:57 on 28 Apr 2020

Using SCF density matrix from file ./SSI/SSI-019LYS-071GLU-1-dimer.test.19677.fchk

                         Distributed Multipole Analysis

Standard DMA

Positions and radii in angstrom
Multipole moments in atomic units, ea_0^k for rank k

C          x = -2.061793  y =  1.216971  z = -1.880626 angstrom
           Maximum rank =  0   Radius =  0.650 angstrom
                   Q00  =  -0.149907

N          x = -0.941793  y =  1.735971  z = -1.071626 angstrom
           Maximum rank =  0   Radius =  0.650 angstrom
                   Q00  =  -0.093868

H          x = -0.268793  y =  1.007971  z = -0.834626 angstrom
           Maximum rank =  0   Radius =  0.325 angstrom
                   Q00  =   0.282589

H          x = -0.446793  y =  2.475971  z = -1.552626 angstrom
           Maximum rank =  0   Radius =  0.325 angstrom
                   Q00  =   0.212082

H          x = -1.262793  y =  2.106971  z = -0.187626 angstrom
           Maximum rank =  0   Radius =  0.325 angstrom
                   Q00  =   0.237643

H          x = -1.723793  y =  1.028971  z = -2.905626 angstrom
           Maximum rank =  0   Radius =  0.325 angstrom
                   Q00  =   0.137198

H          x = -2.861793  y =  1.963971  z = -1.927626 angstrom
           Maximum rank =  0   Radius =  0.325 angstrom
                   Q00  =   0.114298

H          x = -2.467607  y =  0.277301  z = -1.477706 angstrom
           Maximum rank =  0   Radius =  0.325 angstrom
                   Q00  =   0.162293

C          x =  1.432207  y = -1.171029  z =  2.026374 angstrom
           Maximum rank =  0   Radius =  0.650 angstrom
                   Q00  =  -0.265924

C          x =  0.753207  y = -0.798029  z =  0.720374 angstrom
           Maximum rank =  0   Radius =  0.650 angstrom
                   Q00  =   0.894086

O          x =  0.586207  y =  0.409971  z =  0.493374 angstrom
           Maximum rank =  0   Radius =  0.650 angstrom
                   Q00  =  -0.909646

O          x =  0.411207  y = -1.688029  z = -0.087626 angstrom
           Maximum rank =  0   Radius =  0.650 angstrom
                   Q00  =  -0.889238

H          x =  1.326207  y = -0.349029  z =  2.723374 angstrom
           Maximum rank =  0   Radius =  0.325 angstrom
                   Q00  =   0.071374

H          x =  2.494207  y = -1.318029  z =  1.825374 angstrom
           Maximum rank =  0   Radius =  0.325 angstrom
                   Q00  =   0.107665

H          x =  0.995167  y = -2.075649  z =  2.474321 angstrom
           Maximum rank =  0   Radius =  0.325 angstrom
                   Q00  =   0.089356

Total multipoles referred to origin at
           x =   0.000000,  y =    0.000000,  z =    0.000000 angstrom
                   Q00  =  -0.000000

Finished at 10:52:57 on 28 Apr 2020

  DMA results are available in the Python driver through the
	  variable('DMA DISTRIBUTED MULTIPOLES')
  and
	  variable('DMA TOTAL MULTIPOLES')
  commands.

    Psi4 stopped on: Tuesday, 28 April 2020 10:52AM
    Psi4 wall time for execution: 0:00:17.78

*** Psi4 exiting successfully. Buy a developer a beer!
