                               Psi4 1.3.2 release

  ==> Input File <==

--------------------------------------------------------------------------
import numpy as np
set {scf_type pk
basis cc-pvdz
d_convergence 10
gdma_switch   0
gdma_limit    0
gdma_origin   [ 0.0,  0.0,  0.0 ]
}
molecule test {
    units Angstrom
    0 1
    --
    0 1
    C               -1.681398701606993     3.206533136747985     1.227450716177585
    C                0.967601298393007     0.565533136747985     0.620450716177585
    C               -0.188398701606993     1.272533136747985     0.186450716177585
    C               -0.558398701606993     2.187533136747985     1.240450716177585
    C                0.351601298393007     1.996533136747985     2.237450716177585
    C                1.058601298393007    -0.670466863252015    -1.411549283822415
    C                1.596601298393007    -0.400466863252015    -0.162549283822415
    C               -0.084398701606993     0.006533136747985    -1.867549283822415
    C               -0.712398701606993     0.978533136747985    -1.080549283822416
    N                1.264601298393007     1.033533136747985     1.872450716177585
    H                1.517601298393007    -1.419466863252015    -2.044549283822415
    H                2.475601298393007    -0.916466863252015     0.195450716177584
    H               -0.526398701606993    -0.263466863252015    -2.814549283822415
    H               -1.612398701606993     1.465533136747985    -1.412549283822416
    H                2.043601298393007     0.737533136747985     2.452450716177585
    H                0.365601298393007     2.547533136747985     3.173450716177585
    H               -1.514398701606993     3.890533136747985     0.394450716177585
    H               -1.608398701606993     3.790533136747985     2.146450716177585
    H               -2.702068701606993     2.803843136747985     1.149490716177584
    C               -0.525398701606993    -3.910466863252015    -1.636549283822415
    C               -1.151398701606993    -5.202466863252015    -1.114549283822416
    H               -0.616398701606993    -3.113466863252015    -0.895549283822415
    H                0.532601298393007    -4.071466863252016    -1.830549283822415
    H               -0.986398701606993    -3.599466863252015    -2.574549283822415
    H               -1.206398701606993    -5.922466863252016    -1.929549283822415
    H               -2.168098701606993    -5.015536863252016    -0.738549283822416
    H               -0.522638701606993    -5.629566863252014    -0.319409283822415

}
e, wfn = energy('scf', return_wfn=True)
gdma(wfn)
dmavals = variable('DMA DISTRIBUTED MULTIPOLES')
charges = np.array(dmavals)
print(charges)
np.save('SSI-006TRP-038VAL-1-dimer.npy', np.array(charges))--------------------------------------------------------------------------

*** tstart() called on ds3
*** at Mon Apr 27 18:45:01 2020

   => Loading Basis Set <=

    Name: CC-PVDZ
    Role: ORBITAL
    Keyword: BASIS
    atoms 1-9, 20-21   entry C          line   138 file /theoryfs2/ds/metcalf/miniconda2/envs/tf2gpu/share/psi4/basis/cc-pvdz.gbs
    atoms 10           entry N          line   168 file /theoryfs2/ds/metcalf/miniconda2/envs/tf2gpu/share/psi4/basis/cc-pvdz.gbs
    atoms 11-19, 22-27 entry H          line    22 file /theoryfs2/ds/metcalf/miniconda2/envs/tf2gpu/share/psi4/basis/cc-pvdz.gbs

         ---------------------------------------------------------
                                   SCF
               by Justin Turney, Rob Parrish, Andy Simmonett
                          and Daniel G. A. Smith
                              RHF Reference
                        1 Threads,    500 MiB Core
         ---------------------------------------------------------

  ==> Geometry <==

    Molecular point group: c1
    Full point group: C1

    Geometry (in Angstrom), charge = 0, multiplicity = 1:

       Center              X                  Y                   Z               Mass
    ------------   -----------------  -----------------  -----------------  -----------------
         C           -1.681398701607     3.206533136748     1.227450716178    12.000000000000
         C            0.967601298393     0.565533136748     0.620450716178    12.000000000000
         C           -0.188398701607     1.272533136748     0.186450716178    12.000000000000
         C           -0.558398701607     2.187533136748     1.240450716178    12.000000000000
         C            0.351601298393     1.996533136748     2.237450716178    12.000000000000
         C            1.058601298393    -0.670466863252    -1.411549283822    12.000000000000
         C            1.596601298393    -0.400466863252    -0.162549283822    12.000000000000
         C           -0.084398701607     0.006533136748    -1.867549283822    12.000000000000
         C           -0.712398701607     0.978533136748    -1.080549283822    12.000000000000
         N            1.264601298393     1.033533136748     1.872450716178    14.003074004430
         H            1.517601298393    -1.419466863252    -2.044549283822     1.007825032230
         H            2.475601298393    -0.916466863252     0.195450716178     1.007825032230
         H           -0.526398701607    -0.263466863252    -2.814549283822     1.007825032230
         H           -1.612398701607     1.465533136748    -1.412549283822     1.007825032230
         H            2.043601298393     0.737533136748     2.452450716178     1.007825032230
         H            0.365601298393     2.547533136748     3.173450716178     1.007825032230
         H           -1.514398701607     3.890533136748     0.394450716178     1.007825032230
         H           -1.608398701607     3.790533136748     2.146450716178     1.007825032230
         H           -2.702068701607     2.803843136748     1.149490716178     1.007825032230
         C           -0.525398701607    -3.910466863252    -1.636549283822    12.000000000000
         C           -1.151398701607    -5.202466863252    -1.114549283822    12.000000000000
         H           -0.616398701607    -3.113466863252    -0.895549283822     1.007825032230
         H            0.532601298393    -4.071466863252    -1.830549283822     1.007825032230
         H           -0.986398701607    -3.599466863252    -2.574549283822     1.007825032230
         H           -1.206398701607    -5.922466863252    -1.929549283822     1.007825032230
         H           -2.168098701607    -5.015536863252    -0.738549283822     1.007825032230
         H           -0.522638701607    -5.629566863252    -0.319409283822     1.007825032230

  Running in c1 symmetry.

  Rotational constants: A =      0.05021  B =      0.01307  C =      0.01255 [cm^-1]
  Rotational constants: A =   1505.39768  B =    391.84589  C =    376.13293 [MHz]
  Nuclear repulsion =  639.468876988302782

  Charge       = 0
  Multiplicity = 1
  Electrons    = 88
  Nalpha       = 44
  Nbeta        = 44

  ==> Algorithm <==

  SCF Algorithm Type is PK.
  DIIS enabled.
  MOM disabled.
  Fractional occupation disabled.
  Guess Type is SAD.
  Energy threshold   = 1.00e-06
  Density threshold  = 1.00e-10
  Integral threshold = 0.00e+00

  ==> Primary Basis <==

  Basis Set: CC-PVDZ
    Blend: CC-PVDZ
    Number of shells: 117
    Number of basis function: 243
    Number of Cartesian functions: 255
    Spherical Harmonics?: true
    Max angular momentum: 2

  ==> Pre-Iterations <==

   -------------------------------------------------------
    Irrep   Nso     Nmo     Nalpha   Nbeta   Ndocc  Nsocc
   -------------------------------------------------------
     A        243     243       0       0       0       0
   -------------------------------------------------------
    Total     243     243      44      44      44       0
   -------------------------------------------------------

  ==> Integral Setup <==

  Using integral reordering PK algorithm.
  Sizing the integral batches needed.
  Building batch lookup table.
   Calculation information:
      Number of atoms:                  27
      Number of AO shells:             117
      Number of primitives:            339
      Number of atomic orbitals:       255
      Number of basis functions:       243

      Integral cutoff                 1.00e-12
      Number of threads:                 1

	Batch   1 pq = [       0,    9405] index = [             0,44231715] size =     44231715
	Batch   2 pq = [    9405,   13301] index = [      44231715,88464951] size =     44233236
	Batch   3 pq = [   13301,   16290] index = [      88464951,132690195] size =     44225244
	Batch   4 pq = [   16290,   18810] index = [     132690195,176917455] size =     44227260
	Batch   5 pq = [   18810,   21030] index = [     176917455,221140965] size =     44223510
	Batch   6 pq = [   21030,   23037] index = [     221140965,265363203] size =     44222238
	Batch   7 pq = [   23037,   24883] index = [     265363203,309594286] size =     44231083
	Batch   8 pq = [   24883,   26601] index = [     309594286,353819901] size =     44225615
	Batch   9 pq = [   26601,   28214] index = [     353819901,398029005] size =     44209104
	Batch  10 pq = [   28214,   29646] index = [     398029005,439457481] size =     41428476
  Task number: 40
  Buffer size: 11059200
  Buffer per thread: 2
  We computed 19041618 shell quartets total.
  Whereas there are 23829156 unique shell quartets.

  ==> DiskJK: Disk-Based J/K Matrices <==

    J tasked:                  Yes
    K tasked:                  Yes
    wK tasked:                  No
    Memory [MiB]:              375
    Schwarz Cutoff:          1E-12

    OpenMP threads:              1

  Minimum eigenvalue in the overlap matrix is 2.4857230382E-04.
  Using Symmetric Orthogonalization.

  SCF Guess: Superposition of Atomic Densities via on-the-fly atomic UHF.

  ==> Iterations <==

                        Total Energy        Delta E     RMS |[F,P]|

   @RHF iter SAD:  -478.93684945362338   -4.78937e+02   0.00000e+00
   @RHF iter   1:  -479.49254975443205   -5.55700e-01   2.58821e-03 DIIS
   @RHF iter   2:  -479.72317676702789   -2.30627e-01   1.14251e-03 DIIS
   @RHF iter   3:  -479.76405515481622   -4.08784e-02   2.99033e-04 DIIS
   @RHF iter   4:  -479.76778363235462   -3.72848e-03   1.37975e-04 DIIS
   @RHF iter   5:  -479.76841967513735   -6.36043e-04   1.99218e-05 DIIS
   @RHF iter   6:  -479.76844876104872   -2.90859e-05   9.07986e-06 DIIS
   @RHF iter   7:  -479.76845469768278   -5.93663e-06   3.83927e-06 DIIS
   @RHF iter   8:  -479.76845643156452   -1.73388e-06   1.52326e-06 DIIS
   @RHF iter   9:  -479.76845678437439   -3.52810e-07   6.71842e-07 DIIS
   @RHF iter  10:  -479.76845685350725   -6.91329e-08   3.13570e-07 DIIS
   @RHF iter  11:  -479.76845687049797   -1.69907e-08   1.15969e-07 DIIS
   @RHF iter  12:  -479.76845687276415   -2.26618e-09   3.94286e-08 DIIS
   @RHF iter  13:  -479.76845687292848   -1.64334e-10   1.11662e-08 DIIS
   @RHF iter  14:  -479.76845687294337   -1.48930e-11   5.02128e-09 DIIS
   @RHF iter  15:  -479.76845687294588   -2.50111e-12   2.31820e-09 DIIS
   @RHF iter  16:  -479.76845687294269    3.18323e-12   9.82398e-10 DIIS
   @RHF iter  17:  -479.76845687294633   -3.63798e-12   4.47825e-10 DIIS
   @RHF iter  18:  -479.76845687294531    1.02318e-12   1.65558e-10 DIIS
   @RHF iter  19:  -479.76845687294241    2.89901e-12   5.59918e-11 DIIS
  Energy and wave function converged.

  ==> Post-Iterations <==

    Orbital Energies [Eh]
    ---------------------

    Doubly Occupied:

       1A    -15.601365     2A    -11.265316     3A    -11.264804
       4A    -11.230862     5A    -11.230737     6A    -11.229449
       7A    -11.229309     8A    -11.221393     9A    -11.221122
      10A    -11.220378    11A    -11.213542    12A    -11.208453
      13A     -1.294252    14A     -1.125614    15A     -1.070027
      16A     -1.011547    17A     -0.994858    18A     -0.986500
      19A     -0.929922    20A     -0.839330    21A     -0.830405
      22A     -0.802052    23A     -0.752511    24A     -0.718775
      25A     -0.663224    26A     -0.640415    27A     -0.600698
      28A     -0.591578    29A     -0.590578    30A     -0.589811
      31A     -0.588391    32A     -0.565015    33A     -0.551822
      34A     -0.536552    35A     -0.528320    36A     -0.495279
      37A     -0.494749    38A     -0.479754    39A     -0.478561
      40A     -0.469786    41A     -0.457925    42A     -0.372081
      43A     -0.293417    44A     -0.275921

    Virtual:

      45A      0.125973    46A      0.168773    47A      0.178812
      48A      0.184077    49A      0.190569    50A      0.204494
      51A      0.222966    52A      0.227363    53A      0.230032
      54A      0.249183    55A      0.256750    56A      0.264593
      57A      0.277633    58A      0.281441    59A      0.283953
      60A      0.285331    61A      0.307858    62A      0.315138
      63A      0.375348    64A      0.379691    65A      0.403634
      66A      0.404087    67A      0.421298    68A      0.443835
      69A      0.472371    70A      0.481659    71A      0.496795
      72A      0.511382    73A      0.590909    74A      0.598657
      75A      0.602080    76A      0.607113    77A      0.616881
      78A      0.630378    79A      0.638060    80A      0.662709
      81A      0.677338    82A      0.687245    83A      0.705978
      84A      0.712401    85A      0.719222    86A      0.730035
      87A      0.733841    88A      0.743187    89A      0.745548
      90A      0.759471    91A      0.766482    92A      0.776914
      93A      0.789773    94A      0.801594    95A      0.807798
      96A      0.833283    97A      0.853120    98A      0.869377
      99A      0.881519   100A      0.882071   101A      0.888929
     102A      0.896479   103A      0.897492   104A      0.905195
     105A      0.905258   106A      0.919366   107A      0.923450
     108A      0.932025   109A      0.935173   110A      0.948112
     111A      0.953671   112A      0.968795   113A      0.982271
     114A      0.991690   115A      1.001264   116A      1.009807
     117A      1.066615   118A      1.068441   119A      1.087122
     120A      1.117884   121A      1.128563   122A      1.131303
     123A      1.132945   124A      1.142503   125A      1.165148
     126A      1.173892   127A      1.204839   128A      1.216742
     129A      1.224797   130A      1.232456   131A      1.243516
     132A      1.251267   133A      1.281031   134A      1.290283
     135A      1.306864   136A      1.328452   137A      1.336164
     138A      1.357234   139A      1.370886   140A      1.398013
     141A      1.443691   142A      1.482035   143A      1.489430
     144A      1.516726   145A      1.542835   146A      1.575663
     147A      1.585128   148A      1.594309   149A      1.632346
     150A      1.645466   151A      1.658775   152A      1.683274
     153A      1.687447   154A      1.693240   155A      1.702503
     156A      1.738397   157A      1.765302   158A      1.776708
     159A      1.783852   160A      1.807464   161A      1.819804
     162A      1.825901   163A      1.875523   164A      1.878671
     165A      1.878972   166A      1.891484   167A      1.905635
     168A      1.914026   169A      1.915046   170A      1.917931
     171A      1.924999   172A      1.942049   173A      1.943099
     174A      1.949861   175A      1.957564   176A      1.963280
     177A      1.972586   178A      1.975312   179A      1.996731
     180A      2.000781   181A      2.010174   182A      2.025815
     183A      2.041401   184A      2.076004   185A      2.081062
     186A      2.085045   187A      2.100984   188A      2.103143
     189A      2.116657   190A      2.123175   191A      2.127838
     192A      2.135468   193A      2.144081   194A      2.164802
     195A      2.183816   196A      2.221908   197A      2.234436
     198A      2.288670   199A      2.297734   200A      2.314677
     201A      2.320284   202A      2.329054   203A      2.336333
     204A      2.348309   205A      2.388450   206A      2.416802
     207A      2.448023   208A      2.452271   209A      2.461530
     210A      2.467500   211A      2.526195   212A      2.571635
     213A      2.577925   214A      2.586098   215A      2.597023
     216A      2.632850   217A      2.647538   218A      2.670628
     219A      2.691905   220A      2.764174   221A      2.769873
     222A      2.777350   223A      2.786598   224A      2.790370
     225A      2.802817   226A      2.817449   227A      2.857263
     228A      2.861653   229A      2.873913   230A      2.876555
     231A      2.902452   232A      2.949674   233A      2.963315
     234A      2.964860   235A      3.025261   236A      3.049850
     237A      3.069018   238A      3.115848   239A      3.196801
     240A      3.294357   241A      3.372179   242A      3.733087
     243A      3.939021

    Final Occupation by Irrep:
              A
    DOCC [    44 ]

  @RHF Final Energy:  -479.76845687294241

   => Energetics <=

    Nuclear Repulsion Energy =            639.4688769883027817
    One-Electron Energy =               -1916.9618694251005309
    Two-Electron Energy =                 797.7245355638553974
    Total Energy =                       -479.7684568729423518

Computation Completed

Properties will be evaluated at   0.000000,   0.000000,   0.000000 [a0]

Properties computed using the SCF density matrix

  Nuclear Dipole Moment: [e a0]
     X:    -6.1240      Y:   -13.7987      Z:    -4.7378

  Electronic Dipole Moment: [e a0]
     X:     6.5293      Y:    13.9371      Z:     5.4456

  Dipole Moment: [e a0]
     X:     0.4052      Y:     0.1384      Z:     0.7078     Total:     0.8272

  Dipole Moment: [D]
     X:     1.0300      Y:     0.3518      Z:     1.7990     Total:     2.1026

*** tstop() called on ds3 at Mon Apr 27 18:53:08 2020
Module time:
	user time   =     154.49 seconds =       2.57 minutes
	system time =      66.84 seconds =       1.11 minutes
	total time  =        487 seconds =       8.12 minutes
Total time:
	user time   =     154.49 seconds =       2.57 minutes
	system time =      66.84 seconds =       1.11 minutes
	total time  =        487 seconds =       8.12 minutes
                                     G D M A

                                 by Anthony Stone

                           version 2.2.06, 22 June 2011

               Distributed Multipoles from Gaussian wavefunctions

Starting at 18:53:8 on 27 Apr 2020

Using SCF density matrix from file ./SSI/SSI-006TRP-038VAL-1-dimer.test.29025.fchk

                         Distributed Multipole Analysis

Standard DMA

Positions and radii in angstrom
Multipole moments in atomic units, ea_0^k for rank k

C          x = -1.681399  y =  3.206533  z =  1.227451 angstrom
           Maximum rank =  0   Radius =  0.650 angstrom
                   Q00  =  -0.206273

C          x =  0.967601  y =  0.565533  z =  0.620451 angstrom
           Maximum rank =  0   Radius =  0.650 angstrom
                   Q00  =   0.292197

C          x = -0.188399  y =  1.272533  z =  0.186451 angstrom
           Maximum rank =  0   Radius =  0.650 angstrom
                   Q00  =  -0.059855

C          x = -0.558399  y =  2.187533  z =  1.240451 angstrom
           Maximum rank =  0   Radius =  0.650 angstrom
                   Q00  =  -0.125466

C          x =  0.351601  y =  1.996533  z =  2.237451 angstrom
           Maximum rank =  0   Radius =  0.650 angstrom
                   Q00  =   0.072732

C          x =  1.058601  y = -0.670467  z = -1.411549 angstrom
           Maximum rank =  0   Radius =  0.650 angstrom
                   Q00  =  -0.073384

C          x =  1.596601  y = -0.400467  z = -0.162549 angstrom
           Maximum rank =  0   Radius =  0.650 angstrom
                   Q00  =  -0.121964

C          x = -0.084399  y =  0.006533  z = -1.867549 angstrom
           Maximum rank =  0   Radius =  0.650 angstrom
                   Q00  =  -0.083977

C          x = -0.712399  y =  0.978533  z = -1.080549 angstrom
           Maximum rank =  0   Radius =  0.650 angstrom
                   Q00  =  -0.089498

N          x =  1.264601  y =  1.033533  z =  1.872451 angstrom
           Maximum rank =  0   Radius =  0.650 angstrom
                   Q00  =  -0.496636

H          x =  1.517601  y = -1.419467  z = -2.044549 angstrom
           Maximum rank =  0   Radius =  0.325 angstrom
                   Q00  =   0.067090

H          x =  2.475601  y = -0.916467  z =  0.195451 angstrom
           Maximum rank =  0   Radius =  0.325 angstrom
                   Q00  =   0.072862

H          x = -0.526399  y = -0.263467  z = -2.814549 angstrom
           Maximum rank =  0   Radius =  0.325 angstrom
                   Q00  =   0.061772

H          x = -1.612399  y =  1.465533  z = -1.412549 angstrom
           Maximum rank =  0   Radius =  0.325 angstrom
                   Q00  =   0.071438

H          x =  2.043601  y =  0.737533  z =  2.452451 angstrom
           Maximum rank =  0   Radius =  0.325 angstrom
                   Q00  =   0.216522

H          x =  0.365601  y =  2.547533  z =  3.173451 angstrom
           Maximum rank =  0   Radius =  0.325 angstrom
                   Q00  =   0.101636

H          x = -1.514399  y =  3.890533  z =  0.394451 angstrom
           Maximum rank =  0   Radius =  0.325 angstrom
                   Q00  =   0.099296

H          x = -1.608399  y =  3.790533  z =  2.146451 angstrom
           Maximum rank =  0   Radius =  0.325 angstrom
                   Q00  =   0.102163

H          x = -2.702069  y =  2.803843  z =  1.149491 angstrom
           Maximum rank =  0   Radius =  0.325 angstrom
                   Q00  =   0.099418

C          x = -0.525399  y = -3.910467  z = -1.636549 angstrom
           Maximum rank =  0   Radius =  0.650 angstrom
                   Q00  =  -0.241996

C          x = -1.151399  y = -5.202467  z = -1.114549 angstrom
           Maximum rank =  0   Radius =  0.650 angstrom
                   Q00  =  -0.229923

H          x = -0.616399  y = -3.113467  z = -0.895549 angstrom
           Maximum rank =  0   Radius =  0.325 angstrom
                   Q00  =   0.093551

H          x =  0.532601  y = -4.071467  z = -1.830549 angstrom
           Maximum rank =  0   Radius =  0.325 angstrom
                   Q00  =   0.070503

H          x = -0.986399  y = -3.599467  z = -2.574549 angstrom
           Maximum rank =  0   Radius =  0.325 angstrom
                   Q00  =   0.076117

H          x = -1.206399  y = -5.922467  z = -1.929549 angstrom
           Maximum rank =  0   Radius =  0.325 angstrom
                   Q00  =   0.075353

H          x = -2.168099  y = -5.015537  z = -0.738549 angstrom
           Maximum rank =  0   Radius =  0.325 angstrom
                   Q00  =   0.079522

H          x = -0.522639  y = -5.629567  z = -0.319409 angstrom
           Maximum rank =  0   Radius =  0.325 angstrom
                   Q00  =   0.076803

Total multipoles referred to origin at
           x =   0.000000,  y =    0.000000,  z =    0.000000 angstrom
                   Q00  =  -0.000000

Finished at 18:53:8 on 27 Apr 2020

  DMA results are available in the Python driver through the
	  variable('DMA DISTRIBUTED MULTIPOLES')
  and
	  variable('DMA TOTAL MULTIPOLES')
  commands.

    Psi4 stopped on: Monday, 27 April 2020 06:53PM
    Psi4 wall time for execution: 0:08:06.98

*** Psi4 exiting successfully. Buy a developer a beer!
