                               Psi4 1.3.2 release

  ==> Input File <==

--------------------------------------------------------------------------
import numpy as np
set {scf_type pk
basis cc-pvdz
d_convergence 10
gdma_switch   0
gdma_limit    0
gdma_origin   [ 0.0,  0.0,  0.0 ]
}
molecule test {
    units Angstrom
    0 1
    --
    0 1
    C                2.151042491555677     0.110375126749795     0.416393294844941
    C                2.444042491555677     1.071375126749796    -0.717606705155059
    H                2.267042491555677    -0.932624873250205     0.130393294844941
    H                2.831042491555677     0.309375126749795     1.242393294844941
    H                1.144042491555677     0.263375126749795     0.786393294844941
    H                3.494042491555677     0.996375126749795    -0.995606705155059
    H                1.805882491555677     0.797365126749795    -1.570644705155059
    H                2.238012491555677     2.098615126749795    -0.382447705155059
    C               -1.543957508444323    -0.708624873250205    -0.035606705155059
    C               -3.052957508444323    -0.478624873250205     0.327393294844941
    H               -1.375957508444323    -0.500624873250205    -1.091606705155059
    H               -0.944957508444323    -0.021624873250205     0.556393294844941
    H               -1.245957508444323    -1.730624873250205     0.176393294844941
    H               -3.306957508444323     0.550375126749795     0.070393294844941
    H               -3.714377508444323    -1.163054873250204    -0.224033705155059
    H               -3.170067508444323    -0.601444873250204     1.414223294844941

}
e, wfn = energy('scf', return_wfn=True)
gdma(wfn)
dmavals = variable('DMA DISTRIBUTED MULTIPOLES')
charges = np.array(dmavals)
print(charges)
np.save('SSI-261VAL-266VAL-1-dimer.npy', np.array(charges))--------------------------------------------------------------------------

*** tstart() called on ds3
*** at Mon Apr 27 06:44:41 2020

   => Loading Basis Set <=

    Name: CC-PVDZ
    Role: ORBITAL
    Keyword: BASIS
    atoms 1-2, 9-10  entry C          line   138 file /theoryfs2/ds/metcalf/miniconda2/envs/tf2gpu/share/psi4/basis/cc-pvdz.gbs
    atoms 3-8, 11-16 entry H          line    22 file /theoryfs2/ds/metcalf/miniconda2/envs/tf2gpu/share/psi4/basis/cc-pvdz.gbs

         ---------------------------------------------------------
                                   SCF
               by Justin Turney, Rob Parrish, Andy Simmonett
                          and Daniel G. A. Smith
                              RHF Reference
                        1 Threads,    500 MiB Core
         ---------------------------------------------------------

  ==> Geometry <==

    Molecular point group: c1
    Full point group: C1

    Geometry (in Angstrom), charge = 0, multiplicity = 1:

       Center              X                  Y                   Z               Mass
    ------------   -----------------  -----------------  -----------------  -----------------
         C            2.151042491556     0.110375126750     0.416393294845    12.000000000000
         C            2.444042491556     1.071375126750    -0.717606705155    12.000000000000
         H            2.267042491556    -0.932624873250     0.130393294845     1.007825032230
         H            2.831042491556     0.309375126750     1.242393294845     1.007825032230
         H            1.144042491556     0.263375126750     0.786393294845     1.007825032230
         H            3.494042491556     0.996375126750    -0.995606705155     1.007825032230
         H            1.805882491556     0.797365126750    -1.570644705155     1.007825032230
         H            2.238012491556     2.098615126750    -0.382447705155     1.007825032230
         C           -1.543957508444    -0.708624873250    -0.035606705155    12.000000000000
         C           -3.052957508444    -0.478624873250     0.327393294845    12.000000000000
         H           -1.375957508444    -0.500624873250    -1.091606705155     1.007825032230
         H           -0.944957508444    -0.021624873250     0.556393294845     1.007825032230
         H           -1.245957508444    -1.730624873250     0.176393294845     1.007825032230
         H           -3.306957508444     0.550375126750     0.070393294845     1.007825032230
         H           -3.714377508444    -1.163054873250    -0.224033705155     1.007825032230
         H           -3.170067508444    -0.601444873250     1.414223294845     1.007825032230

  Running in c1 symmetry.

  Rotational constants: A =      0.53460  B =      0.04502  C =      0.04357 [cm^-1]
  Rotational constants: A =  16026.82814  B =   1349.81400  C =   1306.18478 [MHz]
  Nuclear repulsion =  120.884244222986865

  Charge       = 0
  Multiplicity = 1
  Electrons    = 36
  Nalpha       = 18
  Nbeta        = 18

  ==> Algorithm <==

  SCF Algorithm Type is PK.
  DIIS enabled.
  MOM disabled.
  Fractional occupation disabled.
  Guess Type is SAD.
  Energy threshold   = 1.00e-06
  Density threshold  = 1.00e-10
  Integral threshold = 0.00e+00

  ==> Primary Basis <==

  Basis Set: CC-PVDZ
    Blend: CC-PVDZ
    Number of shells: 60
    Number of basis function: 116
    Number of Cartesian functions: 120
    Spherical Harmonics?: true
    Max angular momentum: 2

  ==> Pre-Iterations <==

   -------------------------------------------------------
    Irrep   Nso     Nmo     Nalpha   Nbeta   Ndocc  Nsocc
   -------------------------------------------------------
     A        116     116       0       0       0       0
   -------------------------------------------------------
    Total     116     116      18      18      18       0
   -------------------------------------------------------

  ==> Integral Setup <==

  Using integral reordering PK algorithm.
  Sizing the integral batches needed.
  Building batch lookup table.
   Calculation information:
      Number of atoms:                  16
      Number of AO shells:              60
      Number of primitives:            148
      Number of atomic orbitals:       120
      Number of basis functions:       116

      Integral cutoff                 1.00e-12
      Number of threads:                 1

	Batch   1 pq = [       0,    6786] index = [             0,23028291] size =     23028291
  Task number: 3
  Buffer size: 11059200
  Buffer per thread: 2
  We computed 1388109 shell quartets total.
  Whereas there are 1675365 unique shell quartets.

  ==> DiskJK: Disk-Based J/K Matrices <==

    J tasked:                  Yes
    K tasked:                  Yes
    wK tasked:                  No
    Memory [MiB]:              375
    Schwarz Cutoff:          1E-12

    OpenMP threads:              1

  Minimum eigenvalue in the overlap matrix is 7.2429242798E-03.
  Using Symmetric Orthogonalization.

  SCF Guess: Superposition of Atomic Densities via on-the-fly atomic UHF.

  ==> Iterations <==

                        Total Energy        Delta E     RMS |[F,P]|

   @RHF iter SAD:  -157.32118783197677   -1.57321e+02   0.00000e+00
   @RHF iter   1:  -158.30804108206735   -9.86853e-01   4.17893e-03 DIIS
   @RHF iter   2:  -158.43986845669497   -1.31827e-01   1.76531e-03 DIIS
   @RHF iter   3:  -158.46254443785392   -2.26760e-02   3.46980e-04 DIIS
   @RHF iter   4:  -158.46433777497830   -1.79334e-03   3.86098e-05 DIIS
   @RHF iter   5:  -158.46436096874788   -2.31938e-05   7.23452e-06 DIIS
   @RHF iter   6:  -158.46436167022608   -7.01478e-07   1.69389e-06 DIIS
   @RHF iter   7:  -158.46436169690310   -2.66770e-08   3.21908e-07 DIIS
   @RHF iter   8:  -158.46436169806523   -1.16214e-09   4.34309e-08 DIIS
   @RHF iter   9:  -158.46436169809434   -2.91038e-11   1.00075e-08 DIIS
   @RHF iter  10:  -158.46436169809598   -1.64846e-12   2.88773e-09 DIIS
   @RHF iter  11:  -158.46436169809610   -1.13687e-13   7.47426e-10 DIIS
   @RHF iter  12:  -158.46436169809584    2.55795e-13   1.57902e-10 DIIS
   @RHF iter  13:  -158.46436169809567    1.70530e-13   2.75535e-11 DIIS
  Energy and wave function converged.

  ==> Post-Iterations <==

    Orbital Energies [Eh]
    ---------------------

    Doubly Occupied:

       1A    -11.222561     2A    -11.219108     3A    -11.218096
       4A    -11.212440     5A     -1.021512     6A     -1.009562
       7A     -0.841242     8A     -0.834481     9A     -0.603662
      10A     -0.599474    11A     -0.593933    12A     -0.592786
      13A     -0.505093    14A     -0.496148    15A     -0.490301
      16A     -0.488679    17A     -0.483393    18A     -0.476800

    Virtual:

      19A      0.172539    20A      0.195544    21A      0.229875
      22A      0.231187    23A      0.244887    24A      0.260805
      25A      0.266658    26A      0.275142    27A      0.278060
      28A      0.283088    29A      0.308862    30A      0.377977
      31A      0.381856    32A      0.412549    33A      0.573446
      34A      0.587849    35A      0.593110    36A      0.600341
      37A      0.604670    38A      0.635921    39A      0.677931
      40A      0.687784    41A      0.696554    42A      0.751372
      43A      0.847220    44A      0.856125    45A      0.882099
      46A      0.890834    47A      0.892585    48A      0.894031
      49A      0.898470    50A      0.908927    51A      0.916758
      52A      0.930914    53A      0.941410    54A      0.947133
      55A      0.987040    56A      1.001253    57A      1.121099
      58A      1.123005    59A      1.125861    60A      1.143830
      61A      1.222041    62A      1.283677    63A      1.462265
      64A      1.468453    65A      1.475705    66A      1.495991
      67A      1.570868    68A      1.588150    69A      1.676935
      70A      1.677988    71A      1.692271    72A      1.706422
      73A      1.843954    74A      1.855672    75A      1.861326
      76A      1.878087    77A      1.899678    78A      1.906050
      79A      1.925803    80A      1.936712    81A      1.938449
      82A      1.944996    83A      1.947345    84A      1.953047
      85A      1.961395    86A      1.970679    87A      1.987310
      88A      2.030398    89A      2.096113    90A      2.102259
      91A      2.111953    92A      2.130785    93A      2.282357
      94A      2.287642    95A      2.307052    96A      2.337221
      97A      2.445027    98A      2.454526    99A      2.462784
     100A      2.476337   101A      2.557320   102A      2.564651
     103A      2.572357   104A      2.588024   105A      2.761464
     106A      2.767513   107A      2.792025   108A      2.796502
     109A      2.828003   110A      2.846552   111A      2.852678
     112A      2.868356   113A      2.939225   114A      2.951193
     115A      2.964735   116A      2.979815

    Final Occupation by Irrep:
              A
    DOCC [    18 ]

  @RHF Final Energy:  -158.46436169809567

   => Energetics <=

    Nuclear Repulsion Energy =            120.8842442229868652
    One-Electron Energy =                -450.8786700219574755
    Two-Electron Energy =                 171.5300641008749380
    Total Energy =                       -158.4643616980956722

Computation Completed

Properties will be evaluated at   0.000000,   0.000000,   0.000000 [a0]

Properties computed using the SCF density matrix

  Nuclear Dipole Moment: [e a0]
     X:     0.0204      Y:     0.0614      Z:     0.1052

  Electronic Dipole Moment: [e a0]
     X:    -0.0180      Y:    -0.0595      Z:    -0.0933

  Dipole Moment: [e a0]
     X:     0.0024      Y:     0.0019      Z:     0.0120     Total:     0.0124

  Dipole Moment: [D]
     X:     0.0061      Y:     0.0048      Z:     0.0304     Total:     0.0314

*** tstop() called on ds3 at Mon Apr 27 06:44:52 2020
Module time:
	user time   =       7.36 seconds =       0.12 minutes
	system time =       3.19 seconds =       0.05 minutes
	total time  =         11 seconds =       0.18 minutes
Total time:
	user time   =       7.36 seconds =       0.12 minutes
	system time =       3.19 seconds =       0.05 minutes
	total time  =         11 seconds =       0.18 minutes
                                     G D M A

                                 by Anthony Stone

                           version 2.2.06, 22 June 2011

               Distributed Multipoles from Gaussian wavefunctions

Starting at 6:44:52 on 27 Apr 2020

Using SCF density matrix from file ./SSI/SSI-261VAL-266VAL-1-dimer.test.4814.fchk

                         Distributed Multipole Analysis

Standard DMA

Positions and radii in angstrom
Multipole moments in atomic units, ea_0^k for rank k

C          x =  2.151042  y =  0.110375  z =  0.416393 angstrom
           Maximum rank =  0   Radius =  0.650 angstrom
                   Q00  =  -0.249815

C          x =  2.444042  y =  1.071375  z = -0.717607 angstrom
           Maximum rank =  0   Radius =  0.650 angstrom
                   Q00  =  -0.217767

H          x =  2.267042  y = -0.932625  z =  0.130393 angstrom
           Maximum rank =  0   Radius =  0.325 angstrom
                   Q00  =   0.079701

H          x =  2.831042  y =  0.309375  z =  1.242393 angstrom
           Maximum rank =  0   Radius =  0.325 angstrom
                   Q00  =   0.072707

H          x =  1.144042  y =  0.263375  z =  0.786393 angstrom
           Maximum rank =  0   Radius =  0.325 angstrom
                   Q00  =   0.080522

H          x =  3.494042  y =  0.996375  z = -0.995607 angstrom
           Maximum rank =  0   Radius =  0.325 angstrom
                   Q00  =   0.079540

H          x =  1.805882  y =  0.797365  z = -1.570645 angstrom
           Maximum rank =  0   Radius =  0.325 angstrom
                   Q00  =   0.076420

H          x =  2.238012  y =  2.098615  z = -0.382448 angstrom
           Maximum rank =  0   Radius =  0.325 angstrom
                   Q00  =   0.077477

C          x = -1.543958  y = -0.708625  z = -0.035607 angstrom
           Maximum rank =  0   Radius =  0.650 angstrom
                   Q00  =  -0.250681

C          x = -3.052958  y = -0.478625  z =  0.327393 angstrom
           Maximum rank =  0   Radius =  0.650 angstrom
                   Q00  =  -0.242742

H          x = -1.375958  y = -0.500625  z = -1.091607 angstrom
           Maximum rank =  0   Radius =  0.325 angstrom
                   Q00  =   0.082116

H          x = -0.944958  y = -0.021625  z =  0.556393 angstrom
           Maximum rank =  0   Radius =  0.325 angstrom
                   Q00  =   0.080558

H          x = -1.245958  y = -1.730625  z =  0.176393 angstrom
           Maximum rank =  0   Radius =  0.325 angstrom
                   Q00  =   0.084555

H          x = -3.306958  y =  0.550375  z =  0.070393 angstrom
           Maximum rank =  0   Radius =  0.325 angstrom
                   Q00  =   0.081629

H          x = -3.714378  y = -1.163055  z = -0.224034 angstrom
           Maximum rank =  0   Radius =  0.325 angstrom
                   Q00  =   0.084683

H          x = -3.170068  y = -0.601445  z =  1.414223 angstrom
           Maximum rank =  0   Radius =  0.325 angstrom
                   Q00  =   0.081098

Total multipoles referred to origin at
           x =   0.000000,  y =    0.000000,  z =    0.000000 angstrom
                   Q00  =  -0.000000

Finished at 6:44:52 on 27 Apr 2020

  DMA results are available in the Python driver through the
	  variable('DMA DISTRIBUTED MULTIPOLES')
  and
	  variable('DMA TOTAL MULTIPOLES')
  commands.

    Psi4 stopped on: Monday, 27 April 2020 06:44AM
    Psi4 wall time for execution: 0:00:10.60

*** Psi4 exiting successfully. Buy a developer a beer!
