                               Psi4 1.3.2 release

  ==> Input File <==

--------------------------------------------------------------------------
import numpy as np
set {scf_type pk
basis cc-pvdz
d_convergence 10
gdma_switch   0
gdma_limit    0
gdma_origin   [ 0.0,  0.0,  0.0 ]
}
molecule test {
    units Angstrom
    0 1
    --
    0 1
    C               -3.431880454711836     0.242016417032467    -0.511572755204433
    C               -2.272880454711837     1.216016417032467    -0.347572755204433
    O               -1.123880454711836     0.894016417032467    -0.743572755204433
    O               -2.514880454711837     2.300016417032467     0.226427244795567
    H               -4.309880454711836     0.751016417032467    -0.913572755204433
    H               -3.689880454711836    -0.135983582967533     0.479427244795567
    H               -3.170730454711836    -0.612133582967533    -1.153622755204433
    C                1.004119545288163    -1.742983582967533    -1.338572755204433
    C                2.071119545288164    -0.735983582967533     0.669427244795567
    N                1.047119545288164     0.070016417032467     0.884427244795567
    N                2.076119545288164    -1.589983582967533    -0.344572755204433
    N                3.118119545288163    -0.682983582967533     1.469427244795567
    H                0.301119545288164     0.164016417032467     0.190427244795567
    H                1.058119545288164     0.713016417032467     1.657427244795567
    H                2.899119545288163    -2.166983582967533    -0.449572755204433
    H                3.915119545288164    -1.286983582967533     1.295427244795567
    H                3.151119545288164    -0.034983582967533     2.238427244795567
    H                1.362119545288164    -1.345983582967533    -2.289572755204433
    H                0.115119545288164    -1.181983582967533    -1.067572755204433
    H                0.708073545288164    -2.789973582967533    -1.500312755204433

}
e, wfn = energy('scf', return_wfn=True)
gdma(wfn)
dmavals = variable('DMA DISTRIBUTED MULTIPOLES')
charges = np.array(dmavals)
print(charges)
np.save('SSI-066ASP-069ARG-2-dimer.npy', np.array(charges))--------------------------------------------------------------------------

*** tstart() called on ds3
*** at Tue Apr 28 13:55:23 2020

   => Loading Basis Set <=

    Name: CC-PVDZ
    Role: ORBITAL
    Keyword: BASIS
    atoms 1-2, 8-9   entry C          line   138 file /theoryfs2/ds/metcalf/miniconda2/envs/tf2gpu/share/psi4/basis/cc-pvdz.gbs
    atoms 3-4        entry O          line   198 file /theoryfs2/ds/metcalf/miniconda2/envs/tf2gpu/share/psi4/basis/cc-pvdz.gbs
    atoms 5-7, 13-20 entry H          line    22 file /theoryfs2/ds/metcalf/miniconda2/envs/tf2gpu/share/psi4/basis/cc-pvdz.gbs
    atoms 10-12      entry N          line   168 file /theoryfs2/ds/metcalf/miniconda2/envs/tf2gpu/share/psi4/basis/cc-pvdz.gbs

         ---------------------------------------------------------
                                   SCF
               by Justin Turney, Rob Parrish, Andy Simmonett
                          and Daniel G. A. Smith
                              RHF Reference
                        1 Threads,    500 MiB Core
         ---------------------------------------------------------

  ==> Geometry <==

    Molecular point group: c1
    Full point group: C1

    Geometry (in Angstrom), charge = 0, multiplicity = 1:

       Center              X                  Y                   Z               Mass
    ------------   -----------------  -----------------  -----------------  -----------------
         C           -3.431880454712     0.242016417032    -0.511572755204    12.000000000000
         C           -2.272880454712     1.216016417032    -0.347572755204    12.000000000000
         O           -1.123880454712     0.894016417032    -0.743572755204    15.994914619570
         O           -2.514880454712     2.300016417032     0.226427244796    15.994914619570
         H           -4.309880454712     0.751016417032    -0.913572755204     1.007825032230
         H           -3.689880454712    -0.135983582968     0.479427244796     1.007825032230
         H           -3.170730454712    -0.612133582968    -1.153622755204     1.007825032230
         C            1.004119545288    -1.742983582968    -1.338572755204    12.000000000000
         C            2.071119545288    -0.735983582968     0.669427244796    12.000000000000
         N            1.047119545288     0.070016417032     0.884427244796    14.003074004430
         N            2.076119545288    -1.589983582968    -0.344572755204    14.003074004430
         N            3.118119545288    -0.682983582968     1.469427244796    14.003074004430
         H            0.301119545288     0.164016417032     0.190427244796     1.007825032230
         H            1.058119545288     0.713016417032     1.657427244796     1.007825032230
         H            2.899119545288    -2.166983582968    -0.449572755204     1.007825032230
         H            3.915119545288    -1.286983582968     1.295427244796     1.007825032230
         H            3.151119545288    -0.034983582968     2.238427244796     1.007825032230
         H            1.362119545288    -1.345983582968    -2.289572755204     1.007825032230
         H            0.115119545288    -1.181983582968    -1.067572755204     1.007825032230
         H            0.708073545288    -2.789973582968    -1.500312755204     1.007825032230

  Running in c1 symmetry.

  Rotational constants: A =      0.09486  B =      0.01980  C =      0.01719 [cm^-1]
  Rotational constants: A =   2843.90484  B =    593.52913  C =    515.40413 [MHz]
  Nuclear repulsion =  448.617304656866168

  Charge       = 0
  Multiplicity = 1
  Electrons    = 72
  Nalpha       = 36
  Nbeta        = 36

  ==> Algorithm <==

  SCF Algorithm Type is PK.
  DIIS enabled.
  MOM disabled.
  Fractional occupation disabled.
  Guess Type is SAD.
  Energy threshold   = 1.00e-06
  Density threshold  = 1.00e-10
  Integral threshold = 0.00e+00

  ==> Primary Basis <==

  Basis Set: CC-PVDZ
    Blend: CC-PVDZ
    Number of shells: 87
    Number of basis function: 181
    Number of Cartesian functions: 190
    Spherical Harmonics?: true
    Max angular momentum: 2

  ==> Pre-Iterations <==

   -------------------------------------------------------
    Irrep   Nso     Nmo     Nalpha   Nbeta   Ndocc  Nsocc
   -------------------------------------------------------
     A        181     181       0       0       0       0
   -------------------------------------------------------
    Total     181     181      36      36      36       0
   -------------------------------------------------------

  ==> Integral Setup <==

  Using integral reordering PK algorithm.
  Sizing the integral batches needed.
  Building batch lookup table.
   Calculation information:
      Number of atoms:                  20
      Number of AO shells:              87
      Number of primitives:            253
      Number of atomic orbitals:       190
      Number of basis functions:       181

      Integral cutoff                 1.00e-12
      Number of threads:                 1

	Batch   1 pq = [       0,    9405] index = [             0,44231715] size =     44231715
	Batch   2 pq = [    9405,   13301] index = [      44231715,88464951] size =     44233236
	Batch   3 pq = [   13301,   16471] index = [      88464951,135655156] size =     47190205
  Task number: 13
  Buffer size: 11059200
  Buffer per thread: 2
  We computed 5618821 shell quartets total.
  Whereas there are 7328706 unique shell quartets.

  ==> DiskJK: Disk-Based J/K Matrices <==

    J tasked:                  Yes
    K tasked:                  Yes
    wK tasked:                  No
    Memory [MiB]:              375
    Schwarz Cutoff:          1E-12

    OpenMP threads:              1

  Minimum eigenvalue in the overlap matrix is 3.8495792832E-03.
  Using Symmetric Orthogonalization.

  SCF Guess: Superposition of Atomic Densities via on-the-fly atomic UHF.

  ==> Iterations <==

                        Total Energy        Delta E     RMS |[F,P]|

   @RHF iter SAD:  -469.65370323758640   -4.69654e+02   0.00000e+00
   @RHF iter   1:  -470.67222011399031   -1.01852e+00   4.28838e-03 DIIS
   @RHF iter   2:  -470.90370271776158   -2.31483e-01   2.28148e-03 DIIS
   @RHF iter   3:  -470.96544598593835   -6.17433e-02   4.04817e-04 DIIS
   @RHF iter   4:  -470.96890487127359   -3.45889e-03   1.46162e-04 DIIS
   @RHF iter   5:  -470.96933974431511   -4.34873e-04   2.93040e-05 DIIS
   @RHF iter   6:  -470.96936528097694   -2.55367e-05   1.52731e-05 DIIS
   @RHF iter   7:  -470.96936999997320   -4.71900e-06   3.97917e-06 DIIS
   @RHF iter   8:  -470.96937077144935   -7.71476e-07   1.94366e-06 DIIS
   @RHF iter   9:  -470.96937090665642   -1.35207e-07   6.90574e-07 DIIS
   @RHF iter  10:  -470.96937093266371   -2.60073e-08   2.22252e-07 DIIS
   @RHF iter  11:  -470.96937093491772   -2.25401e-09   6.05968e-08 DIIS
   @RHF iter  12:  -470.96937093502817   -1.10447e-10   1.92579e-08 DIIS
   @RHF iter  13:  -470.96937093504027   -1.21076e-11   4.78079e-09 DIIS
   @RHF iter  14:  -470.96937093503914    1.13687e-12   1.39015e-09 DIIS
   @RHF iter  15:  -470.96937093503959   -4.54747e-13   5.90640e-10 DIIS
   @RHF iter  16:  -470.96937093504062   -1.02318e-12   2.47485e-10 DIIS
   @RHF iter  17:  -470.96937093504226   -1.64846e-12   1.13314e-10 DIIS
   @RHF iter  18:  -470.96937093504096    1.30740e-12   4.21380e-11 DIIS
  Energy and wave function converged.

  ==> Post-Iterations <==

    Orbital Energies [Eh]
    ---------------------

    Doubly Occupied:

       1A    -20.408510     2A    -20.384099     3A    -15.670725
       4A    -15.661434     5A    -15.628676     6A    -11.456925
       7A    -11.305380     8A    -11.247669     9A    -11.160101
      10A     -1.414194    11A     -1.284025    12A     -1.276394
      13A     -1.248169    14A     -1.169908    15A     -1.010890
      16A     -0.908747    17A     -0.902348    18A     -0.844554
      19A     -0.815640    20A     -0.729483    21A     -0.708939
      22A     -0.692553    23A     -0.667441    24A     -0.625590
      25A     -0.611949    26A     -0.587893    27A     -0.534769
      28A     -0.525320    29A     -0.523911    30A     -0.482649
      31A     -0.465185    32A     -0.452653    33A     -0.431949
      34A     -0.321728    35A     -0.300092    36A     -0.298025

    Virtual:

      37A      0.099072    38A      0.139906    39A      0.159364
      40A      0.164216    41A      0.199232    42A      0.216503
      43A      0.236496    44A      0.249227    45A      0.281361
      46A      0.295700    47A      0.307252    48A      0.336544
      49A      0.366082    50A      0.394544    51A      0.407143
      52A      0.460196    53A      0.467517    54A      0.474823
      55A      0.550540    56A      0.571199    57A      0.601311
      58A      0.616487    59A      0.644537    60A      0.659972
      61A      0.669108    62A      0.679067    63A      0.686094
      64A      0.705546    65A      0.716374    66A      0.766737
      67A      0.790940    68A      0.813576    69A      0.825194
      70A      0.841773    71A      0.856285    72A      0.863413
      73A      0.887242    74A      0.899259    75A      0.909803
      76A      0.917536    77A      0.927070    78A      0.933681
      79A      0.943515    80A      0.948987    81A      0.974657
      82A      1.003450    83A      1.020126    84A      1.029075
      85A      1.037046    86A      1.096740    87A      1.124618
      88A      1.161880    89A      1.191570    90A      1.225268
      91A      1.240397    92A      1.248488    93A      1.261882
      94A      1.279858    95A      1.309066    96A      1.317036
      97A      1.340381    98A      1.394964    99A      1.428868
     100A      1.441813   101A      1.455748   102A      1.479649
     103A      1.501686   104A      1.539646   105A      1.557964
     106A      1.589462   107A      1.604946   108A      1.622675
     109A      1.651463   110A      1.670603   111A      1.694563
     112A      1.719978   113A      1.733888   114A      1.739545
     115A      1.751154   116A      1.775425   117A      1.832036
     118A      1.850514   119A      1.862488   120A      1.878194
     121A      1.891971   122A      1.909588   123A      1.941084
     124A      1.960897   125A      1.969943   126A      1.980283
     127A      1.992068   128A      2.009882   129A      2.037015
     130A      2.080082   131A      2.091610   132A      2.133462
     133A      2.147842   134A      2.157193   135A      2.167171
     136A      2.218969   137A      2.237805   138A      2.264170
     139A      2.285229   140A      2.316861   141A      2.337440
     142A      2.392507   143A      2.406562   144A      2.428051
     145A      2.452406   146A      2.470654   147A      2.472619
     148A      2.509622   149A      2.538933   150A      2.569797
     151A      2.604361   152A      2.609268   153A      2.645912
     154A      2.704763   155A      2.723598   156A      2.743939
     157A      2.760572   158A      2.813946   159A      2.861977
     160A      2.864860   161A      2.877900   162A      2.881550
     163A      2.915211   164A      2.935476   165A      2.982709
     166A      3.043556   167A      3.107174   168A      3.131848
     169A      3.157118   170A      3.190566   171A      3.214857
     172A      3.220255   173A      3.320759   174A      3.499175
     175A      3.647518   176A      3.694706   177A      3.702142
     178A      3.792885   179A      3.941861   180A      3.966651
     181A      4.061326

    Final Occupation by Irrep:
              A
    DOCC [    36 ]

  @RHF Final Energy:  -470.96937093504096

   => Energetics <=

    Nuclear Repulsion Energy =            448.6173046568661675
    One-Electron Energy =               -1533.6563227831913991
    Two-Electron Energy =                 614.0696471912841616
    Total Energy =                       -470.9693709350409563

Computation Completed

Properties will be evaluated at   0.000000,   0.000000,   0.000000 [a0]

Properties computed using the SCF density matrix

  Nuclear Dipole Moment: [e a0]
     X:     2.1575      Y:    -7.4095      Z:    -1.4268

  Electronic Dipole Moment: [e a0]
     X:     3.5715      Y:     3.5360      Z:     2.6688

  Dipole Moment: [e a0]
     X:     5.7290      Y:    -3.8736      Z:     1.2420     Total:     7.0263

  Dipole Moment: [D]
     X:    14.5617      Y:    -9.8456      Z:     3.1569     Total:    17.8591

*** tstop() called on ds3 at Tue Apr 28 13:56:50 2020
Module time:
	user time   =      42.83 seconds =       0.71 minutes
	system time =      20.60 seconds =       0.34 minutes
	total time  =         87 seconds =       1.45 minutes
Total time:
	user time   =      42.83 seconds =       0.71 minutes
	system time =      20.60 seconds =       0.34 minutes
	total time  =         87 seconds =       1.45 minutes
                                     G D M A

                                 by Anthony Stone

                           version 2.2.06, 22 June 2011

               Distributed Multipoles from Gaussian wavefunctions

Starting at 13:56:51 on 28 Apr 2020

Using SCF density matrix from file ./SSI/SSI-066ASP-069ARG-2-dimer.test.30927.fchk

                         Distributed Multipole Analysis

Standard DMA

Positions and radii in angstrom
Multipole moments in atomic units, ea_0^k for rank k

C          x = -3.431880  y =  0.242016  z = -0.511573 angstrom
           Maximum rank =  0   Radius =  0.650 angstrom
                   Q00  =  -0.290621

C          x = -2.272880  y =  1.216016  z = -0.347573 angstrom
           Maximum rank =  0   Radius =  0.650 angstrom
                   Q00  =   0.936440

O          x = -1.123880  y =  0.894016  z = -0.743573 angstrom
           Maximum rank =  0   Radius =  0.650 angstrom
                   Q00  =  -0.969284

O          x = -2.514880  y =  2.300016  z =  0.226427 angstrom
           Maximum rank =  0   Radius =  0.650 angstrom
                   Q00  =  -0.877390

H          x = -4.309880  y =  0.751016  z = -0.913573 angstrom
           Maximum rank =  0   Radius =  0.325 angstrom
                   Q00  =   0.100136

H          x = -3.689880  y = -0.135984  z =  0.479427 angstrom
           Maximum rank =  0   Radius =  0.325 angstrom
                   Q00  =   0.092015

H          x = -3.170730  y = -0.612134  z = -1.153623 angstrom
           Maximum rank =  0   Radius =  0.325 angstrom
                   Q00  =   0.053001

C          x =  1.004120  y = -1.742984  z = -1.338573 angstrom
           Maximum rank =  0   Radius =  0.650 angstrom
                   Q00  =  -0.078324

C          x =  2.071120  y = -0.735984  z =  0.669427 angstrom
           Maximum rank =  0   Radius =  0.650 angstrom
                   Q00  =   1.075577

N          x =  1.047120  y =  0.070016  z =  0.884427 angstrom
           Maximum rank =  0   Radius =  0.650 angstrom
                   Q00  =  -0.585519

N          x =  2.076120  y = -1.589984  z = -0.344573 angstrom
           Maximum rank =  0   Radius =  0.650 angstrom
                   Q00  =  -0.487840

N          x =  3.118120  y = -0.682984  z =  1.469427 angstrom
           Maximum rank =  0   Radius =  0.650 angstrom
                   Q00  =  -0.589794

H          x =  0.301120  y =  0.164016  z =  0.190427 angstrom
           Maximum rank =  0   Radius =  0.325 angstrom
                   Q00  =   0.330152

H          x =  1.058120  y =  0.713016  z =  1.657427 angstrom
           Maximum rank =  0   Radius =  0.325 angstrom
                   Q00  =   0.249283

H          x =  2.899120  y = -2.166984  z = -0.449573 angstrom
           Maximum rank =  0   Radius =  0.325 angstrom
                   Q00  =   0.199988

H          x =  3.915120  y = -1.286984  z =  1.295427 angstrom
           Maximum rank =  0   Radius =  0.325 angstrom
                   Q00  =   0.239010

H          x =  3.151120  y = -0.034984  z =  2.238427 angstrom
           Maximum rank =  0   Radius =  0.325 angstrom
                   Q00  =   0.253109

H          x =  1.362120  y = -1.345984  z = -2.289573 angstrom
           Maximum rank =  0   Radius =  0.325 angstrom
                   Q00  =   0.118637

H          x =  0.115120  y = -1.181984  z = -1.067573 angstrom
           Maximum rank =  0   Radius =  0.325 angstrom
                   Q00  =   0.113209

H          x =  0.708074  y = -2.789974  z = -1.500313 angstrom
           Maximum rank =  0   Radius =  0.325 angstrom
                   Q00  =   0.118213

Total multipoles referred to origin at
           x =   0.000000,  y =    0.000000,  z =    0.000000 angstrom
                   Q00  =  -0.000000

Finished at 13:56:51 on 28 Apr 2020

  DMA results are available in the Python driver through the
	  variable('DMA DISTRIBUTED MULTIPOLES')
  and
	  variable('DMA TOTAL MULTIPOLES')
  commands.

    Psi4 stopped on: Tuesday, 28 April 2020 01:56PM
    Psi4 wall time for execution: 0:01:27.59

*** Psi4 exiting successfully. Buy a developer a beer!
