                               Psi4 1.3.2 release

  ==> Input File <==

--------------------------------------------------------------------------
import numpy as np
set {scf_type pk
basis cc-pvdz
d_convergence 10
gdma_switch   0
gdma_limit    0
gdma_origin   [ 0.0,  0.0,  0.0 ]
}
molecule test {
    units Angstrom
    -1 1
    --
    -1 1
    C                0.359844221492733     0.834942210023188     3.909118273027762
    C               -0.439155778507267     1.050942210023188     1.489118273027763
    C                0.496844221492733    -0.730057789976812     0.499118273027763
    C                0.253844221492734     0.420942210023188     2.478118273027763
    C                0.867844221492734    -0.726057789976812     1.871118273027763
    C                0.924844221492733    -1.711057789976812    -0.387881726972237
    C                1.742844221492734    -2.714057789976812     0.108118273027763
    C                1.695844221492734    -1.752057789976812     2.346118273027763
    C                2.121844221492733    -2.741057789976812     1.459118273027763
    N               -0.299155778507267     0.365942210023188     0.304118273027763
    H               -0.613155778507267     0.706942210023188    -0.608881726972237
    H               -1.002155778507267     1.967942210023188     1.619118273027763
    H                0.651844221492733    -1.668057789976812    -1.431881726972237
    H                0.381844221492733    -0.053057789976812     4.532118273027762
    H               -0.537155778507266     1.402942210023188     4.150118273027763
    H                2.158844221492733    -3.448057789976812    -0.557881726972237
    H                2.024844221492734    -1.751057789976812     3.371118273027763
    H                2.765844221492733    -3.523057789976812     1.822118273027763
    H                1.230694221492733     1.467570210023188     4.135828273027763
    C               -3.041155778507267     1.488942210023188    -2.725881726972237
    C               -1.605155778507267     1.648942210023188    -3.190881726972237
    O               -0.695155778507267     1.272942210023188    -2.421881726972237
    O               -1.384155778507266     2.141942210023188    -4.319881726972238
    H               -3.205155778507267     2.079942210023188    -1.820881726972237
    H               -3.160155778507266     0.435942210023188    -2.475881726972237
    H               -3.764055778507267     1.797112210023188    -3.495581726972237

}
e, wfn = energy('scf', return_wfn=True)
gdma(wfn)
dmavals = variable('DMA DISTRIBUTED MULTIPOLES')
charges = np.array(dmavals)
print(charges)
np.save('SSI-104TRP-166GLU-1-dimer.npy', np.array(charges))--------------------------------------------------------------------------

*** tstart() called on ds3
*** at Tue Apr 28 12:15:06 2020

   => Loading Basis Set <=

    Name: CC-PVDZ
    Role: ORBITAL
    Keyword: BASIS
    atoms 1-9, 20-21   entry C          line   138 file /theoryfs2/ds/metcalf/miniconda2/envs/tf2gpu/share/psi4/basis/cc-pvdz.gbs
    atoms 10           entry N          line   168 file /theoryfs2/ds/metcalf/miniconda2/envs/tf2gpu/share/psi4/basis/cc-pvdz.gbs
    atoms 11-19, 24-26 entry H          line    22 file /theoryfs2/ds/metcalf/miniconda2/envs/tf2gpu/share/psi4/basis/cc-pvdz.gbs
    atoms 22-23        entry O          line   198 file /theoryfs2/ds/metcalf/miniconda2/envs/tf2gpu/share/psi4/basis/cc-pvdz.gbs

         ---------------------------------------------------------
                                   SCF
               by Justin Turney, Rob Parrish, Andy Simmonett
                          and Daniel G. A. Smith
                              RHF Reference
                        1 Threads,    500 MiB Core
         ---------------------------------------------------------

  ==> Geometry <==

    Molecular point group: c1
    Full point group: C1

    Geometry (in Angstrom), charge = -1, multiplicity = 1:

       Center              X                  Y                   Z               Mass
    ------------   -----------------  -----------------  -----------------  -----------------
         C            0.359844221493     0.834942210023     3.909118273028    12.000000000000
         C           -0.439155778507     1.050942210023     1.489118273028    12.000000000000
         C            0.496844221493    -0.730057789977     0.499118273028    12.000000000000
         C            0.253844221493     0.420942210023     2.478118273028    12.000000000000
         C            0.867844221493    -0.726057789977     1.871118273028    12.000000000000
         C            0.924844221493    -1.711057789977    -0.387881726972    12.000000000000
         C            1.742844221493    -2.714057789977     0.108118273028    12.000000000000
         C            1.695844221493    -1.752057789977     2.346118273028    12.000000000000
         C            2.121844221493    -2.741057789977     1.459118273028    12.000000000000
         N           -0.299155778507     0.365942210023     0.304118273028    14.003074004430
         H           -0.613155778507     0.706942210023    -0.608881726972     1.007825032230
         H           -1.002155778507     1.967942210023     1.619118273028     1.007825032230
         H            0.651844221493    -1.668057789977    -1.431881726972     1.007825032230
         H            0.381844221493    -0.053057789977     4.532118273028     1.007825032230
         H           -0.537155778507     1.402942210023     4.150118273028     1.007825032230
         H            2.158844221493    -3.448057789977    -0.557881726972     1.007825032230
         H            2.024844221493    -1.751057789977     3.371118273028     1.007825032230
         H            2.765844221493    -3.523057789977     1.822118273028     1.007825032230
         H            1.230694221493     1.467570210023     4.135828273028     1.007825032230
         C           -3.041155778507     1.488942210023    -2.725881726972    12.000000000000
         C           -1.605155778507     1.648942210023    -3.190881726972    12.000000000000
         O           -0.695155778507     1.272942210023    -2.421881726972    15.994914619570
         O           -1.384155778507     2.141942210023    -4.319881726972    15.994914619570
         H           -3.205155778507     2.079942210023    -1.820881726972     1.007825032230
         H           -3.160155778507     0.435942210023    -2.475881726972     1.007825032230
         H           -3.764055778507     1.797112210023    -3.495581726972     1.007825032230

  Running in c1 symmetry.

  Rotational constants: A =      0.03763  B =      0.01053  C =      0.00858 [cm^-1]
  Rotational constants: A =   1128.07018  B =    315.78790  C =    257.08429 [MHz]
  Nuclear repulsion =  800.874774021328449

  Charge       = -1
  Multiplicity = 1
  Electrons    = 102
  Nalpha       = 51
  Nbeta        = 51

  ==> Algorithm <==

  SCF Algorithm Type is PK.
  DIIS enabled.
  MOM disabled.
  Fractional occupation disabled.
  Guess Type is SAD.
  Energy threshold   = 1.00e-06
  Density threshold  = 1.00e-10
  Integral threshold = 0.00e+00

  ==> Primary Basis <==

  Basis Set: CC-PVDZ
    Blend: CC-PVDZ
    Number of shells: 120
    Number of basis function: 256
    Number of Cartesian functions: 270
    Spherical Harmonics?: true
    Max angular momentum: 2

  ==> Pre-Iterations <==

   -------------------------------------------------------
    Irrep   Nso     Nmo     Nalpha   Nbeta   Ndocc  Nsocc
   -------------------------------------------------------
     A        256     256       0       0       0       0
   -------------------------------------------------------
    Total     256     256      51      51      51       0
   -------------------------------------------------------

  ==> Integral Setup <==

  Using integral reordering PK algorithm.
  Sizing the integral batches needed.
  Building batch lookup table.
   Calculation information:
      Number of atoms:                  26
      Number of AO shells:             120
      Number of primitives:            368
      Number of atomic orbitals:       270
      Number of basis functions:       256

      Integral cutoff                 1.00e-12
      Number of threads:                 1

	Batch   1 pq = [       0,    9405] index = [             0,44231715] size =     44231715
	Batch   2 pq = [    9405,   13301] index = [      44231715,88464951] size =     44233236
	Batch   3 pq = [   13301,   16290] index = [      88464951,132690195] size =     44225244
	Batch   4 pq = [   16290,   18810] index = [     132690195,176917455] size =     44227260
	Batch   5 pq = [   18810,   21030] index = [     176917455,221140965] size =     44223510
	Batch   6 pq = [   21030,   23037] index = [     221140965,265363203] size =     44222238
	Batch   7 pq = [   23037,   24883] index = [     265363203,309594286] size =     44231083
	Batch   8 pq = [   24883,   26601] index = [     309594286,353819901] size =     44225615
	Batch   9 pq = [   26601,   28214] index = [     353819901,398029005] size =     44209104
	Batch  10 pq = [   28214,   29740] index = [     398029005,442248670] size =     44219665
	Batch  11 pq = [   29740,   31191] index = [     442248670,486454836] size =     44206166
	Batch  12 pq = [   31191,   32578] index = [     486454836,530679331] size =     44224495
	Batch  13 pq = [   32578,   32896] index = [     530679331,541089856] size =     10410525
  Task number: 49
  Buffer size: 11059200
  Buffer per thread: 2
  We computed 21679375 shell quartets total.
  Whereas there are 26357430 unique shell quartets.

  ==> DiskJK: Disk-Based J/K Matrices <==

    J tasked:                  Yes
    K tasked:                  Yes
    wK tasked:                  No
    Memory [MiB]:              375
    Schwarz Cutoff:          1E-12

    OpenMP threads:              1

  Minimum eigenvalue in the overlap matrix is 2.4361169629E-04.
  Using Symmetric Orthogonalization.

  SCF Guess: Superposition of Atomic Densities via on-the-fly atomic UHF.

  ==> Iterations <==

                        Total Energy        Delta E     RMS |[F,P]|

   @RHF iter SAD:  -626.58404288268434   -6.26584e+02   0.00000e+00
   @RHF iter   1:  -627.44440245571207   -8.60360e-01   3.16860e-03 DIIS
   @RHF iter   2:  -627.73060302240651   -2.86201e-01   1.69494e-03 DIIS
   @RHF iter   3:  -627.80429524726992   -7.36922e-02   3.19368e-04 DIIS
   @RHF iter   4:  -627.80854897813208   -4.25373e-03   1.20405e-04 DIIS
   @RHF iter   5:  -627.80913866200149   -5.89684e-04   2.23020e-05 DIIS
   @RHF iter   6:  -627.80916502196533   -2.63600e-05   1.16037e-05 DIIS
   @RHF iter   7:  -627.80917149537777   -6.47341e-06   2.89930e-06 DIIS
   @RHF iter   8:  -627.80917254060159   -1.04522e-06   1.22386e-06 DIIS
   @RHF iter   9:  -627.80917271948078   -1.78879e-07   5.10382e-07 DIIS
   @RHF iter  10:  -627.80917274808792   -2.86071e-08   1.73787e-07 DIIS
   @RHF iter  11:  -627.80917275293086   -4.84295e-09   7.78928e-08 DIIS
   @RHF iter  12:  -627.80917275393517   -1.00431e-09   4.01102e-08 DIIS
   @RHF iter  13:  -627.80917275424815   -3.12980e-10   1.64586e-08 DIIS
   @RHF iter  14:  -627.80917275429067   -4.25189e-11   4.93313e-09 DIIS
   @RHF iter  15:  -627.80917275429260   -1.93268e-12   1.92976e-09 DIIS
   @RHF iter  16:  -627.80917275429533   -2.72848e-12   9.28624e-10 DIIS
   @RHF iter  17:  -627.80917275429499    3.41061e-13   3.89753e-10 DIIS
   @RHF iter  18:  -627.80917275429078    4.20641e-12   1.32302e-10 DIIS
   @RHF iter  19:  -627.80917275429806   -7.27596e-12   6.87945e-11 DIIS
  Energy and wave function converged.

  ==> Post-Iterations <==

    Orbital Energies [Eh]
    ---------------------

    Doubly Occupied:

       1A    -20.296574     2A    -20.283550     3A    -15.468156
       4A    -11.156890     5A    -11.151649     6A    -11.143782
       7A    -11.138963     8A    -11.132529     9A    -11.127973
      10A    -11.124908    11A    -11.123656    12A    -11.116292
      13A    -11.110379    14A    -11.070872    15A     -1.180579
      16A     -1.173200    17A     -1.066293    18A     -1.023411
      19A     -0.968880    20A     -0.895828    21A     -0.883163
      22A     -0.829872    23A     -0.819453    24A     -0.733632
      25A     -0.697417    26A     -0.646646    27A     -0.605070
      28A     -0.557538    29A     -0.541702    30A     -0.527454
      31A     -0.500977    32A     -0.490661    33A     -0.483206
      34A     -0.467904    35A     -0.448381    36A     -0.445293
      37A     -0.436485    38A     -0.432078    39A     -0.430637
      40A     -0.423714    41A     -0.396631    42A     -0.371646
      43A     -0.364860    44A     -0.355854    45A     -0.331025
      46A     -0.268685    47A     -0.214644    48A     -0.199391
      49A     -0.192582    50A     -0.187595    51A     -0.169460

    Virtual:

      52A      0.227811    53A      0.270533    54A      0.271938
      55A      0.293242    56A      0.306042    57A      0.318624
      58A      0.326717    59A      0.336775    60A      0.350411
      61A      0.364730    62A      0.377478    63A      0.380989
      64A      0.391306    65A      0.401173    66A      0.451573
      67A      0.460209    68A      0.475094    69A      0.484556
      70A      0.523259    71A      0.530063    72A      0.547574
      73A      0.560525    74A      0.572539    75A      0.588667
      76A      0.614919    77A      0.620305    78A      0.670652
      79A      0.697961    80A      0.713985    81A      0.723862
      82A      0.738963    83A      0.746618    84A      0.774685
      85A      0.790090    86A      0.797297    87A      0.799523
      88A      0.820115    89A      0.823554    90A      0.831832
      91A      0.839828    92A      0.841753    93A      0.846224
      94A      0.847490    95A      0.863675    96A      0.877208
      97A      0.883110    98A      0.896328    99A      0.912326
     100A      0.922832   101A      0.939768   102A      0.948721
     103A      0.951247   104A      0.964198   105A      0.965455
     106A      0.990255   107A      0.993255   108A      0.999767
     109A      1.003576   110A      1.016678   111A      1.020734
     112A      1.021142   113A      1.036178   114A      1.054041
     115A      1.056840   116A      1.072776   117A      1.088259
     118A      1.092414   119A      1.109433   120A      1.151736
     121A      1.185801   122A      1.191068   123A      1.200985
     124A      1.215459   125A      1.233497   126A      1.246147
     127A      1.249965   128A      1.259801   129A      1.270866
     130A      1.307882   131A      1.321947   132A      1.326188
     133A      1.330846   134A      1.335591   135A      1.343464
     136A      1.357469   137A      1.371522   138A      1.390245
     139A      1.399349   140A      1.424109   141A      1.442077
     142A      1.444735   143A      1.474443   144A      1.494832
     145A      1.503818   146A      1.528757   147A      1.545752
     148A      1.547241   149A      1.559243   150A      1.620590
     151A      1.636738   152A      1.658674   153A      1.662900
     154A      1.675652   155A      1.688155   156A      1.703407
     157A      1.724745   158A      1.741474   159A      1.746770
     160A      1.777385   161A      1.794285   162A      1.815653
     163A      1.817463   164A      1.842905   165A      1.851599
     166A      1.861538   167A      1.890949   168A      1.902711
     169A      1.914894   170A      1.924810   171A      1.944135
     172A      1.984793   173A      1.991642   174A      2.002613
     175A      2.010765   176A      2.017704   177A      2.018945
     178A      2.031533   179A      2.043573   180A      2.054465
     181A      2.067934   182A      2.074453   183A      2.086394
     184A      2.102246   185A      2.118818   186A      2.121265
     187A      2.127039   188A      2.158554   189A      2.177623
     190A      2.183721   191A      2.188293   192A      2.196394
     193A      2.216767   194A      2.222454   195A      2.241994
     196A      2.247631   197A      2.260291   198A      2.267586
     199A      2.276295   200A      2.277530   201A      2.289507
     202A      2.348467   203A      2.366070   204A      2.387079
     205A      2.398998   206A      2.408888   207A      2.417179
     208A      2.440627   209A      2.445821   210A      2.480115
     211A      2.504713   212A      2.509102   213A      2.560128
     214A      2.567655   215A      2.573960   216A      2.626506
     217A      2.669208   218A      2.683601   219A      2.705275
     220A      2.734956   221A      2.745125   222A      2.762307
     223A      2.786111   224A      2.806680   225A      2.826919
     226A      2.861305   227A      2.875592   228A      2.901979
     229A      2.906045   230A      2.913611   231A      2.945077
     232A      2.961521   233A      2.964760   234A      2.969578
     235A      2.987818   236A      3.029095   237A      3.095726
     238A      3.126119   239A      3.161074   240A      3.184863
     241A      3.211522   242A      3.224326   243A      3.260753
     244A      3.264961   245A      3.314298   246A      3.347968
     247A      3.411376   248A      3.499328   249A      3.601845
     250A      3.760045   251A      3.798005   252A      3.870634
     253A      4.031193   254A      4.054125   255A      4.099536
     256A      4.166730

    Final Occupation by Irrep:
              A
    DOCC [    51 ]

  @RHF Final Energy:  -627.80917275429806

   => Energetics <=

    Nuclear Repulsion Energy =            800.8747740213284487
    One-Electron Energy =               -2458.9518498840179745
    Two-Electron Energy =                1030.2679031083914651
    Total Energy =                       -627.8091727542980607

Computation Completed

Properties will be evaluated at   0.000000,   0.000000,   0.000000 [a0]

Properties computed using the SCF density matrix

  Nuclear Dipole Moment: [e a0]
     X:    -2.8852      Y:    -0.5330      Z:     8.6284

  Electronic Dipole Moment: [e a0]
     X:     3.6093      Y:    -1.4330      Z:    -3.9128

  Dipole Moment: [e a0]
     X:     0.7241      Y:    -1.9659      Z:     4.7156     Total:     5.1601

  Dipole Moment: [D]
     X:     1.8405      Y:    -4.9969      Z:    11.9859     Total:    13.1156

*** tstop() called on ds3 at Tue Apr 28 12:26:25 2020
Module time:
	user time   =     201.76 seconds =       3.36 minutes
	system time =      85.38 seconds =       1.42 minutes
	total time  =        679 seconds =      11.32 minutes
Total time:
	user time   =     201.76 seconds =       3.36 minutes
	system time =      85.38 seconds =       1.42 minutes
	total time  =        679 seconds =      11.32 minutes
                                     G D M A

                                 by Anthony Stone

                           version 2.2.06, 22 June 2011

               Distributed Multipoles from Gaussian wavefunctions

Starting at 12:26:25 on 28 Apr 2020

Using SCF density matrix from file ./SSI/SSI-104TRP-166GLU-1-dimer.test.14646.fchk

                         Distributed Multipole Analysis

Standard DMA

Positions and radii in angstrom
Multipole moments in atomic units, ea_0^k for rank k

C          x =  0.359844  y =  0.834942  z =  3.909118 angstrom
           Maximum rank =  0   Radius =  0.650 angstrom
                   Q00  =  -0.204268

C          x = -0.439156  y =  1.050942  z =  1.489118 angstrom
           Maximum rank =  0   Radius =  0.650 angstrom
                   Q00  =   0.142164

C          x =  0.496844  y = -0.730058  z =  0.499118 angstrom
           Maximum rank =  0   Radius =  0.650 angstrom
                   Q00  =   0.346164

C          x =  0.253844  y =  0.420942  z =  2.478118 angstrom
           Maximum rank =  0   Radius =  0.650 angstrom
                   Q00  =  -0.173878

C          x =  0.867844  y = -0.726058  z =  1.871118 angstrom
           Maximum rank =  0   Radius =  0.650 angstrom
                   Q00  =  -0.067666

C          x =  0.924844  y = -1.711058  z = -0.387882 angstrom
           Maximum rank =  0   Radius =  0.650 angstrom
                   Q00  =  -0.104970

C          x =  1.742844  y = -2.714058  z =  0.108118 angstrom
           Maximum rank =  0   Radius =  0.650 angstrom
                   Q00  =  -0.099869

C          x =  1.695844  y = -1.752058  z =  2.346118 angstrom
           Maximum rank =  0   Radius =  0.650 angstrom
                   Q00  =  -0.114628

C          x =  2.121844  y = -2.741058  z =  1.459118 angstrom
           Maximum rank =  0   Radius =  0.650 angstrom
                   Q00  =  -0.076976

N          x = -0.299156  y =  0.365942  z =  0.304118 angstrom
           Maximum rank =  0   Radius =  0.650 angstrom
                   Q00  =  -0.523919

H          x = -0.613156  y =  0.706942  z = -0.608882 angstrom
           Maximum rank =  0   Radius =  0.325 angstrom
                   Q00  =   0.306526

H          x = -1.002156  y =  1.967942  z =  1.619118 angstrom
           Maximum rank =  0   Radius =  0.325 angstrom
                   Q00  =   0.082631

H          x =  0.651844  y = -1.668058  z = -1.431882 angstrom
           Maximum rank =  0   Radius =  0.325 angstrom
                   Q00  =   0.088460

H          x =  0.381844  y = -0.053058  z =  4.532118 angstrom
           Maximum rank =  0   Radius =  0.325 angstrom
                   Q00  =   0.088360

H          x = -0.537156  y =  1.402942  z =  4.150118 angstrom
           Maximum rank =  0   Radius =  0.325 angstrom
                   Q00  =   0.090016

H          x =  2.158844  y = -3.448058  z = -0.557882 angstrom
           Maximum rank =  0   Radius =  0.325 angstrom
                   Q00  =   0.044299

H          x =  2.024844  y = -1.751058  z =  3.371118 angstrom
           Maximum rank =  0   Radius =  0.325 angstrom
                   Q00  =   0.047198

H          x =  2.765844  y = -3.523058  z =  1.822118 angstrom
           Maximum rank =  0   Radius =  0.325 angstrom
                   Q00  =   0.033874

H          x =  1.230694  y =  1.467570  z =  4.135828 angstrom
           Maximum rank =  0   Radius =  0.325 angstrom
                   Q00  =   0.081335

C          x = -3.041156  y =  1.488942  z = -2.725882 angstrom
           Maximum rank =  0   Radius =  0.650 angstrom
                   Q00  =  -0.279080

C          x = -1.605156  y =  1.648942  z = -3.190882 angstrom
           Maximum rank =  0   Radius =  0.650 angstrom
                   Q00  =   0.947256

O          x = -0.695156  y =  1.272942  z = -2.421882 angstrom
           Maximum rank =  0   Radius =  0.650 angstrom
                   Q00  =  -0.958240

O          x = -1.384156  y =  2.141942  z = -4.319882 angstrom
           Maximum rank =  0   Radius =  0.650 angstrom
                   Q00  =  -0.902544

H          x = -3.205156  y =  2.079942  z = -1.820882 angstrom
           Maximum rank =  0   Radius =  0.325 angstrom
                   Q00  =   0.070527

H          x = -3.160156  y =  0.435942  z = -2.475882 angstrom
           Maximum rank =  0   Radius =  0.325 angstrom
                   Q00  =   0.072551

H          x = -3.764056  y =  1.797112  z = -3.495582 angstrom
           Maximum rank =  0   Radius =  0.325 angstrom
                   Q00  =   0.064677

Total multipoles referred to origin at
           x =   0.000000,  y =    0.000000,  z =    0.000000 angstrom
                   Q00  =  -1.000000

Finished at 12:26:25 on 28 Apr 2020

  DMA results are available in the Python driver through the
	  variable('DMA DISTRIBUTED MULTIPOLES')
  and
	  variable('DMA TOTAL MULTIPOLES')
  commands.

    Psi4 stopped on: Tuesday, 28 April 2020 12:26PM
    Psi4 wall time for execution: 0:11:19.30

*** Psi4 exiting successfully. Buy a developer a beer!
