                               Psi4 1.3.2 release

  ==> Input File <==

--------------------------------------------------------------------------
import numpy as np
set {scf_type pk
basis cc-pvdz
d_convergence 10
gdma_switch   0
gdma_limit    0
gdma_origin   [ 0.0,  0.0,  0.0 ]
}
molecule test {
    units Angstrom
    0 1
    --
    0 1
    C                1.698048124151954    -0.370063434522323    -0.637484898094950
    C                2.035048124151954    -1.286063434522323     0.522515101905050
    H                2.336048124151954    -0.539063434522323    -1.501484898094950
    H                0.678048124151954    -0.569063434522323    -0.958484898094950
    H                1.746048124151954     0.658936565477677    -0.304484898094950
    H                1.819048124151954    -2.302063434522323     0.191515101905050
    H                3.098408124151954    -1.258473434522323     0.802685101905050
    H                1.389368124151954    -1.082093434522323     1.389405101905051
    C               -1.485951875848045     1.464936565477677     0.301515101905050
    C               -2.243951875848046     0.205936565477677    -0.189484898094950
    H               -2.158951875848045     2.164936565477677     0.795515101905050
    H               -0.735951875848046     1.164936565477677     1.031515101905050
    H               -0.980951875848046     1.956936565477677    -0.526484898094949
    H               -2.782951875848046    -0.223063434522323     0.654515101905050
    H               -1.512951875848046    -0.533063434522323    -0.511484898094949
    H               -2.933221875848046     0.385556565477677    -1.027724898094950

}
e, wfn = energy('scf', return_wfn=True)
gdma(wfn)
dmavals = variable('DMA DISTRIBUTED MULTIPOLES')
charges = np.array(dmavals)
print(charges)
np.save('SSI-033VAL-048ILE-1-dimer.npy', np.array(charges))--------------------------------------------------------------------------

*** tstart() called on ds3
*** at Mon Apr 27 13:12:26 2020

   => Loading Basis Set <=

    Name: CC-PVDZ
    Role: ORBITAL
    Keyword: BASIS
    atoms 1-2, 9-10  entry C          line   138 file /theoryfs2/ds/metcalf/miniconda2/envs/tf2gpu/share/psi4/basis/cc-pvdz.gbs
    atoms 3-8, 11-16 entry H          line    22 file /theoryfs2/ds/metcalf/miniconda2/envs/tf2gpu/share/psi4/basis/cc-pvdz.gbs

         ---------------------------------------------------------
                                   SCF
               by Justin Turney, Rob Parrish, Andy Simmonett
                          and Daniel G. A. Smith
                              RHF Reference
                        1 Threads,    500 MiB Core
         ---------------------------------------------------------

  ==> Geometry <==

    Molecular point group: c1
    Full point group: C1

    Geometry (in Angstrom), charge = 0, multiplicity = 1:

       Center              X                  Y                   Z               Mass
    ------------   -----------------  -----------------  -----------------  -----------------
         C            1.698048124152    -0.370063434522    -0.637484898095    12.000000000000
         C            2.035048124152    -1.286063434522     0.522515101905    12.000000000000
         H            2.336048124152    -0.539063434522    -1.501484898095     1.007825032230
         H            0.678048124152    -0.569063434522    -0.958484898095     1.007825032230
         H            1.746048124152     0.658936565478    -0.304484898095     1.007825032230
         H            1.819048124152    -2.302063434522     0.191515101905     1.007825032230
         H            3.098408124152    -1.258473434522     0.802685101905     1.007825032230
         H            1.389368124152    -1.082093434522     1.389405101905     1.007825032230
         C           -1.485951875848     1.464936565478     0.301515101905    12.000000000000
         C           -2.243951875848     0.205936565478    -0.189484898095    12.000000000000
         H           -2.158951875848     2.164936565478     0.795515101905     1.007825032230
         H           -0.735951875848     1.164936565478     1.031515101905     1.007825032230
         H           -0.980951875848     1.956936565478    -0.526484898095     1.007825032230
         H           -2.782951875848    -0.223063434522     0.654515101905     1.007825032230
         H           -1.512951875848    -0.533063434522    -0.511484898095     1.007825032230
         H           -2.933221875848     0.385556565478    -1.027724898095     1.007825032230

  Running in c1 symmetry.

  Rotational constants: A =      0.36183  B =      0.06029  C =      0.05861 [cm^-1]
  Rotational constants: A =  10847.53994  B =   1807.42251  C =   1757.03867 [MHz]
  Nuclear repulsion =  125.344296584082770

  Charge       = 0
  Multiplicity = 1
  Electrons    = 36
  Nalpha       = 18
  Nbeta        = 18

  ==> Algorithm <==

  SCF Algorithm Type is PK.
  DIIS enabled.
  MOM disabled.
  Fractional occupation disabled.
  Guess Type is SAD.
  Energy threshold   = 1.00e-06
  Density threshold  = 1.00e-10
  Integral threshold = 0.00e+00

  ==> Primary Basis <==

  Basis Set: CC-PVDZ
    Blend: CC-PVDZ
    Number of shells: 60
    Number of basis function: 116
    Number of Cartesian functions: 120
    Spherical Harmonics?: true
    Max angular momentum: 2

  ==> Pre-Iterations <==

   -------------------------------------------------------
    Irrep   Nso     Nmo     Nalpha   Nbeta   Ndocc  Nsocc
   -------------------------------------------------------
     A        116     116       0       0       0       0
   -------------------------------------------------------
    Total     116     116      18      18      18       0
   -------------------------------------------------------

  ==> Integral Setup <==

  Using integral reordering PK algorithm.
  Sizing the integral batches needed.
  Building batch lookup table.
   Calculation information:
      Number of atoms:                  16
      Number of AO shells:              60
      Number of primitives:            148
      Number of atomic orbitals:       120
      Number of basis functions:       116

      Integral cutoff                 1.00e-12
      Number of threads:                 1

	Batch   1 pq = [       0,    6786] index = [             0,23028291] size =     23028291
  Task number: 3
  Buffer size: 11059200
  Buffer per thread: 2
  We computed 1566074 shell quartets total.
  Whereas there are 1675365 unique shell quartets.

  ==> DiskJK: Disk-Based J/K Matrices <==

    J tasked:                  Yes
    K tasked:                  Yes
    wK tasked:                  No
    Memory [MiB]:              375
    Schwarz Cutoff:          1E-12

    OpenMP threads:              1

  Minimum eigenvalue in the overlap matrix is 7.4888610097E-03.
  Using Symmetric Orthogonalization.

  SCF Guess: Superposition of Atomic Densities via on-the-fly atomic UHF.

  ==> Iterations <==

                        Total Energy        Delta E     RMS |[F,P]|

   @RHF iter SAD:  -157.35474806608306   -1.57355e+02   0.00000e+00
   @RHF iter   1:  -158.30668877386455   -9.51941e-01   4.20276e-03 DIIS
   @RHF iter   2:  -158.43955364938356   -1.32865e-01   1.78912e-03 DIIS
   @RHF iter   3:  -158.46276791866015   -2.32143e-02   3.48640e-04 DIIS
   @RHF iter   4:  -158.46457844814697   -1.81053e-03   3.84923e-05 DIIS
   @RHF iter   5:  -158.46460141754355   -2.29694e-05   6.73135e-06 DIIS
   @RHF iter   6:  -158.46460206016198   -6.42618e-07   1.34515e-06 DIIS
   @RHF iter   7:  -158.46460207751440   -1.73524e-08   3.38308e-07 DIIS
   @RHF iter   8:  -158.46460207866582   -1.15142e-09   4.90112e-08 DIIS
   @RHF iter   9:  -158.46460207870265   -3.68345e-11   1.20719e-08 DIIS
   @RHF iter  10:  -158.46460207870504   -2.38742e-12   2.91956e-09 DIIS
   @RHF iter  11:  -158.46460207870518   -1.42109e-13   8.64067e-10 DIIS
   @RHF iter  12:  -158.46460207870547   -2.84217e-13   2.05923e-10 DIIS
   @RHF iter  13:  -158.46460207870592   -4.54747e-13   2.46621e-11 DIIS
  Energy and wave function converged.

  ==> Post-Iterations <==

    Orbital Energies [Eh]
    ---------------------

    Doubly Occupied:

       1A    -11.219929     2A    -11.218714     3A    -11.218711
       4A    -11.214724     5A     -1.022490     6A     -1.013509
       7A     -0.841608     8A     -0.837777     9A     -0.605913
      10A     -0.600454    11A     -0.596648    12A     -0.587481
      13A     -0.507038    14A     -0.500232    15A     -0.490431
      16A     -0.489236    17A     -0.485530    18A     -0.476521

    Virtual:

      19A      0.166130    20A      0.206516    21A      0.221455
      22A      0.227851    23A      0.249495    24A      0.257510
      25A      0.264054    26A      0.275550    27A      0.284141
      28A      0.295474    29A      0.325981    30A      0.369779
      31A      0.389756    32A      0.427157    33A      0.560958
      34A      0.586050    35A      0.601885    36A      0.611439
      37A      0.617068    38A      0.642728    39A      0.665765
      40A      0.670653    41A      0.697395    42A      0.802997
      43A      0.832858    44A      0.856351    45A      0.878072
      46A      0.883195    47A      0.889285    48A      0.900361
      49A      0.904758    50A      0.912726    51A      0.924286
      52A      0.929030    53A      0.934243    54A      0.971761
      55A      0.988390    56A      1.013796    57A      1.121642
      58A      1.123008    59A      1.137803    60A      1.144126
      61A      1.231227    62A      1.278483    63A      1.451244
      64A      1.463010    65A      1.476245    66A      1.490662
      67A      1.556298    68A      1.607796    69A      1.684553
      70A      1.693050    71A      1.698976    72A      1.702290
      73A      1.857222    74A      1.863018    75A      1.869313
      76A      1.874109    77A      1.889302    78A      1.918739
      79A      1.932934    80A      1.942648    81A      1.947101
      82A      1.951738    83A      1.956025    84A      1.959224
      85A      1.963226    86A      1.970995    87A      1.989450
      88A      2.035545    89A      2.077689    90A      2.098604
      91A      2.135266    92A      2.149346    93A      2.305451
      94A      2.308888    95A      2.318516    96A      2.327775
      97A      2.439780    98A      2.444540    99A      2.457775
     100A      2.479778   101A      2.551533   102A      2.558464
     103A      2.579260   104A      2.592763   105A      2.759177
     106A      2.772396   107A      2.797478   108A      2.806440
     109A      2.853829   110A      2.861282   111A      2.868290
     112A      2.881921   113A      2.939910   114A      2.943105
     115A      2.970175   116A      2.985655

    Final Occupation by Irrep:
              A
    DOCC [    18 ]

  @RHF Final Energy:  -158.46460207870592

   => Energetics <=

    Nuclear Repulsion Energy =            125.3442965840827696
    One-Electron Energy =                -459.7639009427387009
    Two-Electron Energy =                 175.9550022799500084
    Total Energy =                       -158.4646020787059228

Computation Completed

Properties will be evaluated at   0.000000,   0.000000,   0.000000 [a0]

Properties computed using the SCF density matrix

  Nuclear Dipole Moment: [e a0]
     X:    -0.0356      Y:    -0.1646      Z:     0.0328

  Electronic Dipole Moment: [e a0]
     X:     0.0340      Y:     0.1541      Z:    -0.0394

  Dipole Moment: [e a0]
     X:    -0.0016      Y:    -0.0105      Z:    -0.0066     Total:     0.0125

  Dipole Moment: [D]
     X:    -0.0041      Y:    -0.0266      Z:    -0.0167     Total:     0.0317

*** tstop() called on ds3 at Mon Apr 27 13:12:37 2020
Module time:
	user time   =       8.56 seconds =       0.14 minutes
	system time =       3.14 seconds =       0.05 minutes
	total time  =         11 seconds =       0.18 minutes
Total time:
	user time   =       8.56 seconds =       0.14 minutes
	system time =       3.14 seconds =       0.05 minutes
	total time  =         11 seconds =       0.18 minutes
                                     G D M A

                                 by Anthony Stone

                           version 2.2.06, 22 June 2011

               Distributed Multipoles from Gaussian wavefunctions

Starting at 13:12:38 on 27 Apr 2020

Using SCF density matrix from file ./SSI/SSI-033VAL-048ILE-1-dimer.test.5770.fchk

                         Distributed Multipole Analysis

Standard DMA

Positions and radii in angstrom
Multipole moments in atomic units, ea_0^k for rank k

C          x =  1.698048  y = -0.370063  z = -0.637485 angstrom
           Maximum rank =  0   Radius =  0.650 angstrom
                   Q00  =  -0.242339

C          x =  2.035048  y = -1.286063  z =  0.522515 angstrom
           Maximum rank =  0   Radius =  0.650 angstrom
                   Q00  =  -0.227823

H          x =  2.336048  y = -0.539063  z = -1.501485 angstrom
           Maximum rank =  0   Radius =  0.325 angstrom
                   Q00  =   0.082070

H          x =  0.678048  y = -0.569063  z = -0.958485 angstrom
           Maximum rank =  0   Radius =  0.325 angstrom
                   Q00  =   0.077404

H          x =  1.746048  y =  0.658937  z = -0.304485 angstrom
           Maximum rank =  0   Radius =  0.325 angstrom
                   Q00  =   0.078391

H          x =  1.819048  y = -2.302063  z =  0.191515 angstrom
           Maximum rank =  0   Radius =  0.325 angstrom
                   Q00  =   0.071841

H          x =  3.098408  y = -1.258473  z =  0.802685 angstrom
           Maximum rank =  0   Radius =  0.325 angstrom
                   Q00  =   0.081358

H          x =  1.389368  y = -1.082093  z =  1.389405 angstrom
           Maximum rank =  0   Radius =  0.325 angstrom
                   Q00  =   0.079009

C          x = -1.485952  y =  1.464937  z =  0.301515 angstrom
           Maximum rank =  0   Radius =  0.650 angstrom
                   Q00  =  -0.241513

C          x = -2.243952  y =  0.205937  z = -0.189485 angstrom
           Maximum rank =  0   Radius =  0.650 angstrom
                   Q00  =  -0.248938

H          x = -2.158952  y =  2.164937  z =  0.795515 angstrom
           Maximum rank =  0   Radius =  0.325 angstrom
                   Q00  =   0.081861

H          x = -0.735952  y =  1.164937  z =  1.031515 angstrom
           Maximum rank =  0   Radius =  0.325 angstrom
                   Q00  =   0.080357

H          x = -0.980952  y =  1.956937  z = -0.526485 angstrom
           Maximum rank =  0   Radius =  0.325 angstrom
                   Q00  =   0.083465

H          x = -2.782952  y = -0.223063  z =  0.654515 angstrom
           Maximum rank =  0   Radius =  0.325 angstrom
                   Q00  =   0.080049

H          x = -1.512952  y = -0.533063  z = -0.511485 angstrom
           Maximum rank =  0   Radius =  0.325 angstrom
                   Q00  =   0.080344

H          x = -2.933222  y =  0.385557  z = -1.027725 angstrom
           Maximum rank =  0   Radius =  0.325 angstrom
                   Q00  =   0.084465

Total multipoles referred to origin at
           x =   0.000000,  y =    0.000000,  z =    0.000000 angstrom
                   Q00  =  -0.000000

Finished at 13:12:38 on 27 Apr 2020

  DMA results are available in the Python driver through the
	  variable('DMA DISTRIBUTED MULTIPOLES')
  and
	  variable('DMA TOTAL MULTIPOLES')
  commands.

    Psi4 stopped on: Monday, 27 April 2020 01:12PM
    Psi4 wall time for execution: 0:00:11.31

*** Psi4 exiting successfully. Buy a developer a beer!
