                               Psi4 1.3.2 release

  ==> Input File <==

--------------------------------------------------------------------------
import numpy as np
set {scf_type pk
basis cc-pvdz
d_convergence 10
gdma_switch   0
gdma_limit    0
gdma_origin   [ 0.0,  0.0,  0.0 ]
}
molecule test {
    units Angstrom
    0 1
    --
    0 1
    C                0.665356561302368    -2.643049059171307    -0.688605260886388
    C               -1.713643438697631     0.900950940828694    -0.014605260886388
    C               -1.496643438697632     0.435950940828694    -1.311605260886388
    C               -1.173643438697632     0.202950940828694     1.071394739113612
    C               -0.737643438697632    -0.720049059171306    -1.526605260886388
    C               -0.413643438697631    -0.957049059171306     0.849394739113612
    C               -0.189643438697631    -1.422049059171306    -0.449605260886388
    H               -2.291643438697631     1.799950940828693     0.150394739113612
    H               -1.935643438697632     0.958950940828694    -2.138605260886388
    H               -1.323643438697631     0.587950940828694     2.066394739113612
    H               -0.570643438697632    -1.056049059171307    -2.540605260886388
    H                0.013356561302369    -1.482049059171306     1.691394739113612
    H                0.957356561302369    -3.071049059171306     0.269394739113612
    H                1.575356561302368    -2.322049059171306    -1.197605260886388
    H                0.180666561302369    -3.424742059171306    -1.291954260886388
    C                1.697356561302368     2.468950940828694     0.586394739113612
    C                2.574356561302369     1.428950940828693     1.272394739113612
    H                2.164356561302369     3.452950940828694     0.589394739113612
    H                1.535356561302368     2.170950940828694    -0.449605260886388
    H                0.723356561302369     2.521950940828694     1.071394739113612
    H                2.122356561302368     0.446950940828694     1.139394739113612
    H                2.658276561302368     1.630218940828694     2.350564739113612
    H                3.571226561302369     1.410995940828694     0.807714739113612

}
e, wfn = energy('scf', return_wfn=True)
gdma(wfn)
dmavals = variable('DMA DISTRIBUTED MULTIPOLES')
charges = np.array(dmavals)
print(charges)
np.save('SSI-016PHE-034VAL-1-dimer.npy', np.array(charges))--------------------------------------------------------------------------

*** tstart() called on ds3
*** at Sun Apr 26 18:57:24 2020

   => Loading Basis Set <=

    Name: CC-PVDZ
    Role: ORBITAL
    Keyword: BASIS
    atoms 1-7, 16-17  entry C          line   138 file /theoryfs2/ds/metcalf/miniconda2/envs/tf2gpu/share/psi4/basis/cc-pvdz.gbs
    atoms 8-15, 18-23 entry H          line    22 file /theoryfs2/ds/metcalf/miniconda2/envs/tf2gpu/share/psi4/basis/cc-pvdz.gbs

         ---------------------------------------------------------
                                   SCF
               by Justin Turney, Rob Parrish, Andy Simmonett
                          and Daniel G. A. Smith
                              RHF Reference
                        1 Threads,    500 MiB Core
         ---------------------------------------------------------

  ==> Geometry <==

    Molecular point group: c1
    Full point group: C1

    Geometry (in Angstrom), charge = 0, multiplicity = 1:

       Center              X                  Y                   Z               Mass
    ------------   -----------------  -----------------  -----------------  -----------------
         C            0.665356561302    -2.643049059171    -0.688605260886    12.000000000000
         C           -1.713643438698     0.900950940829    -0.014605260886    12.000000000000
         C           -1.496643438698     0.435950940829    -1.311605260886    12.000000000000
         C           -1.173643438698     0.202950940829     1.071394739114    12.000000000000
         C           -0.737643438698    -0.720049059171    -1.526605260886    12.000000000000
         C           -0.413643438698    -0.957049059171     0.849394739114    12.000000000000
         C           -0.189643438698    -1.422049059171    -0.449605260886    12.000000000000
         H           -2.291643438698     1.799950940829     0.150394739114     1.007825032230
         H           -1.935643438698     0.958950940829    -2.138605260886     1.007825032230
         H           -1.323643438698     0.587950940829     2.066394739114     1.007825032230
         H           -0.570643438698    -1.056049059171    -2.540605260886     1.007825032230
         H            0.013356561302    -1.482049059171     1.691394739114     1.007825032230
         H            0.957356561302    -3.071049059171     0.269394739114     1.007825032230
         H            1.575356561302    -2.322049059171    -1.197605260886     1.007825032230
         H            0.180666561302    -3.424742059171    -1.291954260886     1.007825032230
         C            1.697356561302     2.468950940829     0.586394739114    12.000000000000
         C            2.574356561302     1.428950940829     1.272394739114    12.000000000000
         H            2.164356561302     3.452950940829     0.589394739114     1.007825032230
         H            1.535356561302     2.170950940829    -0.449605260886     1.007825032230
         H            0.723356561302     2.521950940829     1.071394739114     1.007825032230
         H            2.122356561302     0.446950940829     1.139394739114     1.007825032230
         H            2.658276561302     1.630218940829     2.350564739114     1.007825032230
         H            3.571226561302     1.410995940829     0.807714739114     1.007825032230

  Running in c1 symmetry.

  Rotational constants: A =      0.05837  B =      0.03514  C =      0.02798 [cm^-1]
  Rotational constants: A =   1749.80106  B =   1053.35046  C =    838.96503 [MHz]
  Nuclear repulsion =  419.212110800995902

  Charge       = 0
  Multiplicity = 1
  Electrons    = 68
  Nalpha       = 34
  Nbeta        = 34

  ==> Algorithm <==

  SCF Algorithm Type is PK.
  DIIS enabled.
  MOM disabled.
  Fractional occupation disabled.
  Guess Type is SAD.
  Energy threshold   = 1.00e-06
  Density threshold  = 1.00e-10
  Integral threshold = 0.00e+00

  ==> Primary Basis <==

  Basis Set: CC-PVDZ
    Blend: CC-PVDZ
    Number of shells: 96
    Number of basis function: 196
    Number of Cartesian functions: 205
    Spherical Harmonics?: true
    Max angular momentum: 2

  ==> Pre-Iterations <==

   -------------------------------------------------------
    Irrep   Nso     Nmo     Nalpha   Nbeta   Ndocc  Nsocc
   -------------------------------------------------------
     A        196     196       0       0       0       0
   -------------------------------------------------------
    Total     196     196      34      34      34       0
   -------------------------------------------------------

  ==> Integral Setup <==

  Using integral reordering PK algorithm.
  Sizing the integral batches needed.
  Building batch lookup table.
   Calculation information:
      Number of atoms:                  23
      Number of AO shells:              96
      Number of primitives:            268
      Number of atomic orbitals:       205
      Number of basis functions:       196

      Integral cutoff                 1.00e-12
      Number of threads:                 1

	Batch   1 pq = [       0,    9405] index = [             0,44231715] size =     44231715
	Batch   2 pq = [    9405,   13301] index = [      44231715,88464951] size =     44233236
	Batch   3 pq = [   13301,   16290] index = [      88464951,132690195] size =     44225244
	Batch   4 pq = [   16290,   18810] index = [     132690195,176917455] size =     44227260
	Batch   5 pq = [   18810,   19306] index = [     176917455,186370471] size =      9453016
  Task number: 17
  Buffer size: 11059200
  Buffer per thread: 2
  We computed 10860402 shell quartets total.
  Whereas there are 10841496 unique shell quartets.
     0.17 percent of shell quartets recomputed by reordering.

  ==> DiskJK: Disk-Based J/K Matrices <==

    J tasked:                  Yes
    K tasked:                  Yes
    wK tasked:                  No
    Memory [MiB]:              375
    Schwarz Cutoff:          1E-12

    OpenMP threads:              1

  Minimum eigenvalue in the overlap matrix is 3.2170674944E-04.
  Using Symmetric Orthogonalization.

  SCF Guess: Superposition of Atomic Densities via on-the-fly atomic UHF.

  ==> Iterations <==

                        Total Energy        Delta E     RMS |[F,P]|

   @RHF iter SAD:  -347.80776631219067   -3.47808e+02   0.00000e+00
   @RHF iter   1:  -348.76877248460153   -9.61006e-01   2.88344e-03 DIIS
   @RHF iter   2:  -348.95940736729943   -1.90635e-01   1.20240e-03 DIIS
   @RHF iter   3:  -348.98959592851793   -3.01886e-02   2.58772e-04 DIIS
   @RHF iter   4:  -348.99207117008626   -2.47524e-03   5.26037e-05 DIIS
   @RHF iter   5:  -348.99214400621702   -7.28361e-05   1.79476e-05 DIIS
   @RHF iter   6:  -348.99215179739082   -7.79117e-06   4.88624e-06 DIIS
   @RHF iter   7:  -348.99215247158753   -6.74197e-07   1.25003e-06 DIIS
   @RHF iter   8:  -348.99215252190743   -5.03199e-08   2.95476e-07 DIIS
   @RHF iter   9:  -348.99215252736343   -5.45600e-09   1.20855e-07 DIIS
   @RHF iter  10:  -348.99215252846113   -1.09770e-09   5.49533e-08 DIIS
   @RHF iter  11:  -348.99215252883903   -3.77895e-10   2.10830e-08 DIIS
   @RHF iter  12:  -348.99215252889661   -5.75824e-11   9.80732e-09 DIIS
   @RHF iter  13:  -348.99215252890951   -1.29035e-11   3.93072e-09 DIIS
   @RHF iter  14:  -348.99215252890718    2.33058e-12   1.02066e-09 DIIS
   @RHF iter  15:  -348.99215252890843   -1.25056e-12   3.79193e-10 DIIS
   @RHF iter  16:  -348.99215252890735    1.08002e-12   1.32569e-10 DIIS
   @RHF iter  17:  -348.99215252891014   -2.78533e-12   5.84302e-11 DIIS
  Energy and wave function converged.

  ==> Post-Iterations <==

    Orbital Energies [Eh]
    ---------------------

    Doubly Occupied:

       1A    -11.243889     2A    -11.238417     3A    -11.237014
       4A    -11.234125     5A    -11.233214     6A    -11.233013
       7A    -11.230905     8A    -11.210067     9A    -11.205900
      10A     -1.150081    11A     -1.043924    12A     -1.011085
      13A     -1.008556    14A     -0.931640    15A     -0.828448
      16A     -0.825760    17A     -0.795098    18A     -0.690752
      19A     -0.634049    20A     -0.629913    21A     -0.590891
      22A     -0.588301    23A     -0.582519    24A     -0.575579
      25A     -0.563588    26A     -0.536397    27A     -0.494713
      28A     -0.487276    29A     -0.483499    30A     -0.482046
      31A     -0.476665    32A     -0.474905    33A     -0.331012
      34A     -0.321997

    Virtual:

      35A      0.130852    36A      0.139997    37A      0.173759
      38A      0.196850    39A      0.205535    40A      0.215523
      41A      0.238090    42A      0.249099    43A      0.253312
      44A      0.259607    45A      0.270964    46A      0.271996
      47A      0.282313    48A      0.291209    49A      0.312801
      50A      0.324026    51A      0.362133    52A      0.373735
      53A      0.407785    54A      0.449213    55A      0.461189
      56A      0.469960    57A      0.497901    58A      0.564010
      59A      0.578698    60A      0.596708    61A      0.604241
      62A      0.614533    63A      0.630279    64A      0.655573
      65A      0.676344    66A      0.685880    67A      0.704503
      68A      0.708674    69A      0.738258    70A      0.740638
      71A      0.745444    72A      0.751896    73A      0.761330
      74A      0.780894    75A      0.803793    76A      0.835115
      77A      0.846403    78A      0.852136    79A      0.858167
      80A      0.862329    81A      0.868063    82A      0.888338
      83A      0.893929    84A      0.897087    85A      0.907520
      86A      0.915144    87A      0.919554    88A      0.926212
      89A      0.938381    90A      0.941639    91A      0.955389
      92A      0.986840    93A      0.997451    94A      1.014990
      95A      1.028657    96A      1.063264    97A      1.119395
      98A      1.127282    99A      1.132305   100A      1.150211
     101A      1.152697   102A      1.166059   103A      1.199704
     104A      1.217031   105A      1.240245   106A      1.242373
     107A      1.252946   108A      1.268865   109A      1.301847
     110A      1.305434   111A      1.319476   112A      1.334404
     113A      1.412535   114A      1.483142   115A      1.487796
     116A      1.500011   117A      1.524503   118A      1.554374
     119A      1.579753   120A      1.608471   121A      1.672642
     122A      1.687457   123A      1.694321   124A      1.700086
     125A      1.736284   126A      1.755470   127A      1.759696
     128A      1.788500   129A      1.812942   130A      1.855810
     131A      1.869810   132A      1.875143   133A      1.893163
     134A      1.902309   135A      1.906530   136A      1.908866
     137A      1.921498   138A      1.928699   139A      1.940885
     140A      1.949680   141A      1.956739   142A      1.959947
     143A      1.967970   144A      1.972112   145A      1.974060
     146A      1.982893   147A      1.991688   148A      2.011128
     149A      2.029871   150A      2.053949   151A      2.075762
     152A      2.102429   153A      2.119556   154A      2.123658
     155A      2.132389   156A      2.150219   157A      2.164253
     158A      2.172139   159A      2.196125   160A      2.248873
     161A      2.260154   162A      2.283417   163A      2.290816
     164A      2.314925   165A      2.325057   166A      2.332282
     167A      2.367910   168A      2.433961   169A      2.455408
     170A      2.471082   171A      2.484738   172A      2.510698
     173A      2.531656   174A      2.578823   175A      2.580598
     176A      2.628922   177A      2.724293   178A      2.751846
     179A      2.767006   180A      2.770035   181A      2.788103
     182A      2.804385   183A      2.811514   184A      2.842549
     185A      2.855304   186A      2.867620   187A      2.888656
     188A      2.965548   189A      2.969094   190A      2.982152
     191A      3.013448   192A      3.033723   193A      3.155124
     194A      3.186214   195A      3.295475   196A      3.948451

    Final Occupation by Irrep:
              A
    DOCC [    34 ]

  @RHF Final Energy:  -348.99215252891014

   => Energetics <=

    Nuclear Repulsion Energy =            419.2121108009959016
    One-Electron Energy =               -1301.1980544619636930
    Two-Electron Energy =                 532.9937911320577086
    Total Energy =                       -348.9921525289100828

Computation Completed

Properties will be evaluated at   0.000000,   0.000000,   0.000000 [a0]

Properties computed using the SCF density matrix

  Nuclear Dipole Moment: [e a0]
     X:     8.7935      Y:     3.3983      Z:     2.3602

  Electronic Dipole Moment: [e a0]
     X:    -8.7930      Y:    -3.5381      Z:    -2.4427

  Dipole Moment: [e a0]
     X:     0.0005      Y:    -0.1398      Z:    -0.0824     Total:     0.1623

  Dipole Moment: [D]
     X:     0.0013      Y:    -0.3554      Z:    -0.2095     Total:     0.4125

*** tstop() called on ds3 at Sun Apr 26 18:59:54 2020
Module time:
	user time   =      75.09 seconds =       1.25 minutes
	system time =      25.06 seconds =       0.42 minutes
	total time  =        150 seconds =       2.50 minutes
Total time:
	user time   =      75.09 seconds =       1.25 minutes
	system time =      25.06 seconds =       0.42 minutes
	total time  =        150 seconds =       2.50 minutes
                                     G D M A

                                 by Anthony Stone

                           version 2.2.06, 22 June 2011

               Distributed Multipoles from Gaussian wavefunctions

Starting at 18:59:54 on 26 Apr 2020

Using SCF density matrix from file ./SSI/SSI-016PHE-034VAL-1-dimer.test.26925.fchk

                         Distributed Multipole Analysis

Standard DMA

Positions and radii in angstrom
Multipole moments in atomic units, ea_0^k for rank k

C          x =  0.665357  y = -2.643049  z = -0.688605 angstrom
           Maximum rank =  0   Radius =  0.650 angstrom
                   Q00  =  -0.202811

C          x = -1.713643  y =  0.900951  z = -0.014605 angstrom
           Maximum rank =  0   Radius =  0.650 angstrom
                   Q00  =  -0.080301

C          x = -1.496643  y =  0.435951  z = -1.311605 angstrom
           Maximum rank =  0   Radius =  0.650 angstrom
                   Q00  =  -0.076624

C          x = -1.173643  y =  0.202951  z =  1.071395 angstrom
           Maximum rank =  0   Radius =  0.650 angstrom
                   Q00  =  -0.079130

C          x = -0.737643  y = -0.720049  z = -1.526605 angstrom
           Maximum rank =  0   Radius =  0.650 angstrom
                   Q00  =  -0.022171

C          x = -0.413643  y = -0.957049  z =  0.849395 angstrom
           Maximum rank =  0   Radius =  0.650 angstrom
                   Q00  =  -0.058677

C          x = -0.189643  y = -1.422049  z = -0.449605 angstrom
           Maximum rank =  0   Radius =  0.650 angstrom
                   Q00  =  -0.097851

H          x = -2.291643  y =  1.799951  z =  0.150395 angstrom
           Maximum rank =  0   Radius =  0.325 angstrom
                   Q00  =   0.063467

H          x = -1.935643  y =  0.958951  z = -2.138605 angstrom
           Maximum rank =  0   Radius =  0.325 angstrom
                   Q00  =   0.065793

H          x = -1.323643  y =  0.587951  z =  2.066395 angstrom
           Maximum rank =  0   Radius =  0.325 angstrom
                   Q00  =   0.067303

H          x = -0.570643  y = -1.056049  z = -2.540605 angstrom
           Maximum rank =  0   Radius =  0.325 angstrom
                   Q00  =   0.057001

H          x =  0.013357  y = -1.482049  z =  1.691395 angstrom
           Maximum rank =  0   Radius =  0.325 angstrom
                   Q00  =   0.061639

H          x =  0.957357  y = -3.071049  z =  0.269395 angstrom
           Maximum rank =  0   Radius =  0.325 angstrom
                   Q00  =   0.098008

H          x =  1.575357  y = -2.322049  z = -1.197605 angstrom
           Maximum rank =  0   Radius =  0.325 angstrom
                   Q00  =   0.102171

H          x =  0.180667  y = -3.424742  z = -1.291954 angstrom
           Maximum rank =  0   Radius =  0.325 angstrom
                   Q00  =   0.103255

C          x =  1.697357  y =  2.468951  z =  0.586395 angstrom
           Maximum rank =  0   Radius =  0.650 angstrom
                   Q00  =  -0.229335

C          x =  2.574357  y =  1.428951  z =  1.272395 angstrom
           Maximum rank =  0   Radius =  0.650 angstrom
                   Q00  =  -0.236217

H          x =  2.164357  y =  3.452951  z =  0.589395 angstrom
           Maximum rank =  0   Radius =  0.325 angstrom
                   Q00  =   0.071676

H          x =  1.535357  y =  2.170951  z = -0.449605 angstrom
           Maximum rank =  0   Radius =  0.325 angstrom
                   Q00  =   0.081442

H          x =  0.723357  y =  2.521951  z =  1.071395 angstrom
           Maximum rank =  0   Radius =  0.325 angstrom
                   Q00  =   0.080756

H          x =  2.122357  y =  0.446951  z =  1.139395 angstrom
           Maximum rank =  0   Radius =  0.325 angstrom
                   Q00  =   0.085112

H          x =  2.658277  y =  1.630219  z =  2.350565 angstrom
           Maximum rank =  0   Radius =  0.325 angstrom
                   Q00  =   0.072128

H          x =  3.571227  y =  1.410996  z =  0.807715 angstrom
           Maximum rank =  0   Radius =  0.325 angstrom
                   Q00  =   0.073364

Total multipoles referred to origin at
           x =   0.000000,  y =    0.000000,  z =    0.000000 angstrom
                   Q00  =  -0.000000

Finished at 18:59:54 on 26 Apr 2020

  DMA results are available in the Python driver through the
	  variable('DMA DISTRIBUTED MULTIPOLES')
  and
	  variable('DMA TOTAL MULTIPOLES')
  commands.

    Psi4 stopped on: Sunday, 26 April 2020 06:59PM
    Psi4 wall time for execution: 0:02:29.61

*** Psi4 exiting successfully. Buy a developer a beer!
