                               Psi4 1.3.2 release

  ==> Input File <==

--------------------------------------------------------------------------
import numpy as np
set {scf_type pk
basis cc-pvdz
d_convergence 10
gdma_switch   0
gdma_limit    0
gdma_origin   [ 0.0,  0.0,  0.0 ]
}
molecule test {
    units Angstrom
    0 1
    --
    0 1
    C               -0.231053332795885    -2.927262640907935     0.517708728739416
    C                1.718946667204115     0.137737359092065     0.504708728739416
    C                0.416946667204115    -1.608262640907935     0.807708728739416
    C                0.200946667204115    -0.741262640907936     1.833708728739416
    N                1.359946667204115    -1.027262640907935    -0.018291271260584
    N                1.028946667204115     0.338737359092065     1.626708728739416
    H                2.426946667204115     0.826737359092064     0.063708728739416
    H                1.062946667204115     1.171737359092065     2.204708728739416
    H               -0.502053332795885    -0.880262640907936     2.643708728739416
    H               -0.441053332795885    -2.979262640907935    -0.550291271260584
    H               -1.177053332795885    -2.971262640907935     1.052708728739416
    H                0.370734667204115    -3.797873640907936     0.817521728739416
    C               -1.021053332795886     1.669737359092064    -1.232291271260584
    C               -0.618053332795885     1.610737359092065    -2.702291271260584
    C               -2.458053332795886     2.154737359092065    -0.997291271260584
    H               -0.922053332795885     0.668737359092065    -0.813291271260584
    H               -0.333053332795885     2.322737359092065    -0.695291271260584
    H               -0.666053332795885     2.620737359092064    -3.107291271260584
    H               -3.157053332795885     1.498737359092065    -1.515291271260584
    H               -1.296387332795885     0.954964359092064    -3.267820271260584
    H                0.435552667204115     1.310222359092065    -2.800301271260584
    H               -2.689035332795885     2.109844359092065     0.077246728739416
    H               -2.593564332795886     3.184473359092064    -1.359619071260584

}
e, wfn = energy('scf', return_wfn=True)
gdma(wfn)
dmavals = variable('DMA DISTRIBUTED MULTIPOLES')
charges = np.array(dmavals)
print(charges)
np.save('SSI-091HIE-121LEU-1-dimer.npy', np.array(charges))--------------------------------------------------------------------------

*** tstart() called on ds3
*** at Tue Apr 28 21:45:57 2020

   => Loading Basis Set <=

    Name: CC-PVDZ
    Role: ORBITAL
    Keyword: BASIS
    atoms 1-4, 13-15  entry C          line   138 file /theoryfs2/ds/metcalf/miniconda2/envs/tf2gpu/share/psi4/basis/cc-pvdz.gbs
    atoms 5-6         entry N          line   168 file /theoryfs2/ds/metcalf/miniconda2/envs/tf2gpu/share/psi4/basis/cc-pvdz.gbs
    atoms 7-12, 16-23 entry H          line    22 file /theoryfs2/ds/metcalf/miniconda2/envs/tf2gpu/share/psi4/basis/cc-pvdz.gbs

         ---------------------------------------------------------
                                   SCF
               by Justin Turney, Rob Parrish, Andy Simmonett
                          and Daniel G. A. Smith
                              RHF Reference
                        1 Threads,    500 MiB Core
         ---------------------------------------------------------

  ==> Geometry <==

    Molecular point group: c1
    Full point group: C1

    Geometry (in Angstrom), charge = 0, multiplicity = 1:

       Center              X                  Y                   Z               Mass
    ------------   -----------------  -----------------  -----------------  -----------------
         C           -0.231053332796    -2.927262640908     0.517708728739    12.000000000000
         C            1.718946667204     0.137737359092     0.504708728739    12.000000000000
         C            0.416946667204    -1.608262640908     0.807708728739    12.000000000000
         C            0.200946667204    -0.741262640908     1.833708728739    12.000000000000
         N            1.359946667204    -1.027262640908    -0.018291271261    14.003074004430
         N            1.028946667204     0.338737359092     1.626708728739    14.003074004430
         H            2.426946667204     0.826737359092     0.063708728739     1.007825032230
         H            1.062946667204     1.171737359092     2.204708728739     1.007825032230
         H           -0.502053332796    -0.880262640908     2.643708728739     1.007825032230
         H           -0.441053332796    -2.979262640908    -0.550291271261     1.007825032230
         H           -1.177053332796    -2.971262640908     1.052708728739     1.007825032230
         H            0.370734667204    -3.797873640908     0.817521728739     1.007825032230
         C           -1.021053332796     1.669737359092    -1.232291271261    12.000000000000
         C           -0.618053332796     1.610737359092    -2.702291271261    12.000000000000
         C           -2.458053332796     2.154737359092    -0.997291271261    12.000000000000
         H           -0.922053332796     0.668737359092    -0.813291271261     1.007825032230
         H           -0.333053332796     2.322737359092    -0.695291271261     1.007825032230
         H           -0.666053332796     2.620737359092    -3.107291271261     1.007825032230
         H           -3.157053332796     1.498737359092    -1.515291271261     1.007825032230
         H           -1.296387332796     0.954964359092    -3.267820271261     1.007825032230
         H            0.435552667204     1.310222359092    -2.800301271261     1.007825032230
         H           -2.689035332796     2.109844359092     0.077246728739     1.007825032230
         H           -2.593564332796     3.184473359092    -1.359619071261     1.007825032230

  Running in c1 symmetry.

  Rotational constants: A =      0.06864  B =      0.02521  C =      0.02405 [cm^-1]
  Rotational constants: A =   2057.86359  B =    755.90652  C =    720.95313 [MHz]
  Nuclear repulsion =  437.407956207326492

  Charge       = 0
  Multiplicity = 1
  Electrons    = 70
  Nalpha       = 35
  Nbeta        = 35

  ==> Algorithm <==

  SCF Algorithm Type is PK.
  DIIS enabled.
  MOM disabled.
  Fractional occupation disabled.
  Guess Type is SAD.
  Energy threshold   = 1.00e-06
  Density threshold  = 1.00e-10
  Integral threshold = 0.00e+00

  ==> Primary Basis <==

  Basis Set: CC-PVDZ
    Blend: CC-PVDZ
    Number of shells: 96
    Number of basis function: 196
    Number of Cartesian functions: 205
    Spherical Harmonics?: true
    Max angular momentum: 2

  ==> Pre-Iterations <==

   -------------------------------------------------------
    Irrep   Nso     Nmo     Nalpha   Nbeta   Ndocc  Nsocc
   -------------------------------------------------------
     A        196     196       0       0       0       0
   -------------------------------------------------------
    Total     196     196      35      35      35       0
   -------------------------------------------------------

  ==> Integral Setup <==

  Using integral reordering PK algorithm.
  Sizing the integral batches needed.
  Building batch lookup table.
   Calculation information:
      Number of atoms:                  23
      Number of AO shells:              96
      Number of primitives:            268
      Number of atomic orbitals:       205
      Number of basis functions:       196

      Integral cutoff                 1.00e-12
      Number of threads:                 1

	Batch   1 pq = [       0,    9405] index = [             0,44231715] size =     44231715
	Batch   2 pq = [    9405,   13301] index = [      44231715,88464951] size =     44233236
	Batch   3 pq = [   13301,   16290] index = [      88464951,132690195] size =     44225244
	Batch   4 pq = [   16290,   18810] index = [     132690195,176917455] size =     44227260
	Batch   5 pq = [   18810,   19306] index = [     176917455,186370471] size =      9453016
  Task number: 17
  Buffer size: 11059200
  Buffer per thread: 2
  We computed 9582432 shell quartets total.
  Whereas there are 10841496 unique shell quartets.

  ==> DiskJK: Disk-Based J/K Matrices <==

    J tasked:                  Yes
    K tasked:                  Yes
    wK tasked:                  No
    Memory [MiB]:              375
    Schwarz Cutoff:          1E-12

    OpenMP threads:              1

  Minimum eigenvalue in the overlap matrix is 1.2165529712E-03.
  Using Symmetric Orthogonalization.

  SCF Guess: Superposition of Atomic Densities via on-the-fly atomic UHF.

  ==> Iterations <==

                        Total Energy        Delta E     RMS |[F,P]|

   @RHF iter SAD:  -381.19111427534830   -3.81191e+02   0.00000e+00
   @RHF iter   1:  -381.89442915498506   -7.03315e-01   3.13866e-03 DIIS
   @RHF iter   2:  -382.09269888637931   -1.98270e-01   1.57974e-03 DIIS
   @RHF iter   3:  -382.13862522999881   -4.59263e-02   4.00347e-04 DIIS
   @RHF iter   4:  -382.14250295410096   -3.87772e-03   1.71595e-04 DIIS
   @RHF iter   5:  -382.14313900276193   -6.36049e-04   2.50608e-05 DIIS
   @RHF iter   6:  -382.14316220317585   -2.32004e-05   1.03463e-05 DIIS
   @RHF iter   7:  -382.14316592441440   -3.72124e-06   3.60455e-06 DIIS
   @RHF iter   8:  -382.14316668287222   -7.58458e-07   1.51376e-06 DIIS
   @RHF iter   9:  -382.14316685613301   -1.73261e-07   5.51517e-07 DIIS
   @RHF iter  10:  -382.14316687540793   -1.92749e-08   1.62725e-07 DIIS
   @RHF iter  11:  -382.14316687739597   -1.98804e-09   7.00392e-08 DIIS
   @RHF iter  12:  -382.14316687765080   -2.54829e-10   2.98194e-08 DIIS
   @RHF iter  13:  -382.14316687769968   -4.88853e-11   8.93096e-09 DIIS
   @RHF iter  14:  -382.14316687770264   -2.95586e-12   2.90907e-09 DIIS
   @RHF iter  15:  -382.14316687770201    6.25278e-13   1.13426e-09 DIIS
   @RHF iter  16:  -382.14316687770457   -2.55795e-12   4.11550e-10 DIIS
   @RHF iter  17:  -382.14316687770474   -1.70530e-13   1.42880e-10 DIIS
   @RHF iter  18:  -382.14316687770480   -5.68434e-14   4.27010e-11 DIIS
  Energy and wave function converged.

  ==> Post-Iterations <==

    Orbital Energies [Eh]
    ---------------------

    Doubly Occupied:

       1A    -15.621847     2A    -15.529352     3A    -11.293580
       4A    -11.251645     5A    -11.242484     6A    -11.224194
       7A    -11.213857     8A    -11.211522     9A    -11.209445
      10A     -1.341048    11A     -1.153987    12A     -1.045443
      13A     -1.032035    14A     -0.940958    15A     -0.918319
      16A     -0.818882    17A     -0.789152    18A     -0.763033
      19A     -0.740974    20A     -0.619897    21A     -0.610935
      22A     -0.604718    23A     -0.597079    24A     -0.585092
      25A     -0.552857    26A     -0.542065    27A     -0.540838
      28A     -0.526906    29A     -0.522803    30A     -0.465682
      31A     -0.464979    32A     -0.456739    33A     -0.411504
      34A     -0.378859    35A     -0.310085

    Virtual:

      36A      0.163859    37A      0.184895    38A      0.190137
      39A      0.198536    40A      0.212740    41A      0.224527
      42A      0.234177    43A      0.243155    44A      0.247142
      45A      0.260736    46A      0.274078    47A      0.280621
      48A      0.300610    49A      0.303632    50A      0.309242
      51A      0.309706    52A      0.368837    53A      0.382467
      54A      0.395284    55A      0.426560    56A      0.429321
      57A      0.481349    58A      0.492438    59A      0.579339
      60A      0.595444    61A      0.607657    62A      0.612024
      63A      0.619952    64A      0.622024    65A      0.632876
      66A      0.661681    67A      0.668550    68A      0.709853
      69A      0.743257    70A      0.756496    71A      0.774652
      72A      0.790204    73A      0.807958    74A      0.814175
      75A      0.820638    76A      0.836229    77A      0.867952
      78A      0.871055    79A      0.887084    80A      0.890108
      81A      0.895453    82A      0.902177    83A      0.905742
      84A      0.908321    85A      0.915798    86A      0.922290
      87A      0.932022    88A      0.940706    89A      0.959015
      90A      0.968012    91A      0.973246    92A      0.981956
      93A      0.997845    94A      1.034451    95A      1.067117
      96A      1.103522    97A      1.112868    98A      1.126834
      99A      1.140200   100A      1.144118   101A      1.170494
     102A      1.185983   103A      1.244195   104A      1.250332
     105A      1.277058   106A      1.309373   107A      1.324915
     108A      1.335379   109A      1.391651   110A      1.421475
     111A      1.445698   112A      1.477339   113A      1.480027
     114A      1.497895   115A      1.527869   116A      1.554828
     117A      1.567963   118A      1.593673   119A      1.635926
     120A      1.643567   121A      1.687639   122A      1.688879
     123A      1.692234   124A      1.702738   125A      1.749752
     126A      1.779964   127A      1.809963   128A      1.828482
     129A      1.854958   130A      1.878967   131A      1.882748
     132A      1.895449   133A      1.904373   134A      1.911365
     135A      1.925791   136A      1.935097   137A      1.945777
     138A      1.962412   139A      1.966396   140A      1.971648
     141A      1.980414   142A      1.981315   143A      1.990802
     144A      1.992006   145A      2.006195   146A      2.013529
     147A      2.040144   148A      2.050042   149A      2.105710
     150A      2.114039   151A      2.139182   152A      2.146430
     153A      2.158326   154A      2.206968   155A      2.216064
     156A      2.237230   157A      2.286691   158A      2.304319
     159A      2.316746   160A      2.338991   161A      2.350085
     162A      2.361886   163A      2.387417   164A      2.442762
     165A      2.455321   166A      2.485969   167A      2.507974
     168A      2.537601   169A      2.556639   170A      2.592486
     171A      2.610699   172A      2.615254   173A      2.631104
     174A      2.694783   175A      2.723590   176A      2.754849
     177A      2.757828   178A      2.761308   179A      2.783445
     180A      2.790474   181A      2.793340   182A      2.815147
     183A      2.836206   184A      2.861801   185A      2.892140
     186A      2.912053   187A      2.933392   188A      2.958877
     189A      2.980361   190A      2.999489   191A      3.060150
     192A      3.092524   193A      3.161953   194A      3.235391
     195A      3.466810   196A      3.798082

    Final Occupation by Irrep:
              A
    DOCC [    35 ]

  @RHF Final Energy:  -382.14316687770480

   => Energetics <=

    Nuclear Repulsion Energy =            437.4079562073264924
    One-Electron Energy =               -1384.0366534708070958
    Two-Electron Energy =                 564.4855303857757463
    Total Energy =                       -382.1431668777048571

Computation Completed

Properties will be evaluated at   0.000000,   0.000000,   0.000000 [a0]

Properties computed using the SCF density matrix

  Nuclear Dipole Moment: [e a0]
     X:    -8.8953      Y:     5.6646      Z:    -6.8009

  Electronic Dipole Moment: [e a0]
     X:     8.7469      Y:    -4.8660      Z:     7.8464

  Dipole Moment: [e a0]
     X:    -0.1484      Y:     0.7986      Z:     1.0455     Total:     1.3239

  Dipole Moment: [D]
     X:    -0.3772      Y:     2.0297      Z:     2.6574     Total:     3.3651

*** tstop() called on ds3 at Tue Apr 28 21:47:27 2020
Module time:
	user time   =      64.47 seconds =       1.07 minutes
	system time =      28.27 seconds =       0.47 minutes
	total time  =         90 seconds =       1.50 minutes
Total time:
	user time   =      64.47 seconds =       1.07 minutes
	system time =      28.27 seconds =       0.47 minutes
	total time  =         90 seconds =       1.50 minutes
                                     G D M A

                                 by Anthony Stone

                           version 2.2.06, 22 June 2011

               Distributed Multipoles from Gaussian wavefunctions

Starting at 21:47:27 on 28 Apr 2020

Using SCF density matrix from file ./SSI/SSI-091HIE-121LEU-1-dimer.test.28725.fchk

                         Distributed Multipole Analysis

Standard DMA

Positions and radii in angstrom
Multipole moments in atomic units, ea_0^k for rank k

C          x = -0.231053  y = -2.927263  z =  0.517709 angstrom
           Maximum rank =  0   Radius =  0.650 angstrom
                   Q00  =  -0.193670

C          x =  1.718947  y =  0.137737  z =  0.504709 angstrom
           Maximum rank =  0   Radius =  0.650 angstrom
                   Q00  =   0.467334

C          x =  0.416947  y = -1.608263  z =  0.807709 angstrom
           Maximum rank =  0   Radius =  0.650 angstrom
                   Q00  =   0.220626

C          x =  0.200947  y = -0.741263  z =  1.833709 angstrom
           Maximum rank =  0   Radius =  0.650 angstrom
                   Q00  =  -0.003115

N          x =  1.359947  y = -1.027263  z = -0.018291 angstrom
           Maximum rank =  0   Radius =  0.650 angstrom
                   Q00  =  -0.769684

N          x =  1.028947  y =  0.338737  z =  1.626709 angstrom
           Maximum rank =  0   Radius =  0.650 angstrom
                   Q00  =  -0.476196

H          x =  2.426947  y =  0.826737  z =  0.063709 angstrom
           Maximum rank =  0   Radius =  0.325 angstrom
                   Q00  =   0.123586

H          x =  1.062947  y =  1.171737  z =  2.204709 angstrom
           Maximum rank =  0   Radius =  0.325 angstrom
                   Q00  =   0.221382

H          x = -0.502053  y = -0.880263  z =  2.643709 angstrom
           Maximum rank =  0   Radius =  0.325 angstrom
                   Q00  =   0.102318

H          x = -0.441053  y = -2.979263  z = -0.550291 angstrom
           Maximum rank =  0   Radius =  0.325 angstrom
                   Q00  =   0.115531

H          x = -1.177053  y = -2.971263  z =  1.052709 angstrom
           Maximum rank =  0   Radius =  0.325 angstrom
                   Q00  =   0.091192

H          x =  0.370735  y = -3.797874  z =  0.817522 angstrom
           Maximum rank =  0   Radius =  0.325 angstrom
                   Q00  =   0.105394

C          x = -1.021053  y =  1.669737  z = -1.232291 angstrom
           Maximum rank =  0   Radius =  0.650 angstrom
                   Q00  =  -0.071784

C          x = -0.618053  y =  1.610737  z = -2.702291 angstrom
           Maximum rank =  0   Radius =  0.650 angstrom
                   Q00  =  -0.237670

C          x = -2.458053  y =  2.154737  z = -0.997291 angstrom
           Maximum rank =  0   Radius =  0.650 angstrom
                   Q00  =  -0.249770

H          x = -0.922053  y =  0.668737  z = -0.813291 angstrom
           Maximum rank =  0   Radius =  0.325 angstrom
                   Q00  =   0.061748

H          x = -0.333053  y =  2.322737  z = -0.695291 angstrom
           Maximum rank =  0   Radius =  0.325 angstrom
                   Q00  =   0.030019

H          x = -0.666053  y =  2.620737  z = -3.107291 angstrom
           Maximum rank =  0   Radius =  0.325 angstrom
                   Q00  =   0.065066

H          x = -3.157053  y =  1.498737  z = -1.515291 angstrom
           Maximum rank =  0   Radius =  0.325 angstrom
                   Q00  =   0.078750

H          x = -1.296387  y =  0.954964  z = -3.267820 angstrom
           Maximum rank =  0   Radius =  0.325 angstrom
                   Q00  =   0.079871

H          x =  0.435553  y =  1.310222  z = -2.800301 angstrom
           Maximum rank =  0   Radius =  0.325 angstrom
                   Q00  =   0.088005

H          x = -2.689035  y =  2.109844  z =  0.077247 angstrom
           Maximum rank =  0   Radius =  0.325 angstrom
                   Q00  =   0.077549

H          x = -2.593564  y =  3.184473  z = -1.359619 angstrom
           Maximum rank =  0   Radius =  0.325 angstrom
                   Q00  =   0.073518

Total multipoles referred to origin at
           x =   0.000000,  y =    0.000000,  z =    0.000000 angstrom
                   Q00  =  -0.000000

Finished at 21:47:27 on 28 Apr 2020

  DMA results are available in the Python driver through the
	  variable('DMA DISTRIBUTED MULTIPOLES')
  and
	  variable('DMA TOTAL MULTIPOLES')
  commands.

    Psi4 stopped on: Tuesday, 28 April 2020 09:47PM
    Psi4 wall time for execution: 0:01:29.74

*** Psi4 exiting successfully. Buy a developer a beer!
