                               Psi4 1.3.2 release

  ==> Input File <==

--------------------------------------------------------------------------
import numpy as np
set {scf_type pk
basis cc-pvdz
d_convergence 10
gdma_switch   0
gdma_limit    0
gdma_origin   [ 0.0,  0.0,  0.0 ]
}
molecule test {
    units Angstrom
    0 1
    --
    0 1
    C               -2.096150920525633     0.893887606804039    -1.531678316953609
    C               -2.835150920525633     2.001887606804039    -0.803678316953609
    H               -2.709150920525633    -0.006112393195961    -1.553678316953609
    H               -1.883150920525633     1.196887606804039    -2.555678316953609
    H               -1.163150920525633     0.672887606804039    -1.020678316953609
    H               -3.747150920525633     2.177887606804039    -1.373678316953609
    H               -3.090500920525633     1.699787606804039     0.222741683046391
    H               -2.238550920525633     2.925897606804039    -0.820408316953609
    C                1.816849079474367     1.718887606804039     0.112321683046391
    C                1.214849079474367     0.363887606804039     0.287321683046391
    C                0.456849079474367     0.061887606804039     1.419321683046391
    C                1.361849079474367    -0.593112393195961    -0.701678316953609
    C               -0.118150920525633    -1.179112393195961     1.573321683046391
    C                0.768849079474367    -1.833112393195961    -0.561678316953609
    C                0.019849079474367    -2.129112393195961     0.586321683046391
    H                1.169849079474367     2.448887606804039     0.599321683046391
    H                1.824849079474367     1.962887606804039    -0.950678316953609
    H                0.320849079474367     0.807887606804039     2.191321683046391
    H                1.923849079474367    -0.371112393195961    -1.595678316953609
    H               -0.696150920525633    -1.403112393195961     2.455321683046391
    H                0.876849079474367    -2.576112393195961    -1.340678316953609
    H               -0.441150920525633    -3.101112393195961     0.697321683046391
    H                2.831949079474368     1.828027606804039     0.521781683046391

}
e, wfn = energy('scf', return_wfn=True)
gdma(wfn)
dmavals = variable('DMA DISTRIBUTED MULTIPOLES')
charges = np.array(dmavals)
print(charges)
np.save('SSI-049LEU-107PHE-1-dimer.npy', np.array(charges))--------------------------------------------------------------------------

*** tstart() called on ds3
*** at Tue Apr 28 13:41:55 2020

   => Loading Basis Set <=

    Name: CC-PVDZ
    Role: ORBITAL
    Keyword: BASIS
    atoms 1-2, 9-15  entry C          line   138 file /theoryfs2/ds/metcalf/miniconda2/envs/tf2gpu/share/psi4/basis/cc-pvdz.gbs
    atoms 3-8, 16-23 entry H          line    22 file /theoryfs2/ds/metcalf/miniconda2/envs/tf2gpu/share/psi4/basis/cc-pvdz.gbs

         ---------------------------------------------------------
                                   SCF
               by Justin Turney, Rob Parrish, Andy Simmonett
                          and Daniel G. A. Smith
                              RHF Reference
                        1 Threads,    500 MiB Core
         ---------------------------------------------------------

  ==> Geometry <==

    Molecular point group: c1
    Full point group: C1

    Geometry (in Angstrom), charge = 0, multiplicity = 1:

       Center              X                  Y                   Z               Mass
    ------------   -----------------  -----------------  -----------------  -----------------
         C           -2.096150920526     0.893887606804    -1.531678316954    12.000000000000
         C           -2.835150920526     2.001887606804    -0.803678316954    12.000000000000
         H           -2.709150920526    -0.006112393196    -1.553678316954     1.007825032230
         H           -1.883150920526     1.196887606804    -2.555678316954     1.007825032230
         H           -1.163150920526     0.672887606804    -1.020678316954     1.007825032230
         H           -3.747150920526     2.177887606804    -1.373678316954     1.007825032230
         H           -3.090500920526     1.699787606804     0.222741683046     1.007825032230
         H           -2.238550920526     2.925897606804    -0.820408316954     1.007825032230
         C            1.816849079474     1.718887606804     0.112321683046    12.000000000000
         C            1.214849079474     0.363887606804     0.287321683046    12.000000000000
         C            0.456849079474     0.061887606804     1.419321683046    12.000000000000
         C            1.361849079474    -0.593112393196    -0.701678316954    12.000000000000
         C           -0.118150920526    -1.179112393196     1.573321683046    12.000000000000
         C            0.768849079474    -1.833112393196    -0.561678316954    12.000000000000
         C            0.019849079474    -2.129112393196     0.586321683046    12.000000000000
         H            1.169849079474     2.448887606804     0.599321683046     1.007825032230
         H            1.824849079474     1.962887606804    -0.950678316954     1.007825032230
         H            0.320849079474     0.807887606804     2.191321683046     1.007825032230
         H            1.923849079474    -0.371112393196    -1.595678316954     1.007825032230
         H           -0.696150920526    -1.403112393196     2.455321683046     1.007825032230
         H            0.876849079474    -2.576112393196    -1.340678316954     1.007825032230
         H           -0.441150920526    -3.101112393196     0.697321683046     1.007825032230
         H            2.831949079474     1.828027606804     0.521781683046     1.007825032230

  Running in c1 symmetry.

  Rotational constants: A =      0.05730  B =      0.03365  C =      0.02847 [cm^-1]
  Rotational constants: A =   1717.91233  B =   1008.92711  C =    853.39749 [MHz]
  Nuclear repulsion =  419.969352014763217

  Charge       = 0
  Multiplicity = 1
  Electrons    = 68
  Nalpha       = 34
  Nbeta        = 34

  ==> Algorithm <==

  SCF Algorithm Type is PK.
  DIIS enabled.
  MOM disabled.
  Fractional occupation disabled.
  Guess Type is SAD.
  Energy threshold   = 1.00e-06
  Density threshold  = 1.00e-10
  Integral threshold = 0.00e+00

  ==> Primary Basis <==

  Basis Set: CC-PVDZ
    Blend: CC-PVDZ
    Number of shells: 96
    Number of basis function: 196
    Number of Cartesian functions: 205
    Spherical Harmonics?: true
    Max angular momentum: 2

  ==> Pre-Iterations <==

   -------------------------------------------------------
    Irrep   Nso     Nmo     Nalpha   Nbeta   Ndocc  Nsocc
   -------------------------------------------------------
     A        196     196       0       0       0       0
   -------------------------------------------------------
    Total     196     196      34      34      34       0
   -------------------------------------------------------

  ==> Integral Setup <==

  Using integral reordering PK algorithm.
  Sizing the integral batches needed.
  Building batch lookup table.
   Calculation information:
      Number of atoms:                  23
      Number of AO shells:              96
      Number of primitives:            268
      Number of atomic orbitals:       205
      Number of basis functions:       196

      Integral cutoff                 1.00e-12
      Number of threads:                 1

	Batch   1 pq = [       0,    9405] index = [             0,44231715] size =     44231715
	Batch   2 pq = [    9405,   13301] index = [      44231715,88464951] size =     44233236
	Batch   3 pq = [   13301,   16290] index = [      88464951,132690195] size =     44225244
	Batch   4 pq = [   16290,   18810] index = [     132690195,176917455] size =     44227260
	Batch   5 pq = [   18810,   19306] index = [     176917455,186370471] size =      9453016
  Task number: 17
  Buffer size: 11059200
  Buffer per thread: 2
  We computed 10627943 shell quartets total.
  Whereas there are 10841496 unique shell quartets.

  ==> DiskJK: Disk-Based J/K Matrices <==

    J tasked:                  Yes
    K tasked:                  Yes
    wK tasked:                  No
    Memory [MiB]:              375
    Schwarz Cutoff:          1E-12

    OpenMP threads:              1

  Minimum eigenvalue in the overlap matrix is 2.9870874098E-04.
  Using Symmetric Orthogonalization.

  SCF Guess: Superposition of Atomic Densities via on-the-fly atomic UHF.

  ==> Iterations <==

                        Total Energy        Delta E     RMS |[F,P]|

   @RHF iter SAD:  -347.99389226730489   -3.47994e+02   0.00000e+00
   @RHF iter   1:  -348.76175903230586   -7.67867e-01   2.93201e-03 DIIS
   @RHF iter   2:  -348.95729219341081   -1.95533e-01   1.22597e-03 DIIS
   @RHF iter   3:  -348.98854290162211   -3.12507e-02   2.61308e-04 DIIS
   @RHF iter   4:  -348.99102842462224   -2.48552e-03   5.88234e-05 DIIS
   @RHF iter   5:  -348.99111550651736   -8.70819e-05   1.95469e-05 DIIS
   @RHF iter   6:  -348.99112481074832   -9.30423e-06   5.04361e-06 DIIS
   @RHF iter   7:  -348.99112553401511   -7.23267e-07   1.20555e-06 DIIS
   @RHF iter   8:  -348.99112557955482   -4.55397e-08   2.80463e-07 DIIS
   @RHF iter   9:  -348.99112558371303   -4.15821e-09   1.19936e-07 DIIS
   @RHF iter  10:  -348.99112558446473   -7.51697e-10   5.09960e-08 DIIS
   @RHF iter  11:  -348.99112558471336   -2.48633e-10   2.28384e-08 DIIS
   @RHF iter  12:  -348.99112558476583   -5.24665e-11   1.12527e-08 DIIS
   @RHF iter  13:  -348.99112558477736   -1.15392e-11   3.84394e-09 DIIS
   @RHF iter  14:  -348.99112558478117   -3.80851e-12   1.02815e-09 DIIS
   @RHF iter  15:  -348.99112558478038    7.95808e-13   3.60575e-10 DIIS
   @RHF iter  16:  -348.99112558478140   -1.02318e-12   1.18790e-10 DIIS
   @RHF iter  17:  -348.99112558477901    2.38742e-12   5.25791e-11 DIIS
  Energy and wave function converged.

  ==> Post-Iterations <==

    Orbital Energies [Eh]
    ---------------------

    Doubly Occupied:

       1A    -11.238763     2A    -11.235585     3A    -11.232651
       4A    -11.230842     5A    -11.229013     6A    -11.228270
       7A    -11.228212     8A    -11.211645     9A    -11.203140
      10A     -1.158122    11A     -1.047447    12A     -1.016290
      13A     -1.013001    14A     -0.932253    15A     -0.826082
      16A     -0.825385    17A     -0.798199    18A     -0.693188
      19A     -0.634763    20A     -0.629744    21A     -0.594740
      22A     -0.592336    23A     -0.585732    24A     -0.576741
      25A     -0.562821    26A     -0.533928    27A     -0.495855
      28A     -0.490805    29A     -0.485260    30A     -0.483210
      31A     -0.478646    32A     -0.467851    33A     -0.336729
      34A     -0.321466

    Virtual:

      35A      0.136409    36A      0.140839    37A      0.171787
      38A      0.194806    39A      0.208951    40A      0.215777
      41A      0.241735    42A      0.245497    43A      0.254939
      44A      0.261085    45A      0.265503    46A      0.272226
      47A      0.283627    48A      0.289698    49A      0.304363
      50A      0.324250    51A      0.369699    52A      0.377826
      53A      0.405050    54A      0.454214    55A      0.463443
      56A      0.486519    57A      0.490088    58A      0.563589
      59A      0.586448    60A      0.593479    61A      0.597502
      62A      0.607391    63A      0.653378    64A      0.658807
      65A      0.678584    66A      0.692590    67A      0.694486
      68A      0.708645    69A      0.736687    70A      0.743306
      71A      0.748119    72A      0.756150    73A      0.766780
      74A      0.775484    75A      0.782544    76A      0.822439
      77A      0.842286    78A      0.860093    79A      0.862585
      80A      0.872313    81A      0.873239    82A      0.888446
      83A      0.893237    84A      0.901593    85A      0.903908
      86A      0.907075    87A      0.914253    88A      0.920271
      89A      0.932321    90A      0.945760    91A      0.955208
      92A      0.968739    93A      0.987379    94A      0.996431
      95A      1.029926    96A      1.120050    97A      1.129166
      98A      1.138199    99A      1.140243   100A      1.147573
     101A      1.157951   102A      1.159969   103A      1.193404
     104A      1.241323   105A      1.244440   106A      1.255112
     107A      1.264465   108A      1.302004   109A      1.307451
     110A      1.321255   111A      1.333220   112A      1.374648
     113A      1.419848   114A      1.482804   115A      1.492205
     116A      1.515070   117A      1.523614   118A      1.556031
     119A      1.599238   120A      1.604961   121A      1.669225
     122A      1.683601   123A      1.700562   124A      1.711988
     125A      1.735493   126A      1.754368   127A      1.760883
     128A      1.790573   129A      1.826024   130A      1.859556
     131A      1.861808   132A      1.872355   133A      1.888704
     134A      1.905972   135A      1.913111   136A      1.917334
     137A      1.922930   138A      1.937990   139A      1.944243
     140A      1.952139   141A      1.954080   142A      1.962398
     143A      1.967274   144A      1.973461   145A      1.977566
     146A      1.994044   147A      2.009544   148A      2.015719
     149A      2.052167   150A      2.073324   151A      2.076818
     152A      2.108979   153A      2.118069   154A      2.142732
     155A      2.157633   156A      2.166360   157A      2.171680
     158A      2.180757   159A      2.188423   160A      2.259982
     161A      2.280921   162A      2.292654   163A      2.305164
     164A      2.306533   165A      2.311352   166A      2.322867
     167A      2.338074   168A      2.460293   169A      2.474237
     170A      2.479528   171A      2.499644   172A      2.505570
     173A      2.550495   174A      2.571934   175A      2.600077
     176A      2.626139   177A      2.750580   178A      2.763992
     179A      2.769583   180A      2.779253   181A      2.789173
     182A      2.812113   183A      2.820219   184A      2.851566
     185A      2.865035   186A      2.873732   187A      2.878739
     188A      2.954974   189A      3.005216   190A      3.006510
     191A      3.024258   192A      3.056274   193A      3.167885
     194A      3.214969   195A      3.312342   196A      3.993273

    Final Occupation by Irrep:
              A
    DOCC [    34 ]

  @RHF Final Energy:  -348.99112558477901

   => Energetics <=

    Nuclear Repulsion Energy =            419.9693520147632171
    One-Electron Energy =               -1302.6835251361162591
    Two-Electron Energy =                 533.7230475365739721
    Total Energy =                       -348.9911255847790699

Computation Completed

Properties will be evaluated at   0.000000,   0.000000,   0.000000 [a0]

Properties computed using the SCF density matrix

  Nuclear Dipole Moment: [e a0]
     X:    -6.5818      Y:     7.7468      Z:    -4.2405

  Electronic Dipole Moment: [e a0]
     X:     6.6801      Y:    -7.7051      Z:     4.2404

  Dipole Moment: [e a0]
     X:     0.0984      Y:     0.0417      Z:    -0.0001     Total:     0.1068

  Dipole Moment: [D]
     X:     0.2501      Y:     0.1059      Z:    -0.0002     Total:     0.2716

*** tstop() called on ds3 at Tue Apr 28 13:44:13 2020
Module time:
	user time   =      73.64 seconds =       1.23 minutes
	system time =      26.69 seconds =       0.44 minutes
	total time  =        138 seconds =       2.30 minutes
Total time:
	user time   =      73.64 seconds =       1.23 minutes
	system time =      26.69 seconds =       0.44 minutes
	total time  =        138 seconds =       2.30 minutes
                                     G D M A

                                 by Anthony Stone

                           version 2.2.06, 22 June 2011

               Distributed Multipoles from Gaussian wavefunctions

Starting at 13:44:13 on 28 Apr 2020

Using SCF density matrix from file ./SSI/SSI-049LEU-107PHE-1-dimer.test.23424.fchk

                         Distributed Multipole Analysis

Standard DMA

Positions and radii in angstrom
Multipole moments in atomic units, ea_0^k for rank k

C          x = -2.096151  y =  0.893888  z = -1.531678 angstrom
           Maximum rank =  0   Radius =  0.650 angstrom
                   Q00  =  -0.236716

C          x = -2.835151  y =  2.001888  z = -0.803678 angstrom
           Maximum rank =  0   Radius =  0.650 angstrom
                   Q00  =  -0.231462

H          x = -2.709151  y = -0.006112  z = -1.553678 angstrom
           Maximum rank =  0   Radius =  0.325 angstrom
                   Q00  =   0.075007

H          x = -1.883151  y =  1.196888  z = -2.555678 angstrom
           Maximum rank =  0   Radius =  0.325 angstrom
                   Q00  =   0.069108

H          x = -1.163151  y =  0.672888  z = -1.020678 angstrom
           Maximum rank =  0   Radius =  0.325 angstrom
                   Q00  =   0.095666

H          x = -3.747151  y =  2.177888  z = -1.373678 angstrom
           Maximum rank =  0   Radius =  0.325 angstrom
                   Q00  =   0.070782

H          x = -3.090501  y =  1.699788  z =  0.222742 angstrom
           Maximum rank =  0   Radius =  0.325 angstrom
                   Q00  =   0.078721

H          x = -2.238551  y =  2.925898  z = -0.820408 angstrom
           Maximum rank =  0   Radius =  0.325 angstrom
                   Q00  =   0.073079

C          x =  1.816849  y =  1.718888  z =  0.112322 angstrom
           Maximum rank =  0   Radius =  0.650 angstrom
                   Q00  =  -0.197124

C          x =  1.214849  y =  0.363888  z =  0.287322 angstrom
           Maximum rank =  0   Radius =  0.650 angstrom
                   Q00  =  -0.108406

C          x =  0.456849  y =  0.061888  z =  1.419322 angstrom
           Maximum rank =  0   Radius =  0.650 angstrom
                   Q00  =   0.004413

C          x =  1.361849  y = -0.593112  z = -0.701678 angstrom
           Maximum rank =  0   Radius =  0.650 angstrom
                   Q00  =  -0.083137

C          x = -0.118151  y = -1.179112  z =  1.573322 angstrom
           Maximum rank =  0   Radius =  0.650 angstrom
                   Q00  =  -0.068695

C          x =  0.768849  y = -1.833112  z = -0.561678 angstrom
           Maximum rank =  0   Radius =  0.650 angstrom
                   Q00  =  -0.058309

C          x =  0.019849  y = -2.129112  z =  0.586322 angstrom
           Maximum rank =  0   Radius =  0.650 angstrom
                   Q00  =  -0.080525

H          x =  1.169849  y =  2.448888  z =  0.599322 angstrom
           Maximum rank =  0   Radius =  0.325 angstrom
                   Q00  =   0.096622

H          x =  1.824849  y =  1.962888  z = -0.950678 angstrom
           Maximum rank =  0   Radius =  0.325 angstrom
                   Q00  =   0.096383

H          x =  0.320849  y =  0.807888  z =  2.191322 angstrom
           Maximum rank =  0   Radius =  0.325 angstrom
                   Q00  =   0.054683

H          x =  1.923849  y = -0.371112  z = -1.595678 angstrom
           Maximum rank =  0   Radius =  0.325 angstrom
                   Q00  =   0.055406

H          x = -0.696151  y = -1.403112  z =  2.455322 angstrom
           Maximum rank =  0   Radius =  0.325 angstrom
                   Q00  =   0.061790

H          x =  0.876849  y = -2.576112  z = -1.340678 angstrom
           Maximum rank =  0   Radius =  0.325 angstrom
                   Q00  =   0.065041

H          x = -0.441151  y = -3.101112  z =  0.697322 angstrom
           Maximum rank =  0   Radius =  0.325 angstrom
                   Q00  =   0.061780

H          x =  2.831949  y =  1.828028  z =  0.521782 angstrom
           Maximum rank =  0   Radius =  0.325 angstrom
                   Q00  =   0.105892

Total multipoles referred to origin at
           x =   0.000000,  y =    0.000000,  z =    0.000000 angstrom
                   Q00  =  -0.000000

Finished at 13:44:13 on 28 Apr 2020

  DMA results are available in the Python driver through the
	  variable('DMA DISTRIBUTED MULTIPOLES')
  and
	  variable('DMA TOTAL MULTIPOLES')
  commands.

    Psi4 stopped on: Tuesday, 28 April 2020 01:44PM
    Psi4 wall time for execution: 0:02:18.16

*** Psi4 exiting successfully. Buy a developer a beer!
