                               Psi4 1.3.2 release

  ==> Input File <==

--------------------------------------------------------------------------
import numpy as np
set {scf_type pk
basis cc-pvdz
d_convergence 10
gdma_switch   0
gdma_limit    0
gdma_origin   [ 0.0,  0.0,  0.0 ]
}
molecule test {
    units Angstrom
    0 1
    --
    0 1
    C                2.804655564075542     0.070528927585775    -0.827024227844730
    N                2.035655564075542     0.347528927585775     0.411975772155270
    H                1.090655564075542    -0.048471072414225     0.320975772155270
    H                2.474655564075542    -0.064471072414225     1.225975772155270
    H                1.932655564075542     1.340528927585775     0.576975772155271
    H                2.891655564075542    -1.009471072414225    -0.975024227844730
    H                3.814655564075542     0.485528927585775    -0.743024227844730
    H                2.310405564075542     0.509138927585775    -1.706414227844729
    C               -2.627344435924458    -0.128471072414225    -0.473024227844730
    C               -1.231344435924458    -0.123471072414225     0.128975772155270
    O               -0.930344435924458     0.773528927585775     0.950975772155271
    O               -0.413344435924458    -0.995471072414225    -0.230024227844730
    H               -2.859344435924458    -1.109471072414225    -0.886024227844729
    H               -2.655344435924458     0.599528927585775    -1.285024227844730
    H               -3.408594435924458     0.150908927585775     0.249185772155270

}
e, wfn = energy('scf', return_wfn=True)
gdma(wfn)
dmavals = variable('DMA DISTRIBUTED MULTIPOLES')
charges = np.array(dmavals)
print(charges)
np.save('SSI-094LYS-112ASP-1-dimer.npy', np.array(charges))--------------------------------------------------------------------------

*** tstart() called on ds3
*** at Sun Apr 26 22:17:17 2020

   => Loading Basis Set <=

    Name: CC-PVDZ
    Role: ORBITAL
    Keyword: BASIS
    atoms 1, 9-10    entry C          line   138 file /theoryfs2/ds/metcalf/miniconda2/envs/tf2gpu/share/psi4/basis/cc-pvdz.gbs
    atoms 2          entry N          line   168 file /theoryfs2/ds/metcalf/miniconda2/envs/tf2gpu/share/psi4/basis/cc-pvdz.gbs
    atoms 3-8, 13-15 entry H          line    22 file /theoryfs2/ds/metcalf/miniconda2/envs/tf2gpu/share/psi4/basis/cc-pvdz.gbs
    atoms 11-12      entry O          line   198 file /theoryfs2/ds/metcalf/miniconda2/envs/tf2gpu/share/psi4/basis/cc-pvdz.gbs

         ---------------------------------------------------------
                                   SCF
               by Justin Turney, Rob Parrish, Andy Simmonett
                          and Daniel G. A. Smith
                              RHF Reference
                        1 Threads,    500 MiB Core
         ---------------------------------------------------------

  ==> Geometry <==

    Molecular point group: c1
    Full point group: C1

    Geometry (in Angstrom), charge = 0, multiplicity = 1:

       Center              X                  Y                   Z               Mass
    ------------   -----------------  -----------------  -----------------  -----------------
         C            2.804655564076     0.070528927586    -0.827024227845    12.000000000000
         N            2.035655564076     0.347528927586     0.411975772155    14.003074004430
         H            1.090655564076    -0.048471072414     0.320975772155     1.007825032230
         H            2.474655564076    -0.064471072414     1.225975772155     1.007825032230
         H            1.932655564076     1.340528927586     0.576975772155     1.007825032230
         H            2.891655564076    -1.009471072414    -0.975024227845     1.007825032230
         H            3.814655564076     0.485528927586    -0.743024227845     1.007825032230
         H            2.310405564076     0.509138927586    -1.706414227845     1.007825032230
         C           -2.627344435924    -0.128471072414    -0.473024227845    12.000000000000
         C           -1.231344435924    -0.123471072414     0.128975772155    12.000000000000
         O           -0.930344435924     0.773528927586     0.950975772155    15.994914619570
         O           -0.413344435924    -0.995471072414    -0.230024227845    15.994914619570
         H           -2.859344435924    -1.109471072414    -0.886024227845     1.007825032230
         H           -2.655344435924     0.599528927586    -1.285024227845     1.007825032230
         H           -3.408594435924     0.150908927586     0.249185772155     1.007825032230

  Running in c1 symmetry.

  Rotational constants: A =      0.24582  B =      0.04767  C =      0.04305 [cm^-1]
  Rotational constants: A =   7369.63202  B =   1429.00594  C =   1290.57137 [MHz]
  Nuclear repulsion =  243.616151767040975

  Charge       = 0
  Multiplicity = 1
  Electrons    = 50
  Nalpha       = 25
  Nbeta        = 25

  ==> Algorithm <==

  SCF Algorithm Type is PK.
  DIIS enabled.
  MOM disabled.
  Fractional occupation disabled.
  Guess Type is SAD.
  Energy threshold   = 1.00e-06
  Density threshold  = 1.00e-10
  Integral threshold = 0.00e+00

  ==> Primary Basis <==

  Basis Set: CC-PVDZ
    Blend: CC-PVDZ
    Number of shells: 63
    Number of basis function: 129
    Number of Cartesian functions: 135
    Spherical Harmonics?: true
    Max angular momentum: 2

  ==> Pre-Iterations <==

   -------------------------------------------------------
    Irrep   Nso     Nmo     Nalpha   Nbeta   Ndocc  Nsocc
   -------------------------------------------------------
     A        129     129       0       0       0       0
   -------------------------------------------------------
    Total     129     129      25      25      25       0
   -------------------------------------------------------

  ==> Integral Setup <==

  Using integral reordering PK algorithm.
  Sizing the integral batches needed.
  Building batch lookup table.
   Calculation information:
      Number of atoms:                  15
      Number of AO shells:              63
      Number of primitives:            177
      Number of atomic orbitals:       135
      Number of basis functions:       129

      Integral cutoff                 1.00e-12
      Number of threads:                 1

	Batch   1 pq = [       0,    8385] index = [             0,35158305] size =     35158305
  Task number: 4
  Buffer size: 11059200
  Buffer per thread: 2
  We computed 1756109 shell quartets total.
  Whereas there are 2033136 unique shell quartets.

  ==> DiskJK: Disk-Based J/K Matrices <==

    J tasked:                  Yes
    K tasked:                  Yes
    wK tasked:                  No
    Memory [MiB]:              375
    Schwarz Cutoff:          1E-12

    OpenMP threads:              1

  Minimum eigenvalue in the overlap matrix is 4.8777742208E-03.
  Using Symmetric Orthogonalization.

  SCF Guess: Superposition of Atomic Densities via on-the-fly atomic UHF.

  ==> Iterations <==

                        Total Energy        Delta E     RMS |[F,P]|

   @RHF iter SAD:  -321.76099398590725   -3.21761e+02   0.00000e+00
   @RHF iter   1:  -322.80565878329486   -1.04466e+00   5.18377e-03 DIIS
   @RHF iter   2:  -322.97281826886876   -1.67159e-01   2.84410e-03 DIIS
   @RHF iter   3:  -323.02042149439615   -4.76032e-02   4.69223e-04 DIIS
   @RHF iter   4:  -323.02286985525825   -2.44836e-03   1.49015e-04 DIIS
   @RHF iter   5:  -323.02312823101732   -2.58376e-04   2.72878e-05 DIIS
   @RHF iter   6:  -323.02313891170718   -1.06807e-05   1.06715e-05 DIIS
   @RHF iter   7:  -323.02313986363708   -9.51930e-07   2.99387e-06 DIIS
   @RHF iter   8:  -323.02314002242775   -1.58791e-07   1.10057e-06 DIIS
   @RHF iter   9:  -323.02314005218341   -2.97557e-08   3.79734e-07 DIIS
   @RHF iter  10:  -323.02314005647469   -4.29128e-09   1.40513e-07 DIIS
   @RHF iter  11:  -323.02314005691096   -4.36273e-10   3.58931e-08 DIIS
   @RHF iter  12:  -323.02314005694006   -2.91038e-11   8.94991e-09 DIIS
   @RHF iter  13:  -323.02314005693989    1.70530e-13   2.91195e-09 DIIS
   @RHF iter  14:  -323.02314005694228   -2.38742e-12   1.04548e-09 DIIS
   @RHF iter  15:  -323.02314005694240   -1.13687e-13   3.48549e-10 DIIS
   @RHF iter  16:  -323.02314005694132    1.08002e-12   1.67395e-10 DIIS
   @RHF iter  17:  -323.02314005694228   -9.66338e-13   5.79004e-11 DIIS
  Energy and wave function converged.

  ==> Post-Iterations <==

    Orbital Energies [Eh]
    ---------------------

    Doubly Occupied:

       1A    -20.437223     2A    -20.422078     3A    -15.715243
       4A    -11.337728     5A    -11.275896     6A    -11.176887
       7A     -1.342121     8A     -1.320810     9A     -1.203414
      10A     -1.005494    11A     -0.928506    12A     -0.802702
      13A     -0.791377    14A     -0.695419    15A     -0.652885
      16A     -0.612492    17A     -0.610155    18A     -0.563629
      19A     -0.554465    20A     -0.545665    21A     -0.486326
      22A     -0.459580    23A     -0.353013    24A     -0.337404
      25A     -0.332831

    Virtual:

      26A      0.113507    27A      0.167037    28A      0.180847
      29A      0.206408    30A      0.226107    31A      0.243444
      32A      0.271854    33A      0.291295    34A      0.308343
      35A      0.342032    36A      0.386703    37A      0.446908
      38A      0.518955    39A      0.529862    40A      0.551146
      41A      0.591607    42A      0.598771    43A      0.673331
      44A      0.696995    45A      0.703930    46A      0.754572
      47A      0.794523    48A      0.803549    49A      0.809942
      50A      0.826251    51A      0.841187    52A      0.851735
      53A      0.907077    54A      0.913701    55A      0.916242
      56A      0.948422    57A      0.951971    58A      0.981973
      59A      0.999102    60A      1.015970    61A      1.068818
      62A      1.100889    63A      1.117619    64A      1.190710
      65A      1.207155    66A      1.230446    67A      1.314900
      68A      1.368313    69A      1.402589    70A      1.424917
      71A      1.435229    72A      1.472941    73A      1.495721
      74A      1.523540    75A      1.567408    76A      1.593537
      77A      1.607817    78A      1.675379    79A      1.707728
      80A      1.727153    81A      1.789304    82A      1.830004
      83A      1.854694    84A      1.882936    85A      1.883614
      86A      1.907775    87A      1.938123    88A      1.950621
      89A      1.962660    90A      2.004184    91A      2.036904
      92A      2.095010    93A      2.108539    94A      2.114633
      95A      2.123051    96A      2.132656    97A      2.153354
      98A      2.231762    99A      2.291783   100A      2.307018
     101A      2.318192   102A      2.408268   103A      2.417770
     104A      2.434237   105A      2.529447   106A      2.547935
     107A      2.622521   108A      2.630682   109A      2.639106
     110A      2.653213   111A      2.684894   112A      2.791896
     113A      2.839628   114A      2.863501   115A      2.888978
     116A      2.901137   117A      2.946039   118A      3.075984
     119A      3.112660   120A      3.134021   121A      3.202895
     122A      3.267069   123A      3.360589   124A      3.481952
     125A      3.614128   126A      3.664394   127A      3.912188
     128A      3.916887   129A      4.054095

    Final Occupation by Irrep:
              A
    DOCC [    25 ]

  @RHF Final Energy:  -323.02314005694228

   => Energetics <=

    Nuclear Repulsion Energy =            243.6161517670409751
    One-Electron Energy =                -925.3518978565512043
    Two-Electron Energy =                 358.7126060325679759
    Total Energy =                       -323.0231400569422817

Computation Completed

Properties will be evaluated at   0.000000,   0.000000,   0.000000 [a0]

Properties computed using the SCF density matrix

  Nuclear Dipole Moment: [e a0]
     X:     5.2294      Y:     0.7983      Z:    -3.0186

  Electronic Dipole Moment: [e a0]
     X:    -1.4533      Y:    -0.1665      Z:     2.6162

  Dipole Moment: [e a0]
     X:     3.7761      Y:     0.6318      Z:    -0.4025     Total:     3.8497

  Dipole Moment: [D]
     X:     9.5979      Y:     1.6059      Z:    -1.0229     Total:     9.7849

*** tstop() called on ds3 at Sun Apr 26 22:17:36 2020
Module time:
	user time   =      13.79 seconds =       0.23 minutes
	system time =       5.96 seconds =       0.10 minutes
	total time  =         19 seconds =       0.32 minutes
Total time:
	user time   =      13.79 seconds =       0.23 minutes
	system time =       5.96 seconds =       0.10 minutes
	total time  =         19 seconds =       0.32 minutes
                                     G D M A

                                 by Anthony Stone

                           version 2.2.06, 22 June 2011

               Distributed Multipoles from Gaussian wavefunctions

Starting at 22:17:36 on 26 Apr 2020

Using SCF density matrix from file ./SSI/SSI-094LYS-112ASP-1-dimer.test.27247.fchk

                         Distributed Multipole Analysis

Standard DMA

Positions and radii in angstrom
Multipole moments in atomic units, ea_0^k for rank k

C          x =  2.804656  y =  0.070529  z = -0.827024 angstrom
           Maximum rank =  0   Radius =  0.650 angstrom
                   Q00  =  -0.136607

N          x =  2.035656  y =  0.347529  z =  0.411976 angstrom
           Maximum rank =  0   Radius =  0.650 angstrom
                   Q00  =  -0.092596

H          x =  1.090656  y = -0.048471  z =  0.320976 angstrom
           Maximum rank =  0   Radius =  0.325 angstrom
                   Q00  =   0.311204

H          x =  2.474656  y = -0.064471  z =  1.225976 angstrom
           Maximum rank =  0   Radius =  0.325 angstrom
                   Q00  =   0.223429

H          x =  1.932656  y =  1.340529  z =  0.576976 angstrom
           Maximum rank =  0   Radius =  0.325 angstrom
                   Q00  =   0.236960

H          x =  2.891656  y = -1.009471  z = -0.975024 angstrom
           Maximum rank =  0   Radius =  0.325 angstrom
                   Q00  =   0.151103

H          x =  3.814656  y =  0.485529  z = -0.743024 angstrom
           Maximum rank =  0   Radius =  0.325 angstrom
                   Q00  =   0.113378

H          x =  2.310406  y =  0.509139  z = -1.706414 angstrom
           Maximum rank =  0   Radius =  0.325 angstrom
                   Q00  =   0.154080

C          x = -2.627344  y = -0.128471  z = -0.473024 angstrom
           Maximum rank =  0   Radius =  0.650 angstrom
                   Q00  =  -0.247748

C          x = -1.231344  y = -0.123471  z =  0.128976 angstrom
           Maximum rank =  0   Radius =  0.650 angstrom
                   Q00  =   0.840139

O          x = -0.930344  y =  0.773529  z =  0.950976 angstrom
           Maximum rank =  0   Radius =  0.650 angstrom
                   Q00  =  -0.904847

O          x = -0.413344  y = -0.995471  z = -0.230024 angstrom
           Maximum rank =  0   Radius =  0.650 angstrom
                   Q00  =  -0.922392

H          x = -2.859344  y = -1.109471  z = -0.886024 angstrom
           Maximum rank =  0   Radius =  0.325 angstrom
                   Q00  =   0.083763

H          x = -2.655344  y =  0.599529  z = -1.285024 angstrom
           Maximum rank =  0   Radius =  0.325 angstrom
                   Q00  =   0.097600

H          x = -3.408594  y =  0.150909  z =  0.249186 angstrom
           Maximum rank =  0   Radius =  0.325 angstrom
                   Q00  =   0.092534

Total multipoles referred to origin at
           x =   0.000000,  y =    0.000000,  z =    0.000000 angstrom
                   Q00  =  -0.000000

Finished at 22:17:36 on 26 Apr 2020

  DMA results are available in the Python driver through the
	  variable('DMA DISTRIBUTED MULTIPOLES')
  and
	  variable('DMA TOTAL MULTIPOLES')
  commands.

    Psi4 stopped on: Sunday, 26 April 2020 10:17PM
    Psi4 wall time for execution: 0:00:19.62

*** Psi4 exiting successfully. Buy a developer a beer!
