                               Psi4 1.3.2 release

  ==> Input File <==

--------------------------------------------------------------------------
import numpy as np
set {scf_type pk
basis cc-pvdz
d_convergence 10
gdma_switch   0
gdma_limit    0
gdma_origin   [ 0.0,  0.0,  0.0 ]
}
molecule test {
    units Angstrom
    0 1
    --
    0 1
    C                1.280060062780165    -0.003947713262493     2.029106792462149
    C                2.771060062780164     0.288052286737507     2.187106792462149
    H                1.119060062780165    -0.810947713262493     1.317106792462149
    H                0.855060062780165    -0.296947713262493     2.983106792462149
    H                0.762060062780165     0.889052286737507     1.693106792462149
    H                3.275060062780164    -0.623947713262493     2.497106792462148
    H                2.852060062780164     1.007052286737507     3.001106792462148
    H                3.241820062780165     0.676322286737507     1.271886792462149
    C               -1.127939937219835    -0.377947713262493    -0.923893207537851
    C               -1.563939937219835    -1.050947713262493    -2.240893207537851
    C               -1.430939937219835     1.115052286737507    -1.109893207537851
    H               -0.058939937219835    -0.543947713262493    -0.787893207537851
    H               -1.674939937219835    -0.789947713262493    -0.073893207537851
    H               -0.985939937219835    -1.951947713262493    -2.444893207537851
    H               -2.628939937219835    -1.281947713262493    -2.204893207537852
    H               -2.346939937219835     1.378052286737507    -0.576893207537851
    H               -1.377964937219835    -0.271307713262493    -2.994273207537852
    H               -1.585229937219836     1.222902286737507    -2.193663207537851
    H               -0.592509937219835     1.751652286737507    -0.790873207537851

}
e, wfn = energy('scf', return_wfn=True)
gdma(wfn)
dmavals = variable('DMA DISTRIBUTED MULTIPOLES')
charges = np.array(dmavals)
print(charges)
np.save('SSI-037ILE-162PRO-1-dimer.npy', np.array(charges))--------------------------------------------------------------------------

*** tstart() called on ds3
*** at Mon Apr 27 07:49:23 2020

   => Loading Basis Set <=

    Name: CC-PVDZ
    Role: ORBITAL
    Keyword: BASIS
    atoms 1-2, 9-11  entry C          line   138 file /theoryfs2/ds/metcalf/miniconda2/envs/tf2gpu/share/psi4/basis/cc-pvdz.gbs
    atoms 3-8, 12-19 entry H          line    22 file /theoryfs2/ds/metcalf/miniconda2/envs/tf2gpu/share/psi4/basis/cc-pvdz.gbs

         ---------------------------------------------------------
                                   SCF
               by Justin Turney, Rob Parrish, Andy Simmonett
                          and Daniel G. A. Smith
                              RHF Reference
                        1 Threads,    500 MiB Core
         ---------------------------------------------------------

  ==> Geometry <==

    Molecular point group: c1
    Full point group: C1

    Geometry (in Angstrom), charge = 0, multiplicity = 1:

       Center              X                  Y                   Z               Mass
    ------------   -----------------  -----------------  -----------------  -----------------
         C            1.280060062780    -0.003947713262     2.029106792462    12.000000000000
         C            2.771060062780     0.288052286738     2.187106792462    12.000000000000
         H            1.119060062780    -0.810947713262     1.317106792462     1.007825032230
         H            0.855060062780    -0.296947713262     2.983106792462     1.007825032230
         H            0.762060062780     0.889052286738     1.693106792462     1.007825032230
         H            3.275060062780    -0.623947713262     2.497106792462     1.007825032230
         H            2.852060062780     1.007052286738     3.001106792462     1.007825032230
         H            3.241820062780     0.676322286738     1.271886792462     1.007825032230
         C           -1.127939937220    -0.377947713262    -0.923893207538    12.000000000000
         C           -1.563939937220    -1.050947713262    -2.240893207538    12.000000000000
         C           -1.430939937220     1.115052286738    -1.109893207538    12.000000000000
         H           -0.058939937220    -0.543947713262    -0.787893207538     1.007825032230
         H           -1.674939937220    -0.789947713262    -0.073893207538     1.007825032230
         H           -0.985939937220    -1.951947713262    -2.444893207538     1.007825032230
         H           -2.628939937220    -1.281947713262    -2.204893207538     1.007825032230
         H           -2.346939937220     1.378052286738    -0.576893207538     1.007825032230
         H           -1.377964937220    -0.271307713262    -2.994273207538     1.007825032230
         H           -1.585229937220     1.222902286738    -2.193663207538     1.007825032230
         H           -0.592509937220     1.751652286738    -0.790873207538     1.007825032230

  Running in c1 symmetry.

  Rotational constants: A =      0.26299  B =      0.03484  C =      0.03283 [cm^-1]
  Rotational constants: A =   7884.13145  B =   1044.39922  C =    984.27708 [MHz]
  Nuclear repulsion =  175.994687671788114

  Charge       = 0
  Multiplicity = 1
  Electrons    = 44
  Nalpha       = 22
  Nbeta        = 22

  ==> Algorithm <==

  SCF Algorithm Type is PK.
  DIIS enabled.
  MOM disabled.
  Fractional occupation disabled.
  Guess Type is SAD.
  Energy threshold   = 1.00e-06
  Density threshold  = 1.00e-10
  Integral threshold = 0.00e+00

  ==> Primary Basis <==

  Basis Set: CC-PVDZ
    Blend: CC-PVDZ
    Number of shells: 72
    Number of basis function: 140
    Number of Cartesian functions: 145
    Spherical Harmonics?: true
    Max angular momentum: 2

  ==> Pre-Iterations <==

   -------------------------------------------------------
    Irrep   Nso     Nmo     Nalpha   Nbeta   Ndocc  Nsocc
   -------------------------------------------------------
     A        140     140       0       0       0       0
   -------------------------------------------------------
    Total     140     140      22      22      22       0
   -------------------------------------------------------

  ==> Integral Setup <==

  Using integral reordering PK algorithm.
  Sizing the integral batches needed.
  Building batch lookup table.
   Calculation information:
      Number of atoms:                  19
      Number of AO shells:              72
      Number of primitives:            180
      Number of atomic orbitals:       145
      Number of basis functions:       140

      Integral cutoff                 1.00e-12
      Number of threads:                 1

	Batch   1 pq = [       0,    9405] index = [             0,44231715] size =     44231715
	Batch   2 pq = [    9405,    9870] index = [      44231715,48713385] size =      4481670
  Task number: 5
  Buffer size: 11059200
  Buffer per thread: 2
  We computed 2732878 shell quartets total.
  Whereas there are 3454506 unique shell quartets.

  ==> DiskJK: Disk-Based J/K Matrices <==

    J tasked:                  Yes
    K tasked:                  Yes
    wK tasked:                  No
    Memory [MiB]:              375
    Schwarz Cutoff:          1E-12

    OpenMP threads:              1

  Minimum eigenvalue in the overlap matrix is 5.0159938063E-03.
  Using Symmetric Orthogonalization.

  SCF Guess: Superposition of Atomic Densities via on-the-fly atomic UHF.

  ==> Iterations <==

                        Total Energy        Delta E     RMS |[F,P]|

   @RHF iter SAD:  -196.42185953405988   -1.96422e+02   0.00000e+00
   @RHF iter   1:  -197.29485559809791   -8.72996e-01   3.81489e-03 DIIS
   @RHF iter   2:  -197.45440650928862   -1.59551e-01   1.64602e-03 DIIS
   @RHF iter   3:  -197.48294673400849   -2.85402e-02   3.25095e-04 DIIS
   @RHF iter   4:  -197.48512479567586   -2.17806e-03   4.89581e-05 DIIS
   @RHF iter   5:  -197.48516432051181   -3.95248e-05   1.51352e-05 DIIS
   @RHF iter   6:  -197.48516781522383   -3.49471e-06   2.55500e-06 DIIS
   @RHF iter   7:  -197.48516793417053   -1.18947e-07   4.61877e-07 DIIS
   @RHF iter   8:  -197.48516793862558   -4.45505e-09   1.07298e-07 DIIS
   @RHF iter   9:  -197.48516793886546   -2.39879e-10   3.47672e-08 DIIS
   @RHF iter  10:  -197.48516793889110   -2.56364e-11   8.01217e-09 DIIS
   @RHF iter  11:  -197.48516793889326   -2.16005e-12   1.56433e-09 DIIS
   @RHF iter  12:  -197.48516793889246    7.95808e-13   3.14533e-10 DIIS
   @RHF iter  13:  -197.48516793889308   -6.25278e-13   7.02560e-11 DIIS
  Energy and wave function converged.

  ==> Post-Iterations <==

    Orbital Energies [Eh]
    ---------------------

    Doubly Occupied:

       1A    -11.217608     2A    -11.217236     3A    -11.214613
       4A    -11.214531     5A    -11.214389     6A     -1.056825
       7A     -1.019613     8A     -0.913299     9A     -0.837968
      10A     -0.798925    11A     -0.629280    12A     -0.611217
      13A     -0.600149    14A     -0.597626    15A     -0.540474
      16A     -0.513386    17A     -0.502126    18A     -0.487625
      19A     -0.485699    20A     -0.476649    21A     -0.465832
      22A     -0.458197

    Virtual:

      23A      0.171617    24A      0.195335    25A      0.219158
      26A      0.225337    27A      0.226359    28A      0.243232
      29A      0.256497    30A      0.268392    31A      0.275661
      32A      0.282358    33A      0.294563    34A      0.312272
      35A      0.320815    36A      0.349660    37A      0.386937
      38A      0.395318    39A      0.437626    40A      0.561978
      41A      0.580242    42A      0.601029    43A      0.603750
      44A      0.615114    45A      0.643277    46A      0.650875
      47A      0.667364    48A      0.687044    49A      0.753881
      50A      0.773958    51A      0.806979    52A      0.826425
      53A      0.851083    54A      0.874922    55A      0.883611
      56A      0.892646    57A      0.896677    58A      0.898761
      59A      0.903941    60A      0.908737    61A      0.921517
      62A      0.923555    63A      0.928363    64A      0.932921
      65A      0.944049    66A      0.965368    67A      0.982787
      68A      0.993259    69A      1.075727    70A      1.101768
      71A      1.120292    72A      1.149935    73A      1.186974
      74A      1.247261    75A      1.400243    76A      1.461542
      77A      1.471715    78A      1.487523    79A      1.489030
      80A      1.574590    81A      1.590791    82A      1.626189
      83A      1.643681    84A      1.682451    85A      1.700563
      86A      1.720996    87A      1.730602    88A      1.808170
      89A      1.853074    90A      1.864108    91A      1.869738
      92A      1.881912    93A      1.893426    94A      1.912427
      95A      1.924116    96A      1.936028    97A      1.944404
      98A      1.948674    99A      1.957483   100A      1.963116
     101A      1.973387   102A      1.983090   103A      1.994425
     104A      1.999070   105A      2.017550   106A      2.040356
     107A      2.065141   108A      2.092270   109A      2.134528
     110A      2.159994   111A      2.236351   112A      2.259755
     113A      2.300412   114A      2.315245   115A      2.321636
     116A      2.353694   117A      2.395654   118A      2.417649
     119A      2.450566   120A      2.487040   121A      2.508452
     122A      2.552952   123A      2.561871   124A      2.590116
     125A      2.643157   126A      2.702166   127A      2.764309
     128A      2.767916   129A      2.775360   130A      2.790116
     131A      2.803381   132A      2.820694   133A      2.833581
     134A      2.853931   135A      2.867925   136A      2.894314
     137A      2.921444   138A      2.956010   139A      2.982416
     140A      3.052536

    Final Occupation by Irrep:
              A
    DOCC [    22 ]

  @RHF Final Energy:  -197.48516793889308

   => Energetics <=

    Nuclear Repulsion Energy =            175.9946876717881139
    One-Electron Energy =                -612.8131744357910975
    Two-Electron Energy =                 239.3333188251098704
    Total Energy =                       -197.4851679388930847

Computation Completed

Properties will be evaluated at   0.000000,   0.000000,   0.000000 [a0]

Properties computed using the SCF density matrix

  Nuclear Dipole Moment: [e a0]
     X:     0.8003      Y:     0.3320      Z:     0.6526

  Electronic Dipole Moment: [e a0]
     X:    -0.7978      Y:    -0.3546      Z:    -0.6078

  Dipole Moment: [e a0]
     X:     0.0025      Y:    -0.0227      Z:     0.0448     Total:     0.0503

  Dipole Moment: [D]
     X:     0.0064      Y:    -0.0576      Z:     0.1139     Total:     0.1278

*** tstop() called on ds3 at Mon Apr 27 07:49:44 2020
Module time:
	user time   =      15.38 seconds =       0.26 minutes
	system time =       6.44 seconds =       0.11 minutes
	total time  =         21 seconds =       0.35 minutes
Total time:
	user time   =      15.38 seconds =       0.26 minutes
	system time =       6.44 seconds =       0.11 minutes
	total time  =         21 seconds =       0.35 minutes
                                     G D M A

                                 by Anthony Stone

                           version 2.2.06, 22 June 2011

               Distributed Multipoles from Gaussian wavefunctions

Starting at 7:49:44 on 27 Apr 2020

Using SCF density matrix from file ./SSI/SSI-037ILE-162PRO-1-dimer.test.32719.fchk

                         Distributed Multipole Analysis

Standard DMA

Positions and radii in angstrom
Multipole moments in atomic units, ea_0^k for rank k

C          x =  1.280060  y = -0.003948  z =  2.029107 angstrom
           Maximum rank =  0   Radius =  0.650 angstrom
                   Q00  =  -0.237009

C          x =  2.771060  y =  0.288052  z =  2.187107 angstrom
           Maximum rank =  0   Radius =  0.650 angstrom
                   Q00  =  -0.236212

H          x =  1.119060  y = -0.810948  z =  1.317107 angstrom
           Maximum rank =  0   Radius =  0.325 angstrom
                   Q00  =   0.079136

H          x =  0.855060  y = -0.296948  z =  2.983107 angstrom
           Maximum rank =  0   Radius =  0.325 angstrom
                   Q00  =   0.079775

H          x =  0.762060  y =  0.889052  z =  1.693107 angstrom
           Maximum rank =  0   Radius =  0.325 angstrom
                   Q00  =   0.078799

H          x =  3.275060  y = -0.623948  z =  2.497107 angstrom
           Maximum rank =  0   Radius =  0.325 angstrom
                   Q00  =   0.078249

H          x =  2.852060  y =  1.007052  z =  3.001107 angstrom
           Maximum rank =  0   Radius =  0.325 angstrom
                   Q00  =   0.075748

H          x =  3.241820  y =  0.676322  z =  1.271887 angstrom
           Maximum rank =  0   Radius =  0.325 angstrom
                   Q00  =   0.081798

C          x = -1.127940  y = -0.377948  z = -0.923893 angstrom
           Maximum rank =  0   Radius =  0.650 angstrom
                   Q00  =  -0.111619

C          x = -1.563940  y = -1.050948  z = -2.240893 angstrom
           Maximum rank =  0   Radius =  0.650 angstrom
                   Q00  =  -0.223075

C          x = -1.430940  y =  1.115052  z = -1.109893 angstrom
           Maximum rank =  0   Radius =  0.650 angstrom
                   Q00  =  -0.242988

H          x = -0.058940  y = -0.543948  z = -0.787893 angstrom
           Maximum rank =  0   Radius =  0.325 angstrom
                   Q00  =   0.057516

H          x = -1.674940  y = -0.789948  z = -0.073893 angstrom
           Maximum rank =  0   Radius =  0.325 angstrom
                   Q00  =   0.059882

H          x = -0.985940  y = -1.951948  z = -2.444893 angstrom
           Maximum rank =  0   Radius =  0.325 angstrom
                   Q00  =   0.083209

H          x = -2.628940  y = -1.281948  z = -2.204893 angstrom
           Maximum rank =  0   Radius =  0.325 angstrom
                   Q00  =   0.079854

H          x = -2.346940  y =  1.378052  z = -0.576893 angstrom
           Maximum rank =  0   Radius =  0.325 angstrom
                   Q00  =   0.087414

H          x = -1.377965  y = -0.271308  z = -2.994273 angstrom
           Maximum rank =  0   Radius =  0.325 angstrom
                   Q00  =   0.053885

H          x = -1.585230  y =  1.222902  z = -2.193663 angstrom
           Maximum rank =  0   Radius =  0.325 angstrom
                   Q00  =   0.066736

H          x = -0.592510  y =  1.751652  z = -0.790873 angstrom
           Maximum rank =  0   Radius =  0.325 angstrom
                   Q00  =   0.088903

Total multipoles referred to origin at
           x =   0.000000,  y =    0.000000,  z =    0.000000 angstrom
                   Q00  =  -0.000000

Finished at 7:49:44 on 27 Apr 2020

  DMA results are available in the Python driver through the
	  variable('DMA DISTRIBUTED MULTIPOLES')
  and
	  variable('DMA TOTAL MULTIPOLES')
  commands.

    Psi4 stopped on: Monday, 27 April 2020 07:49AM
    Psi4 wall time for execution: 0:00:21.36

*** Psi4 exiting successfully. Buy a developer a beer!
