                               Psi4 1.3.2 release

  ==> Input File <==

--------------------------------------------------------------------------
import numpy as np
set {scf_type pk
basis cc-pvdz
d_convergence 10
gdma_switch   0
gdma_limit    0
gdma_origin   [ 0.0,  0.0,  0.0 ]
}
molecule test {
    units Angstrom
    0 1
    --
    0 1
    C               -0.596012060285059    -3.652330084938177     0.111251559824067
    C                0.983987939714941     0.353669915061822     0.171251559824067
    C                1.113987939714941    -0.458330084938178     1.281251559824067
    C                0.361987939714941    -0.135330084938178    -0.948748440175933
    C                0.615987939714941    -1.759330084938178     1.266251559824067
    C               -0.155012060285059    -1.421330084938178    -0.957748440175933
    C               -0.040012060285059    -2.248330084938178     0.143251559824067
    H                1.401987939714941     1.349669915061822     0.176251559824067
    H                1.663987939714941    -0.110330084938178     2.141251559824067
    H                0.267987939714941     0.486669915061822    -1.828748440175933
    H                0.769987939714941    -2.391330084938177     2.128251559824067
    H               -0.630012060285059    -1.786330084938178    -1.854748440175933
    H                0.195987939714941    -4.350330084938178     0.384251559824067
    H               -0.898012060285059    -3.881330084938178    -0.910748440175933
    H               -1.463992060285059    -3.805376184938178     0.769421559824067
    C               -0.438012060285059     3.788669915061822    -0.828748440175933
    C               -1.469012060285059     4.632669915061822    -0.087748440175933
    H                0.252987939714941     3.326669915061823    -0.126748440175933
    H               -0.949012060285059     3.002669915061822    -1.384748440175933
    H                0.117987939714941     4.412669915061822    -1.527748440175933
    H               -1.992012060285060     3.997669915061822     0.629251559824067
    H               -2.195012060285059     4.966669915061822    -0.824748440175933
    H               -1.042352060285059     5.498134915061822     0.440391559824067

}
e, wfn = energy('scf', return_wfn=True)
gdma(wfn)
dmavals = variable('DMA DISTRIBUTED MULTIPOLES')
charges = np.array(dmavals)
print(charges)
np.save('SSI-159PHE-206ILE-1-dimer.npy', np.array(charges))--------------------------------------------------------------------------

*** tstart() called on ds3
*** at Mon Apr 27 23:08:23 2020

   => Loading Basis Set <=

    Name: CC-PVDZ
    Role: ORBITAL
    Keyword: BASIS
    atoms 1-7, 16-17  entry C          line   138 file /theoryfs2/ds/metcalf/miniconda2/envs/tf2gpu/share/psi4/basis/cc-pvdz.gbs
    atoms 8-15, 18-23 entry H          line    22 file /theoryfs2/ds/metcalf/miniconda2/envs/tf2gpu/share/psi4/basis/cc-pvdz.gbs

         ---------------------------------------------------------
                                   SCF
               by Justin Turney, Rob Parrish, Andy Simmonett
                          and Daniel G. A. Smith
                              RHF Reference
                        1 Threads,    500 MiB Core
         ---------------------------------------------------------

  ==> Geometry <==

    Molecular point group: c1
    Full point group: C1

    Geometry (in Angstrom), charge = 0, multiplicity = 1:

       Center              X                  Y                   Z               Mass
    ------------   -----------------  -----------------  -----------------  -----------------
         C           -0.596012060285    -3.652330084938     0.111251559824    12.000000000000
         C            0.983987939715     0.353669915062     0.171251559824    12.000000000000
         C            1.113987939715    -0.458330084938     1.281251559824    12.000000000000
         C            0.361987939715    -0.135330084938    -0.948748440176    12.000000000000
         C            0.615987939715    -1.759330084938     1.266251559824    12.000000000000
         C           -0.155012060285    -1.421330084938    -0.957748440176    12.000000000000
         C           -0.040012060285    -2.248330084938     0.143251559824    12.000000000000
         H            1.401987939715     1.349669915062     0.176251559824     1.007825032230
         H            1.663987939715    -0.110330084938     2.141251559824     1.007825032230
         H            0.267987939715     0.486669915062    -1.828748440176     1.007825032230
         H            0.769987939715    -2.391330084938     2.128251559824     1.007825032230
         H           -0.630012060285    -1.786330084938    -1.854748440176     1.007825032230
         H            0.195987939715    -4.350330084938     0.384251559824     1.007825032230
         H           -0.898012060285    -3.881330084938    -0.910748440176     1.007825032230
         H           -1.463992060285    -3.805376184938     0.769421559824     1.007825032230
         C           -0.438012060285     3.788669915062    -0.828748440176    12.000000000000
         C           -1.469012060285     4.632669915062    -0.087748440176    12.000000000000
         H            0.252987939715     3.326669915062    -0.126748440176     1.007825032230
         H           -0.949012060285     3.002669915062    -1.384748440176     1.007825032230
         H            0.117987939715     4.412669915062    -1.527748440176     1.007825032230
         H           -1.992012060285     3.997669915062     0.629251559824     1.007825032230
         H           -2.195012060285     4.966669915062    -0.824748440176     1.007825032230
         H           -1.042352060285     5.498134915062     0.440391559824     1.007825032230

  Running in c1 symmetry.

  Rotational constants: A =      0.10801  B =      0.01757  C =      0.01659 [cm^-1]
  Rotational constants: A =   3238.04811  B =    526.86130  C =    497.46738 [MHz]
  Nuclear repulsion =  397.562069206371234

  Charge       = 0
  Multiplicity = 1
  Electrons    = 68
  Nalpha       = 34
  Nbeta        = 34

  ==> Algorithm <==

  SCF Algorithm Type is PK.
  DIIS enabled.
  MOM disabled.
  Fractional occupation disabled.
  Guess Type is SAD.
  Energy threshold   = 1.00e-06
  Density threshold  = 1.00e-10
  Integral threshold = 0.00e+00

  ==> Primary Basis <==

  Basis Set: CC-PVDZ
    Blend: CC-PVDZ
    Number of shells: 96
    Number of basis function: 196
    Number of Cartesian functions: 205
    Spherical Harmonics?: true
    Max angular momentum: 2

  ==> Pre-Iterations <==

   -------------------------------------------------------
    Irrep   Nso     Nmo     Nalpha   Nbeta   Ndocc  Nsocc
   -------------------------------------------------------
     A        196     196       0       0       0       0
   -------------------------------------------------------
    Total     196     196      34      34      34       0
   -------------------------------------------------------

  ==> Integral Setup <==

  Using integral reordering PK algorithm.
  Sizing the integral batches needed.
  Building batch lookup table.
   Calculation information:
      Number of atoms:                  23
      Number of AO shells:              96
      Number of primitives:            268
      Number of atomic orbitals:       205
      Number of basis functions:       196

      Integral cutoff                 1.00e-12
      Number of threads:                 1

	Batch   1 pq = [       0,    9405] index = [             0,44231715] size =     44231715
	Batch   2 pq = [    9405,   13301] index = [      44231715,88464951] size =     44233236
	Batch   3 pq = [   13301,   16290] index = [      88464951,132690195] size =     44225244
	Batch   4 pq = [   16290,   18810] index = [     132690195,176917455] size =     44227260
	Batch   5 pq = [   18810,   19306] index = [     176917455,186370471] size =      9453016
  Task number: 17
  Buffer size: 11059200
  Buffer per thread: 2
  We computed 8190498 shell quartets total.
  Whereas there are 10841496 unique shell quartets.

  ==> DiskJK: Disk-Based J/K Matrices <==

    J tasked:                  Yes
    K tasked:                  Yes
    wK tasked:                  No
    Memory [MiB]:              375
    Schwarz Cutoff:          1E-12

    OpenMP threads:              1

  Minimum eigenvalue in the overlap matrix is 2.9227245801E-04.
  Using Symmetric Orthogonalization.

  SCF Guess: Superposition of Atomic Densities via on-the-fly atomic UHF.

  ==> Iterations <==

                        Total Energy        Delta E     RMS |[F,P]|

   @RHF iter SAD:  -347.97005925530948   -3.47970e+02   0.00000e+00
   @RHF iter   1:  -348.76342155734744   -7.93362e-01   2.92617e-03 DIIS
   @RHF iter   2:  -348.95851276970876   -1.95091e-01   1.22481e-03 DIIS
   @RHF iter   3:  -348.98974439679222   -3.12316e-02   2.60133e-04 DIIS
   @RHF iter   4:  -348.99224130610793   -2.49691e-03   5.16296e-05 DIIS
   @RHF iter   5:  -348.99231308236438   -7.17763e-05   1.71192e-05 DIIS
   @RHF iter   6:  -348.99232034905094   -7.26669e-06   4.71794e-06 DIIS
   @RHF iter   7:  -348.99232099778908   -6.48738e-07   1.33851e-06 DIIS
   @RHF iter   8:  -348.99232106416366   -6.63746e-08   3.71444e-07 DIIS
   @RHF iter   9:  -348.99232107652108   -1.23574e-08   1.76449e-07 DIIS
   @RHF iter  10:  -348.99232107974700   -3.22592e-09   8.28958e-08 DIIS
   @RHF iter  11:  -348.99232108067474   -9.27741e-10   2.91499e-08 DIIS
   @RHF iter  12:  -348.99232108075580   -8.10587e-11   1.32417e-08 DIIS
   @RHF iter  13:  -348.99232108076507   -9.26548e-12   3.81613e-09 DIIS
   @RHF iter  14:  -348.99232108076524   -1.70530e-13   1.00226e-09 DIIS
   @RHF iter  15:  -348.99232108076677   -1.53477e-12   4.74804e-10 DIIS
   @RHF iter  16:  -348.99232108076677    0.00000e+00   2.13684e-10 DIIS
   @RHF iter  17:  -348.99232108076694   -1.70530e-13   8.04769e-11 DIIS
  Energy and wave function converged.

  ==> Post-Iterations <==

    Orbital Energies [Eh]
    ---------------------

    Doubly Occupied:

       1A    -11.238307     2A    -11.232565     3A    -11.230581
       4A    -11.229571     5A    -11.228762     6A    -11.226703
       7A    -11.226402     8A    -11.216494     9A    -11.215637
      10A     -1.156969    11A     -1.046737    12A     -1.019137
      13A     -1.011478    14A     -0.932894    15A     -0.836677
      16A     -0.825799    17A     -0.796053    18A     -0.693182
      19A     -0.633118    20A     -0.627367    21A     -0.599590
      22A     -0.597328    23A     -0.580366    24A     -0.576675
      25A     -0.564456    26A     -0.534719    27A     -0.501752
      28A     -0.491385    29A     -0.486488    30A     -0.483816
      31A     -0.483127    32A     -0.477790    33A     -0.331286
      34A     -0.324980

    Virtual:

      35A      0.136764    36A      0.144622    37A      0.178003
      38A      0.191993    39A      0.205201    40A      0.214284
      41A      0.235654    42A      0.238577    43A      0.254385
      44A      0.264043    45A      0.268426    46A      0.273946
      47A      0.282249    48A      0.291467    49A      0.314135
      50A      0.345692    51A      0.373997    52A      0.388482
      53A      0.395130    54A      0.455525    55A      0.472282
      56A      0.476914    57A      0.505919    58A      0.562620
      59A      0.591560    60A      0.596704    61A      0.602064
      62A      0.626963    63A      0.629746    64A      0.653408
      65A      0.678720    66A      0.693501    67A      0.697663
      68A      0.715236    69A      0.719485    70A      0.743374
      71A      0.749707    72A      0.752572    73A      0.755170
      74A      0.764785    75A      0.785561    76A      0.799875
      77A      0.840971    78A      0.849650    79A      0.863842
      80A      0.867903    81A      0.874769    82A      0.892274
      83A      0.893656    84A      0.898412    85A      0.900069
      86A      0.905053    87A      0.910823    88A      0.919873
      89A      0.921955    90A      0.929537    91A      0.941564
      92A      0.981596    93A      0.985486    94A      1.011185
      95A      1.012789    96A      1.056825    97A      1.119337
      98A      1.130829    99A      1.136472   100A      1.145986
     101A      1.158078   102A      1.171578   103A      1.199267
     104A      1.224686   105A      1.234189   106A      1.248382
     107A      1.258695   108A      1.270335   109A      1.302990
     110A      1.315344   111A      1.325998   112A      1.334436
     113A      1.416702   114A      1.469697   115A      1.493875
     116A      1.512579   117A      1.524045   118A      1.547436
     119A      1.584034   120A      1.604888   121A      1.675430
     122A      1.684579   123A      1.686032   124A      1.698964
     125A      1.741306   126A      1.745940   127A      1.769677
     128A      1.793946   129A      1.821470   130A      1.857726
     131A      1.861998   132A      1.873906   133A      1.883389
     134A      1.901125   135A      1.905784   136A      1.916981
     137A      1.918924   138A      1.929881   139A      1.944210
     140A      1.946085   141A      1.953039   142A      1.959598
     143A      1.968195   144A      1.968241   145A      1.971233
     146A      1.981964   147A      1.995773   148A      2.023974
     149A      2.034197   150A      2.059640   151A      2.081909
     152A      2.088355   153A      2.119075   154A      2.135377
     155A      2.138258   156A      2.169883   157A      2.184509
     158A      2.188158   159A      2.213346   160A      2.250572
     161A      2.274091   162A      2.294125   163A      2.304860
     164A      2.305988   165A      2.316547   166A      2.335858
     167A      2.355180   168A      2.450844   169A      2.462072
     170A      2.473463   171A      2.482454   172A      2.523627
     173A      2.543973   174A      2.559114   175A      2.585819
     176A      2.636872   177A      2.735291   178A      2.761572
     179A      2.768977   180A      2.771530   181A      2.785496
     182A      2.819829   183A      2.822607   184A      2.850717
     185A      2.851304   186A      2.872332   187A      2.875980
     188A      2.954779   189A      2.972406   190A      3.000153
     191A      3.023914   192A      3.042020   193A      3.174543
     194A      3.220989   195A      3.315975   196A      3.994751

    Final Occupation by Irrep:
              A
    DOCC [    34 ]

  @RHF Final Energy:  -348.99232108076694

   => Energetics <=

    Nuclear Repulsion Energy =            397.5620692063712340
    One-Electron Energy =               -1257.7923909973594618
    Two-Electron Energy =                 511.2380007102212858
    Total Energy =                       -348.9923210807669420

Computation Completed

Properties will be evaluated at   0.000000,   0.000000,   0.000000 [a0]

Properties computed using the SCF density matrix

  Nuclear Dipole Moment: [e a0]
     X:    -4.2181      Y:    10.0457      Z:    -1.6773

  Electronic Dipole Moment: [e a0]
     X:     4.1978      Y:   -10.1895      Z:     1.6697

  Dipole Moment: [e a0]
     X:    -0.0203      Y:    -0.1437      Z:    -0.0076     Total:     0.1453

  Dipole Moment: [D]
     X:    -0.0516      Y:    -0.3653      Z:    -0.0193     Total:     0.3694

*** tstop() called on ds3 at Mon Apr 27 23:09:56 2020
Module time:
	user time   =      66.19 seconds =       1.10 minutes
	system time =      32.16 seconds =       0.54 minutes
	total time  =         93 seconds =       1.55 minutes
Total time:
	user time   =      66.19 seconds =       1.10 minutes
	system time =      32.16 seconds =       0.54 minutes
	total time  =         93 seconds =       1.55 minutes
                                     G D M A

                                 by Anthony Stone

                           version 2.2.06, 22 June 2011

               Distributed Multipoles from Gaussian wavefunctions

Starting at 23:9:56 on 27 Apr 2020

Using SCF density matrix from file ./SSI/SSI-159PHE-206ILE-1-dimer.test.1249.fchk

                         Distributed Multipole Analysis

Standard DMA

Positions and radii in angstrom
Multipole moments in atomic units, ea_0^k for rank k

C          x = -0.596012  y = -3.652330  z =  0.111252 angstrom
           Maximum rank =  0   Radius =  0.650 angstrom
                   Q00  =  -0.208203

C          x =  0.983988  y =  0.353670  z =  0.171252 angstrom
           Maximum rank =  0   Radius =  0.650 angstrom
                   Q00  =  -0.087230

C          x =  1.113988  y = -0.458330  z =  1.281252 angstrom
           Maximum rank =  0   Radius =  0.650 angstrom
                   Q00  =  -0.061390

C          x =  0.361988  y = -0.135330  z = -0.948748 angstrom
           Maximum rank =  0   Radius =  0.650 angstrom
                   Q00  =  -0.065593

C          x =  0.615988  y = -1.759330  z =  1.266252 angstrom
           Maximum rank =  0   Radius =  0.650 angstrom
                   Q00  =  -0.091689

C          x = -0.155012  y = -1.421330  z = -0.957748 angstrom
           Maximum rank =  0   Radius =  0.650 angstrom
                   Q00  =   0.017545

C          x = -0.040012  y = -2.248330  z =  0.143252 angstrom
           Maximum rank =  0   Radius =  0.650 angstrom
                   Q00  =  -0.102212

H          x =  1.401988  y =  1.349670  z =  0.176252 angstrom
           Maximum rank =  0   Radius =  0.325 angstrom
                   Q00  =   0.060420

H          x =  1.663988  y = -0.110330  z =  2.141252 angstrom
           Maximum rank =  0   Radius =  0.325 angstrom
                   Q00  =   0.062256

H          x =  0.267988  y =  0.486670  z = -1.828748 angstrom
           Maximum rank =  0   Radius =  0.325 angstrom
                   Q00  =   0.062837

H          x =  0.769988  y = -2.391330  z =  2.128252 angstrom
           Maximum rank =  0   Radius =  0.325 angstrom
                   Q00  =   0.054304

H          x = -0.630012  y = -1.786330  z = -1.854748 angstrom
           Maximum rank =  0   Radius =  0.325 angstrom
                   Q00  =   0.054230

H          x =  0.195988  y = -4.350330  z =  0.384252 angstrom
           Maximum rank =  0   Radius =  0.325 angstrom
                   Q00  =   0.101795

H          x = -0.898012  y = -3.881330  z = -0.910748 angstrom
           Maximum rank =  0   Radius =  0.325 angstrom
                   Q00  =   0.096355

H          x = -1.463992  y = -3.805376  z =  0.769422 angstrom
           Maximum rank =  0   Radius =  0.325 angstrom
                   Q00  =   0.105081

C          x = -0.438012  y =  3.788670  z = -0.828748 angstrom
           Maximum rank =  0   Radius =  0.650 angstrom
                   Q00  =  -0.235139

C          x = -1.469012  y =  4.632670  z = -0.087748 angstrom
           Maximum rank =  0   Radius =  0.650 angstrom
                   Q00  =  -0.235584

H          x =  0.252988  y =  3.326670  z = -0.126748 angstrom
           Maximum rank =  0   Radius =  0.325 angstrom
                   Q00  =   0.078706

H          x = -0.949012  y =  3.002670  z = -1.384748 angstrom
           Maximum rank =  0   Radius =  0.325 angstrom
                   Q00  =   0.081076

H          x =  0.117988  y =  4.412670  z = -1.527748 angstrom
           Maximum rank =  0   Radius =  0.325 angstrom
                   Q00  =   0.076331

H          x = -1.992012  y =  3.997670  z =  0.629252 angstrom
           Maximum rank =  0   Radius =  0.325 angstrom
                   Q00  =   0.079479

H          x = -2.195012  y =  4.966670  z = -0.824748 angstrom
           Maximum rank =  0   Radius =  0.325 angstrom
                   Q00  =   0.075804

H          x = -1.042352  y =  5.498135  z =  0.440392 angstrom
           Maximum rank =  0   Radius =  0.325 angstrom
                   Q00  =   0.080820

Total multipoles referred to origin at
           x =   0.000000,  y =    0.000000,  z =    0.000000 angstrom
                   Q00  =  -0.000000

Finished at 23:9:56 on 27 Apr 2020

  DMA results are available in the Python driver through the
	  variable('DMA DISTRIBUTED MULTIPOLES')
  and
	  variable('DMA TOTAL MULTIPOLES')
  commands.

    Psi4 stopped on: Monday, 27 April 2020 11:09PM
    Psi4 wall time for execution: 0:01:33.25

*** Psi4 exiting successfully. Buy a developer a beer!
