                               Psi4 1.3.2 release

  ==> Input File <==

--------------------------------------------------------------------------
import numpy as np
set {scf_type pk
basis cc-pvdz
d_convergence 10
gdma_switch   0
gdma_limit    0
gdma_origin   [ 0.0,  0.0,  0.0 ]
}
molecule test {
    units Angstrom
    0 1
    --
    0 1
    C                0.706172130128794    -0.964707684304085     1.570806159788160
    C                1.227172130128793    -2.334707684304086     1.160806159788160
    H               -0.361827869871206    -0.897707684304086     1.369806159788159
    H                0.872172130128794    -0.813707684304085     2.636806159788160
    H                1.235172130128794    -0.185707684304086     1.021806159788160
    H                2.284172130128793    -2.375707684304085     1.424806159788160
    H                1.100292130128794    -2.478788684304086     0.077689159788160
    H                0.691662130128794    -3.124633684304086     1.707844159788160
    C               -0.387827869871206     1.202292315695914    -1.155193840211840
    C               -1.546827869871206     2.098292315695914    -1.578193840211840
    H               -0.771827869871206     0.375292315695914    -0.560193840211840
    H                0.098172130128794     0.794292315695915    -2.041193840211840
    H                0.339172130128794     1.767292315695914    -0.573193840211840
    H               -2.277827869871206     1.488292315695914    -2.110193840211840
    H               -2.008187869871207     2.544581315695914    -0.684898840211840
    H               -1.185527869871206     2.892580315695915    -2.247944840211840

}
e, wfn = energy('scf', return_wfn=True)
gdma(wfn)
dmavals = variable('DMA DISTRIBUTED MULTIPOLES')
charges = np.array(dmavals)
print(charges)
np.save('SSI-063LEU-140LEU-1-dimer.npy', np.array(charges))--------------------------------------------------------------------------

*** tstart() called on ds3
*** at Tue Apr 28 15:49:20 2020

   => Loading Basis Set <=

    Name: CC-PVDZ
    Role: ORBITAL
    Keyword: BASIS
    atoms 1-2, 9-10  entry C          line   138 file /theoryfs2/ds/metcalf/miniconda2/envs/tf2gpu/share/psi4/basis/cc-pvdz.gbs
    atoms 3-8, 11-16 entry H          line    22 file /theoryfs2/ds/metcalf/miniconda2/envs/tf2gpu/share/psi4/basis/cc-pvdz.gbs

         ---------------------------------------------------------
                                   SCF
               by Justin Turney, Rob Parrish, Andy Simmonett
                          and Daniel G. A. Smith
                              RHF Reference
                        1 Threads,    500 MiB Core
         ---------------------------------------------------------

  ==> Geometry <==

    Molecular point group: c1
    Full point group: C1

    Geometry (in Angstrom), charge = 0, multiplicity = 1:

       Center              X                  Y                   Z               Mass
    ------------   -----------------  -----------------  -----------------  -----------------
         C            0.706172130129    -0.964707684304     1.570806159788    12.000000000000
         C            1.227172130129    -2.334707684304     1.160806159788    12.000000000000
         H           -0.361827869871    -0.897707684304     1.369806159788     1.007825032230
         H            0.872172130129    -0.813707684304     2.636806159788     1.007825032230
         H            1.235172130129    -0.185707684304     1.021806159788     1.007825032230
         H            2.284172130129    -2.375707684304     1.424806159788     1.007825032230
         H            1.100292130129    -2.478788684304     0.077689159788     1.007825032230
         H            0.691662130129    -3.124633684304     1.707844159788     1.007825032230
         C           -0.387827869871     1.202292315696    -1.155193840212    12.000000000000
         C           -1.546827869871     2.098292315696    -1.578193840212    12.000000000000
         H           -0.771827869871     0.375292315696    -0.560193840212     1.007825032230
         H            0.098172130129     0.794292315696    -2.041193840212     1.007825032230
         H            0.339172130129     1.767292315696    -0.573193840212     1.007825032230
         H           -2.277827869871     1.488292315696    -2.110193840212     1.007825032230
         H           -2.008187869871     2.544581315696    -0.684898840212     1.007825032230
         H           -1.185527869871     2.892580315696    -2.247944840212     1.007825032230

  Running in c1 symmetry.

  Rotational constants: A =      0.61065  B =      0.04561  C =      0.04449 [cm^-1]
  Rotational constants: A =  18306.96441  B =   1367.40606  C =   1333.88226 [MHz]
  Nuclear repulsion =  121.924514376309929

  Charge       = 0
  Multiplicity = 1
  Electrons    = 36
  Nalpha       = 18
  Nbeta        = 18

  ==> Algorithm <==

  SCF Algorithm Type is PK.
  DIIS enabled.
  MOM disabled.
  Fractional occupation disabled.
  Guess Type is SAD.
  Energy threshold   = 1.00e-06
  Density threshold  = 1.00e-10
  Integral threshold = 0.00e+00

  ==> Primary Basis <==

  Basis Set: CC-PVDZ
    Blend: CC-PVDZ
    Number of shells: 60
    Number of basis function: 116
    Number of Cartesian functions: 120
    Spherical Harmonics?: true
    Max angular momentum: 2

  ==> Pre-Iterations <==

   -------------------------------------------------------
    Irrep   Nso     Nmo     Nalpha   Nbeta   Ndocc  Nsocc
   -------------------------------------------------------
     A        116     116       0       0       0       0
   -------------------------------------------------------
    Total     116     116      18      18      18       0
   -------------------------------------------------------

  ==> Integral Setup <==

  Using integral reordering PK algorithm.
  Sizing the integral batches needed.
  Building batch lookup table.
   Calculation information:
      Number of atoms:                  16
      Number of AO shells:              60
      Number of primitives:            148
      Number of atomic orbitals:       120
      Number of basis functions:       116

      Integral cutoff                 1.00e-12
      Number of threads:                 1

	Batch   1 pq = [       0,    6786] index = [             0,23028291] size =     23028291
  Task number: 3
  Buffer size: 11059200
  Buffer per thread: 2
  We computed 1405153 shell quartets total.
  Whereas there are 1675365 unique shell quartets.

  ==> DiskJK: Disk-Based J/K Matrices <==

    J tasked:                  Yes
    K tasked:                  Yes
    wK tasked:                  No
    Memory [MiB]:              375
    Schwarz Cutoff:          1E-12

    OpenMP threads:              1

  Minimum eigenvalue in the overlap matrix is 6.9396959607E-03.
  Using Symmetric Orthogonalization.

  SCF Guess: Superposition of Atomic Densities via on-the-fly atomic UHF.

  ==> Iterations <==

                        Total Energy        Delta E     RMS |[F,P]|

   @RHF iter SAD:  -157.37673743231016   -1.57377e+02   0.00000e+00
   @RHF iter   1:  -158.30545886738136   -9.28721e-01   4.23280e-03 DIIS
   @RHF iter   2:  -158.44007436357484   -1.34615e-01   1.80137e-03 DIIS
   @RHF iter   3:  -158.46361814200574   -2.35438e-02   3.50777e-04 DIIS
   @RHF iter   4:  -158.46545889332884   -1.84075e-03   3.86901e-05 DIIS
   @RHF iter   5:  -158.46548250815670   -2.36148e-05   6.48638e-06 DIIS
   @RHF iter   6:  -158.46548313815691   -6.30000e-07   1.02237e-06 DIIS
   @RHF iter   7:  -158.46548314897203   -1.08151e-08   3.08138e-07 DIIS
   @RHF iter   8:  -158.46548314981217   -8.40146e-10   4.35812e-08 DIIS
   @RHF iter   9:  -158.46548314984273   -3.05533e-11   9.42592e-09 DIIS
   @RHF iter  10:  -158.46548314984432   -1.59162e-12   2.37322e-09 DIIS
   @RHF iter  11:  -158.46548314984423    8.52651e-14   5.83412e-10 DIIS
   @RHF iter  12:  -158.46548314984446   -2.27374e-13   1.82300e-10 DIIS
   @RHF iter  13:  -158.46548314984389    5.68434e-13   2.57778e-11 DIIS
  Energy and wave function converged.

  ==> Post-Iterations <==

    Orbital Energies [Eh]
    ---------------------

    Doubly Occupied:

       1A    -11.218462     2A    -11.218284     3A    -11.214951
       4A    -11.214749     5A     -1.020893     6A     -1.018121
       7A     -0.837904     8A     -0.831402     9A     -0.604020
      10A     -0.600687    11A     -0.597901    12A     -0.594380
      13A     -0.503485    14A     -0.496088    15A     -0.490100
      16A     -0.487481    17A     -0.482427    18A     -0.477321

    Virtual:

      19A      0.175726    20A      0.194945    21A      0.225855
      22A      0.238169    23A      0.239681    24A      0.258092
      25A      0.264768    26A      0.275283    27A      0.281682
      28A      0.287941    29A      0.304972    30A      0.353674
      31A      0.394619    32A      0.412067    33A      0.580060
      34A      0.586729    35A      0.599841    36A      0.603417
      37A      0.612627    38A      0.632787    39A      0.665402
      40A      0.678698    41A      0.688052    42A      0.801815
      43A      0.851758    44A      0.865644    45A      0.887453
      46A      0.889956    47A      0.893229    48A      0.894805
      49A      0.902008    50A      0.909227    51A      0.916657
      52A      0.919643    53A      0.929133    54A      0.960478
      55A      0.977115    56A      0.991134    57A      1.124087
      58A      1.126442    59A      1.130327    60A      1.168001
      61A      1.230614    62A      1.251332    63A      1.465624
      64A      1.481054    65A      1.485088    66A      1.499296
      67A      1.554784    68A      1.593900    69A      1.676360
      70A      1.679550    71A      1.690381    72A      1.707739
      73A      1.848511    74A      1.857529    75A      1.859096
      76A      1.877837    77A      1.905819    78A      1.923874
      79A      1.938631    80A      1.943174    81A      1.947942
      82A      1.951210    83A      1.954193    84A      1.961099
      85A      1.968264    86A      1.975926    87A      1.979832
      88A      2.021980    89A      2.098586    90A      2.110316
      91A      2.112752    92A      2.132593    93A      2.290313
      94A      2.295523    95A      2.308253    96A      2.321971
      97A      2.454612    98A      2.459219    99A      2.461427
     100A      2.489601   101A      2.564835   102A      2.571342
     103A      2.573320   104A      2.581953   105A      2.759731
     106A      2.764411   107A      2.788020   108A      2.800365
     109A      2.842486   110A      2.846716   111A      2.848586
     112A      2.857023   113A      2.945409   114A      2.953963
     115A      2.963585   116A      2.992100

    Final Occupation by Irrep:
              A
    DOCC [    18 ]

  @RHF Final Energy:  -158.46548314984389

   => Energetics <=

    Nuclear Repulsion Energy =            121.9245143763099293
    One-Electron Energy =                -452.9626841533920469
    Two-Electron Energy =                 172.5726866272381983
    Total Energy =                       -158.4654831498438909

Computation Completed

Properties will be evaluated at   0.000000,   0.000000,   0.000000 [a0]

Properties computed using the SCF density matrix

  Nuclear Dipole Moment: [e a0]
     X:     0.0146      Y:    -0.0131      Z:     0.0198

  Electronic Dipole Moment: [e a0]
     X:    -0.0065      Y:     0.0106      Z:    -0.0096

  Dipole Moment: [e a0]
     X:     0.0081      Y:    -0.0024      Z:     0.0102     Total:     0.0132

  Dipole Moment: [D]
     X:     0.0207      Y:    -0.0061      Z:     0.0259     Total:     0.0337

*** tstop() called on ds3 at Tue Apr 28 15:49:44 2020
Module time:
	user time   =       7.03 seconds =       0.12 minutes
	system time =       2.46 seconds =       0.04 minutes
	total time  =         24 seconds =       0.40 minutes
Total time:
	user time   =       7.03 seconds =       0.12 minutes
	system time =       2.46 seconds =       0.04 minutes
	total time  =         24 seconds =       0.40 minutes
                                     G D M A

                                 by Anthony Stone

                           version 2.2.06, 22 June 2011

               Distributed Multipoles from Gaussian wavefunctions

Starting at 15:49:44 on 28 Apr 2020

Using SCF density matrix from file ./SSI/SSI-063LEU-140LEU-1-dimer.test.17959.fchk

                         Distributed Multipole Analysis

Standard DMA

Positions and radii in angstrom
Multipole moments in atomic units, ea_0^k for rank k

C          x =  0.706172  y = -0.964708  z =  1.570806 angstrom
           Maximum rank =  0   Radius =  0.650 angstrom
                   Q00  =  -0.234428

C          x =  1.227172  y = -2.334708  z =  1.160806 angstrom
           Maximum rank =  0   Radius =  0.650 angstrom
                   Q00  =  -0.231461

H          x = -0.361828  y = -0.897708  z =  1.369806 angstrom
           Maximum rank =  0   Radius =  0.325 angstrom
                   Q00  =   0.075944

H          x =  0.872172  y = -0.813708  z =  2.636806 angstrom
           Maximum rank =  0   Radius =  0.325 angstrom
                   Q00  =   0.076501

H          x =  1.235172  y = -0.185708  z =  1.021806 angstrom
           Maximum rank =  0   Radius =  0.325 angstrom
                   Q00  =   0.081362

H          x =  2.284172  y = -2.375708  z =  1.424806 angstrom
           Maximum rank =  0   Radius =  0.325 angstrom
                   Q00  =   0.077027

H          x =  1.100292  y = -2.478789  z =  0.077689 angstrom
           Maximum rank =  0   Radius =  0.325 angstrom
                   Q00  =   0.078266

H          x =  0.691662  y = -3.124634  z =  1.707844 angstrom
           Maximum rank =  0   Radius =  0.325 angstrom
                   Q00  =   0.077328

C          x = -0.387828  y =  1.202292  z = -1.155194 angstrom
           Maximum rank =  0   Radius =  0.650 angstrom
                   Q00  =  -0.229173

C          x = -1.546828  y =  2.098292  z = -1.578194 angstrom
           Maximum rank =  0   Radius =  0.650 angstrom
                   Q00  =  -0.243198

H          x = -0.771828  y =  0.375292  z = -0.560194 angstrom
           Maximum rank =  0   Radius =  0.325 angstrom
                   Q00  =   0.082285

H          x =  0.098172  y =  0.794292  z = -2.041194 angstrom
           Maximum rank =  0   Radius =  0.325 angstrom
                   Q00  =   0.077016

H          x =  0.339172  y =  1.767292  z = -0.573194 angstrom
           Maximum rank =  0   Radius =  0.325 angstrom
                   Q00  =   0.078163

H          x = -2.277828  y =  1.488292  z = -2.110194 angstrom
           Maximum rank =  0   Radius =  0.325 angstrom
                   Q00  =   0.078520

H          x = -2.008188  y =  2.544581  z = -0.684899 angstrom
           Maximum rank =  0   Radius =  0.325 angstrom
                   Q00  =   0.077794

H          x = -1.185528  y =  2.892580  z = -2.247945 angstrom
           Maximum rank =  0   Radius =  0.325 angstrom
                   Q00  =   0.078056

Total multipoles referred to origin at
           x =   0.000000,  y =    0.000000,  z =    0.000000 angstrom
                   Q00  =  -0.000000

Finished at 15:49:45 on 28 Apr 2020

  DMA results are available in the Python driver through the
	  variable('DMA DISTRIBUTED MULTIPOLES')
  and
	  variable('DMA TOTAL MULTIPOLES')
  commands.

    Psi4 stopped on: Tuesday, 28 April 2020 03:49PM
    Psi4 wall time for execution: 0:00:24.57

*** Psi4 exiting successfully. Buy a developer a beer!
