                               Psi4 1.3.2 release

  ==> Input File <==

--------------------------------------------------------------------------
import numpy as np
set {scf_type pk
basis cc-pvdz
d_convergence 10
gdma_switch   0
gdma_limit    0
gdma_origin   [ 0.0,  0.0,  0.0 ]
}
molecule test {
    units Angstrom
    0 1
    --
    0 1
    C               -2.637048807007064     1.546878716113045     1.938896428299777
    C                0.238951192992936    -1.033121283886955     0.087896428299777
    C                0.508951192992936    -0.478121283886955     1.322896428299777
    C               -0.935048807007064    -0.733121283886955    -0.564103571700223
    C               -0.417048807007064     0.377878716113045     1.919896428299777
    C               -1.868048807007064     0.086878716113045     0.035896428299777
    C               -1.611048807007064     0.663878716113045     1.284896428299777
    H                0.936951192992936    -1.729121283886955    -0.351103571700223
    H                1.429951192992936    -0.725121283886955     1.833896428299777
    H               -1.144048807007064    -1.178121283886955    -1.526103571700223
    H               -0.203048807007064     0.804878716113045     2.889896428299777
    H               -2.808048807007065     0.279878716113045    -0.461103571700223
    H               -3.270048807007064     2.006878716113045     1.177896428299777
    H               -2.106048807007064     2.340878716113045     2.451896428299777
    H               -3.261758807007064     1.014828716113045     2.671466428299777
    C                3.221951192992936    -0.276121283886955    -1.961103571700223
    C                2.846951192992936    -0.249121283886955    -3.435103571700223
    H                2.949951192992935     0.670878716113045    -1.498103571700223
    H                2.674951192992935    -1.072121283886955    -1.469103571700223
    H                4.284951192992936    -0.476121283886955    -1.828103571700223
    H                3.203951192992935    -1.178121283886955    -3.879103571700223
    H                3.315404192992935     0.596118716113045    -3.960583571700223
    H                1.753467192992936    -0.235281283886955    -3.553853571700223

}
e, wfn = energy('scf', return_wfn=True)
gdma(wfn)
dmavals = variable('DMA DISTRIBUTED MULTIPOLES')
charges = np.array(dmavals)
print(charges)
np.save('SSI-095PHE-160VAL-2-dimer.npy', np.array(charges))--------------------------------------------------------------------------

*** tstart() called on ds3
*** at Mon Apr 27 16:11:57 2020

   => Loading Basis Set <=

    Name: CC-PVDZ
    Role: ORBITAL
    Keyword: BASIS
    atoms 1-7, 16-17  entry C          line   138 file /theoryfs2/ds/metcalf/miniconda2/envs/tf2gpu/share/psi4/basis/cc-pvdz.gbs
    atoms 8-15, 18-23 entry H          line    22 file /theoryfs2/ds/metcalf/miniconda2/envs/tf2gpu/share/psi4/basis/cc-pvdz.gbs

         ---------------------------------------------------------
                                   SCF
               by Justin Turney, Rob Parrish, Andy Simmonett
                          and Daniel G. A. Smith
                              RHF Reference
                        1 Threads,    500 MiB Core
         ---------------------------------------------------------

  ==> Geometry <==

    Molecular point group: c1
    Full point group: C1

    Geometry (in Angstrom), charge = 0, multiplicity = 1:

       Center              X                  Y                   Z               Mass
    ------------   -----------------  -----------------  -----------------  -----------------
         C           -2.637048807007     1.546878716113     1.938896428300    12.000000000000
         C            0.238951192993    -1.033121283887     0.087896428300    12.000000000000
         C            0.508951192993    -0.478121283887     1.322896428300    12.000000000000
         C           -0.935048807007    -0.733121283887    -0.564103571700    12.000000000000
         C           -0.417048807007     0.377878716113     1.919896428300    12.000000000000
         C           -1.868048807007     0.086878716113     0.035896428300    12.000000000000
         C           -1.611048807007     0.663878716113     1.284896428300    12.000000000000
         H            0.936951192993    -1.729121283887    -0.351103571700     1.007825032230
         H            1.429951192993    -0.725121283887     1.833896428300     1.007825032230
         H           -1.144048807007    -1.178121283887    -1.526103571700     1.007825032230
         H           -0.203048807007     0.804878716113     2.889896428300     1.007825032230
         H           -2.808048807007     0.279878716113    -0.461103571700     1.007825032230
         H           -3.270048807007     2.006878716113     1.177896428300     1.007825032230
         H           -2.106048807007     2.340878716113     2.451896428300     1.007825032230
         H           -3.261758807007     1.014828716113     2.671466428300     1.007825032230
         C            3.221951192993    -0.276121283887    -1.961103571700    12.000000000000
         C            2.846951192993    -0.249121283887    -3.435103571700    12.000000000000
         H            2.949951192993     0.670878716113    -1.498103571700     1.007825032230
         H            2.674951192993    -1.072121283887    -1.469103571700     1.007825032230
         H            4.284951192993    -0.476121283887    -1.828103571700     1.007825032230
         H            3.203951192993    -1.178121283887    -3.879103571700     1.007825032230
         H            3.315404192993     0.596118716113    -3.960583571700     1.007825032230
         H            1.753467192993    -0.235281283887    -3.553853571700     1.007825032230

  Running in c1 symmetry.

  Rotational constants: A =      0.10416  B =      0.01947  C =      0.01833 [cm^-1]
  Rotational constants: A =   3122.74632  B =    583.67292  C =    549.38009 [MHz]
  Nuclear repulsion =  402.060116066004298

  Charge       = 0
  Multiplicity = 1
  Electrons    = 68
  Nalpha       = 34
  Nbeta        = 34

  ==> Algorithm <==

  SCF Algorithm Type is PK.
  DIIS enabled.
  MOM disabled.
  Fractional occupation disabled.
  Guess Type is SAD.
  Energy threshold   = 1.00e-06
  Density threshold  = 1.00e-10
  Integral threshold = 0.00e+00

  ==> Primary Basis <==

  Basis Set: CC-PVDZ
    Blend: CC-PVDZ
    Number of shells: 96
    Number of basis function: 196
    Number of Cartesian functions: 205
    Spherical Harmonics?: true
    Max angular momentum: 2

  ==> Pre-Iterations <==

   -------------------------------------------------------
    Irrep   Nso     Nmo     Nalpha   Nbeta   Ndocc  Nsocc
   -------------------------------------------------------
     A        196     196       0       0       0       0
   -------------------------------------------------------
    Total     196     196      34      34      34       0
   -------------------------------------------------------

  ==> Integral Setup <==

  Using integral reordering PK algorithm.
  Sizing the integral batches needed.
  Building batch lookup table.
   Calculation information:
      Number of atoms:                  23
      Number of AO shells:              96
      Number of primitives:            268
      Number of atomic orbitals:       205
      Number of basis functions:       196

      Integral cutoff                 1.00e-12
      Number of threads:                 1

	Batch   1 pq = [       0,    9405] index = [             0,44231715] size =     44231715
	Batch   2 pq = [    9405,   13301] index = [      44231715,88464951] size =     44233236
	Batch   3 pq = [   13301,   16290] index = [      88464951,132690195] size =     44225244
	Batch   4 pq = [   16290,   18810] index = [     132690195,176917455] size =     44227260
	Batch   5 pq = [   18810,   19306] index = [     176917455,186370471] size =      9453016
  Task number: 17
  Buffer size: 11059200
  Buffer per thread: 2
  We computed 8691420 shell quartets total.
  Whereas there are 10841496 unique shell quartets.

  ==> DiskJK: Disk-Based J/K Matrices <==

    J tasked:                  Yes
    K tasked:                  Yes
    wK tasked:                  No
    Memory [MiB]:              375
    Schwarz Cutoff:          1E-12

    OpenMP threads:              1

  Minimum eigenvalue in the overlap matrix is 2.9813730513E-04.
  Using Symmetric Orthogonalization.

  SCF Guess: Superposition of Atomic Densities via on-the-fly atomic UHF.

  ==> Iterations <==

                        Total Energy        Delta E     RMS |[F,P]|

   @RHF iter SAD:  -347.97069425605599   -3.47971e+02   0.00000e+00
   @RHF iter   1:  -348.76187553310831   -7.91181e-01   2.93022e-03 DIIS
   @RHF iter   2:  -348.95749510366488   -1.95620e-01   1.22659e-03 DIIS
   @RHF iter   3:  -348.98881771378467   -3.13226e-02   2.60150e-04 DIIS
   @RHF iter   4:  -348.99132003514671   -2.50232e-03   5.13806e-05 DIIS
   @RHF iter   5:  -348.99139129904410   -7.12639e-05   1.64826e-05 DIIS
   @RHF iter   6:  -348.99139812866377   -6.82962e-06   4.54912e-06 DIIS
   @RHF iter   7:  -348.99139871906004   -5.90396e-07   1.33547e-06 DIIS
   @RHF iter   8:  -348.99139878022191   -6.11619e-08   3.60970e-07 DIIS
   @RHF iter   9:  -348.99139879057162   -1.03497e-08   1.80193e-07 DIIS
   @RHF iter  10:  -348.99139879334791   -2.77629e-09   8.40181e-08 DIIS
   @RHF iter  11:  -348.99139879425712   -9.09210e-10   3.10830e-08 DIIS
   @RHF iter  12:  -348.99139879434364   -8.65157e-11   1.39836e-08 DIIS
   @RHF iter  13:  -348.99139879435592   -1.22782e-11   4.07442e-09 DIIS
   @RHF iter  14:  -348.99139879435671   -7.95808e-13   1.17113e-09 DIIS
   @RHF iter  15:  -348.99139879435677   -5.68434e-14   4.83148e-10 DIIS
   @RHF iter  16:  -348.99139879435523    1.53477e-12   2.07646e-10 DIIS
   @RHF iter  17:  -348.99139879435609   -8.52651e-13   7.48580e-11 DIIS
  Energy and wave function converged.

  ==> Post-Iterations <==

    Orbital Energies [Eh]
    ---------------------

    Doubly Occupied:

       1A    -11.238797     2A    -11.233687     3A    -11.231450
       4A    -11.229070     5A    -11.228666     6A    -11.228321
       7A    -11.226899     8A    -11.216241     9A    -11.211868
      10A     -1.156556    11A     -1.047138    12A     -1.017654
      13A     -1.012994    14A     -0.932509    15A     -0.833953
      16A     -0.826235    17A     -0.795393    18A     -0.693334
      19A     -0.633729    20A     -0.628450    21A     -0.597680
      22A     -0.595840    23A     -0.582886    24A     -0.577339
      25A     -0.562288    26A     -0.536603    27A     -0.500382
      28A     -0.490331    29A     -0.487514    30A     -0.484125
      31A     -0.479841    32A     -0.475962    33A     -0.333220
      34A     -0.322704

    Virtual:

      35A      0.136782    36A      0.142407    37A      0.172829
      38A      0.192531    39A      0.209845    40A      0.213526
      41A      0.237391    42A      0.242708    43A      0.254437
      44A      0.261319    45A      0.265193    46A      0.277503
      47A      0.283075    48A      0.286631    49A      0.305013
      50A      0.355865    51A      0.372524    52A      0.381524
      53A      0.409635    54A      0.455453    55A      0.469253
      56A      0.483523    57A      0.490088    58A      0.558909
      59A      0.584943    60A      0.601893    61A      0.606335
      62A      0.609795    63A      0.636926    64A      0.651457
      65A      0.681922    66A      0.685034    67A      0.689624
      68A      0.713212    69A      0.724560    70A      0.736965
      71A      0.741171    72A      0.746713    73A      0.753238
      74A      0.765891    75A      0.783797    76A      0.816992
      77A      0.837114    78A      0.854759    79A      0.859187
      80A      0.871631    81A      0.877371    82A      0.883278
      83A      0.894484    84A      0.894949    85A      0.902049
      86A      0.903619    87A      0.915014    88A      0.923652
      89A      0.928101    90A      0.939384    91A      0.942070
      92A      0.964384    93A      0.993240    94A      1.000515
      95A      1.013739    96A      1.056958    97A      1.119244
      98A      1.124449    99A      1.140833   100A      1.148734
     101A      1.153442   102A      1.159583   103A      1.195879
     104A      1.238444   105A      1.244043   106A      1.253104
     107A      1.256629   108A      1.275355   109A      1.300500
     110A      1.315318   111A      1.328712   112A      1.341109
     113A      1.415326   114A      1.475389   115A      1.494820
     116A      1.508363   117A      1.517268   118A      1.560305
     119A      1.579812   120A      1.605921   121A      1.671945
     122A      1.685292   123A      1.700837   124A      1.711460
     125A      1.733849   126A      1.750599   127A      1.775240
     128A      1.793666   129A      1.812793   130A      1.857306
     131A      1.863891   132A      1.878166   133A      1.887791
     134A      1.896045   135A      1.905698   136A      1.919490
     137A      1.921476   138A      1.924907   139A      1.937358
     140A      1.946358   141A      1.953380   142A      1.955471
     143A      1.961085   144A      1.962214   145A      1.976925
     146A      1.991973   147A      1.998723   148A      2.003823
     149A      2.043140   150A      2.073623   151A      2.080114
     152A      2.107276   153A      2.114179   154A      2.136271
     155A      2.150056   156A      2.169134   157A      2.170468
     158A      2.180609   159A      2.188062   160A      2.256275
     161A      2.281646   162A      2.294419   163A      2.302204
     164A      2.308465   165A      2.315380   166A      2.324209
     167A      2.337189   168A      2.447878   169A      2.472015
     170A      2.476294   171A      2.484031   172A      2.506127
     173A      2.549610   174A      2.562680   175A      2.591824
     176A      2.628935   177A      2.742516   178A      2.762440
     179A      2.764024   180A      2.771896   181A      2.797035
     182A      2.806438   183A      2.813093   184A      2.850793
     185A      2.857640   186A      2.866551   187A      2.881717
     188A      2.954745   189A      2.973436   190A      2.999875
     191A      3.023529   192A      3.036538   193A      3.166507
     194A      3.216558   195A      3.312022   196A      3.995009

    Final Occupation by Irrep:
              A
    DOCC [    34 ]

  @RHF Final Energy:  -348.99139879435609

   => Energetics <=

    Nuclear Repulsion Energy =            402.0601160660042979
    One-Electron Energy =               -1266.8037104469783571
    Two-Electron Energy =                 515.7521955866179724
    Total Energy =                       -348.9913987943560869

Computation Completed

Properties will be evaluated at   0.000000,   0.000000,   0.000000 [a0]

Properties computed using the SCF density matrix

  Nuclear Dipole Moment: [e a0]
     X:     7.2716      Y:     1.0503      Z:    -7.0330

  Electronic Dipole Moment: [e a0]
     X:    -7.3886      Y:    -1.0036      Z:     7.1410

  Dipole Moment: [e a0]
     X:    -0.1170      Y:     0.0467      Z:     0.1080     Total:     0.1660

  Dipole Moment: [D]
     X:    -0.2974      Y:     0.1186      Z:     0.2746     Total:     0.4218

*** tstop() called on ds3 at Mon Apr 27 16:13:49 2020
Module time:
	user time   =      62.60 seconds =       1.04 minutes
	system time =      31.29 seconds =       0.52 minutes
	total time  =        112 seconds =       1.87 minutes
Total time:
	user time   =      62.60 seconds =       1.04 minutes
	system time =      31.29 seconds =       0.52 minutes
	total time  =        112 seconds =       1.87 minutes
                                     G D M A

                                 by Anthony Stone

                           version 2.2.06, 22 June 2011

               Distributed Multipoles from Gaussian wavefunctions

Starting at 16:13:49 on 27 Apr 2020

Using SCF density matrix from file ./SSI/SSI-095PHE-160VAL-2-dimer.test.22405.fchk

                         Distributed Multipole Analysis

Standard DMA

Positions and radii in angstrom
Multipole moments in atomic units, ea_0^k for rank k

C          x = -2.637049  y =  1.546879  z =  1.938896 angstrom
           Maximum rank =  0   Radius =  0.650 angstrom
                   Q00  =  -0.197783

C          x =  0.238951  y = -1.033121  z =  0.087896 angstrom
           Maximum rank =  0   Radius =  0.650 angstrom
                   Q00  =  -0.047397

C          x =  0.508951  y = -0.478121  z =  1.322896 angstrom
           Maximum rank =  0   Radius =  0.650 angstrom
                   Q00  =  -0.070954

C          x = -0.935049  y = -0.733121  z = -0.564104 angstrom
           Maximum rank =  0   Radius =  0.650 angstrom
                   Q00  =  -0.075971

C          x = -0.417049  y =  0.377879  z =  1.919896 angstrom
           Maximum rank =  0   Radius =  0.650 angstrom
                   Q00  =  -0.092576

C          x = -1.868049  y =  0.086879  z =  0.035896 angstrom
           Maximum rank =  0   Radius =  0.650 angstrom
                   Q00  =  -0.008982

C          x = -1.611049  y =  0.663879  z =  1.284896 angstrom
           Maximum rank =  0   Radius =  0.650 angstrom
                   Q00  =  -0.101625

H          x =  0.936951  y = -1.729121  z = -0.351104 angstrom
           Maximum rank =  0   Radius =  0.325 angstrom
                   Q00  =   0.057909

H          x =  1.429951  y = -0.725121  z =  1.833896 angstrom
           Maximum rank =  0   Radius =  0.325 angstrom
                   Q00  =   0.064291

H          x = -1.144049  y = -1.178121  z = -1.526104 angstrom
           Maximum rank =  0   Radius =  0.325 angstrom
                   Q00  =   0.061485

H          x = -0.203049  y =  0.804879  z =  2.889896 angstrom
           Maximum rank =  0   Radius =  0.325 angstrom
                   Q00  =   0.054918

H          x = -2.808049  y =  0.279879  z = -0.461104 angstrom
           Maximum rank =  0   Radius =  0.325 angstrom
                   Q00  =   0.055329

H          x = -3.270049  y =  2.006879  z =  1.177896 angstrom
           Maximum rank =  0   Radius =  0.325 angstrom
                   Q00  =   0.098271

H          x = -2.106049  y =  2.340879  z =  2.451896 angstrom
           Maximum rank =  0   Radius =  0.325 angstrom
                   Q00  =   0.098310

H          x = -3.261759  y =  1.014829  z =  2.671466 angstrom
           Maximum rank =  0   Radius =  0.325 angstrom
                   Q00  =   0.104915

C          x =  3.221951  y = -0.276121  z = -1.961104 angstrom
           Maximum rank =  0   Radius =  0.650 angstrom
                   Q00  =  -0.239089

C          x =  2.846951  y = -0.249121  z = -3.435104 angstrom
           Maximum rank =  0   Radius =  0.650 angstrom
                   Q00  =  -0.225721

H          x =  2.949951  y =  0.670879  z = -1.498104 angstrom
           Maximum rank =  0   Radius =  0.325 angstrom
                   Q00  =   0.083166

H          x =  2.674951  y = -1.072121  z = -1.469104 angstrom
           Maximum rank =  0   Radius =  0.325 angstrom
                   Q00  =   0.075387

H          x =  4.284951  y = -0.476121  z = -1.828104 angstrom
           Maximum rank =  0   Radius =  0.325 angstrom
                   Q00  =   0.075711

H          x =  3.203951  y = -1.178121  z = -3.879104 angstrom
           Maximum rank =  0   Radius =  0.325 angstrom
                   Q00  =   0.071623

H          x =  3.315404  y =  0.596119  z = -3.960584 angstrom
           Maximum rank =  0   Radius =  0.325 angstrom
                   Q00  =   0.080956

H          x =  1.753467  y = -0.235281  z = -3.553854 angstrom
           Maximum rank =  0   Radius =  0.325 angstrom
                   Q00  =   0.077826

Total multipoles referred to origin at
           x =   0.000000,  y =    0.000000,  z =    0.000000 angstrom
                   Q00  =  -0.000000

Finished at 16:13:49 on 27 Apr 2020

  DMA results are available in the Python driver through the
	  variable('DMA DISTRIBUTED MULTIPOLES')
  and
	  variable('DMA TOTAL MULTIPOLES')
  commands.

    Psi4 stopped on: Monday, 27 April 2020 04:13PM
    Psi4 wall time for execution: 0:01:51.97

*** Psi4 exiting successfully. Buy a developer a beer!
