                               Psi4 1.3.2 release

  ==> Input File <==

--------------------------------------------------------------------------
import numpy as np
set {scf_type pk
basis cc-pvdz
d_convergence 10
gdma_switch   0
gdma_limit    0
gdma_origin   [ 0.0,  0.0,  0.0 ]
}
molecule test {
    units Angstrom
    0 1
    --
    0 1
    C               -1.285625641851217    -3.310461443165890    -0.291504039286929
    C                0.173374358148783    -1.124461443165890     0.037495960713071
    C               -0.318625641851217    -2.239461443165890    -0.733504039286929
    C                1.030374358148783    -0.352461443165890    -0.805504039286929
    C                0.224374358148783    -2.127461443165890    -1.958504039286929
    C                0.611374358148783     0.468538556834110     1.820495960713071
    C                1.452374358148783     1.216538556834110     0.961495960713071
    C               -0.029625641851217    -0.695461443165890     1.369495960713071
    C                1.672374358148783     0.810538556834110    -0.361504039286929
    N                1.045374358148783    -0.996461443165890    -2.030504039286929
    H                0.444374358148783     0.781538556834110     2.846495960713071
    H                1.930374358148783     2.115538556834110     1.330495960713071
    H               -0.672625641851217    -1.237461443165890     2.056495960713071
    H                2.312374358148783     1.356538556834110    -1.042504039286929
    H               -1.619625641851217    -3.840461443165890    -1.188504039286929
    H               -2.144625641851218    -2.798461443165890     0.146495960713071
    H               -0.030625641851217    -2.879461443165890    -2.696504039286929
    H                1.570374358148783    -0.685461443165890    -2.842504039286929
    H               -0.877855641851217    -4.000421443165890     0.461945960713071
    C               -1.571625641851217     3.459538556834110     1.565495960713071
    C               -2.284625641851217     4.096538556834110     0.354495960713071
    H               -1.462625641851217     4.200538556834109     2.359495960713071
    H               -2.153625641851217     2.615538556834110     1.939495960713071
    H               -0.584625641851217     3.105538556834110     1.267495960713071
    H               -2.396625641851217     3.349538556834110    -0.432504039286929
    H               -1.681158641851217     4.939738556834110    -0.012804039286929
    H               -3.278053641851217     4.418128556834109     0.700445960713071

}
e, wfn = energy('scf', return_wfn=True)
gdma(wfn)
dmavals = variable('DMA DISTRIBUTED MULTIPOLES')
charges = np.array(dmavals)
print(charges)
np.save('SSI-045TRP-100VAL-1-dimer.npy', np.array(charges))--------------------------------------------------------------------------

*** tstart() called on ds3
*** at Tue Apr 28 01:16:15 2020

   => Loading Basis Set <=

    Name: CC-PVDZ
    Role: ORBITAL
    Keyword: BASIS
    atoms 1-9, 20-21   entry C          line   138 file /theoryfs2/ds/metcalf/miniconda2/envs/tf2gpu/share/psi4/basis/cc-pvdz.gbs
    atoms 10           entry N          line   168 file /theoryfs2/ds/metcalf/miniconda2/envs/tf2gpu/share/psi4/basis/cc-pvdz.gbs
    atoms 11-19, 22-27 entry H          line    22 file /theoryfs2/ds/metcalf/miniconda2/envs/tf2gpu/share/psi4/basis/cc-pvdz.gbs

         ---------------------------------------------------------
                                   SCF
               by Justin Turney, Rob Parrish, Andy Simmonett
                          and Daniel G. A. Smith
                              RHF Reference
                        1 Threads,    500 MiB Core
         ---------------------------------------------------------

  ==> Geometry <==

    Molecular point group: c1
    Full point group: C1

    Geometry (in Angstrom), charge = 0, multiplicity = 1:

       Center              X                  Y                   Z               Mass
    ------------   -----------------  -----------------  -----------------  -----------------
         C           -1.285625641851    -3.310461443166    -0.291504039287    12.000000000000
         C            0.173374358149    -1.124461443166     0.037495960713    12.000000000000
         C           -0.318625641851    -2.239461443166    -0.733504039287    12.000000000000
         C            1.030374358149    -0.352461443166    -0.805504039287    12.000000000000
         C            0.224374358149    -2.127461443166    -1.958504039287    12.000000000000
         C            0.611374358149     0.468538556834     1.820495960713    12.000000000000
         C            1.452374358149     1.216538556834     0.961495960713    12.000000000000
         C           -0.029625641851    -0.695461443166     1.369495960713    12.000000000000
         C            1.672374358149     0.810538556834    -0.361504039287    12.000000000000
         N            1.045374358149    -0.996461443166    -2.030504039287    14.003074004430
         H            0.444374358149     0.781538556834     2.846495960713     1.007825032230
         H            1.930374358149     2.115538556834     1.330495960713     1.007825032230
         H           -0.672625641851    -1.237461443166     2.056495960713     1.007825032230
         H            2.312374358149     1.356538556834    -1.042504039287     1.007825032230
         H           -1.619625641851    -3.840461443166    -1.188504039287     1.007825032230
         H           -2.144625641851    -2.798461443166     0.146495960713     1.007825032230
         H           -0.030625641851    -2.879461443166    -2.696504039287     1.007825032230
         H            1.570374358149    -0.685461443166    -2.842504039287     1.007825032230
         H           -0.877855641851    -4.000421443166     0.461945960713     1.007825032230
         C           -1.571625641851     3.459538556834     1.565495960713    12.000000000000
         C           -2.284625641851     4.096538556834     0.354495960713    12.000000000000
         H           -1.462625641851     4.200538556834     2.359495960713     1.007825032230
         H           -2.153625641851     2.615538556834     1.939495960713     1.007825032230
         H           -0.584625641851     3.105538556834     1.267495960713     1.007825032230
         H           -2.396625641851     3.349538556834    -0.432504039287     1.007825032230
         H           -1.681158641851     4.939738556834    -0.012804039287     1.007825032230
         H           -3.278053641851     4.418128556834     0.700445960713     1.007825032230

  Running in c1 symmetry.

  Rotational constants: A =      0.04203  B =      0.01540  C =      0.01464 [cm^-1]
  Rotational constants: A =   1259.91536  B =    461.80058  C =    438.81265 [MHz]
  Nuclear repulsion =  645.374123281384300

  Charge       = 0
  Multiplicity = 1
  Electrons    = 88
  Nalpha       = 44
  Nbeta        = 44

  ==> Algorithm <==

  SCF Algorithm Type is PK.
  DIIS enabled.
  MOM disabled.
  Fractional occupation disabled.
  Guess Type is SAD.
  Energy threshold   = 1.00e-06
  Density threshold  = 1.00e-10
  Integral threshold = 0.00e+00

  ==> Primary Basis <==

  Basis Set: CC-PVDZ
    Blend: CC-PVDZ
    Number of shells: 117
    Number of basis function: 243
    Number of Cartesian functions: 255
    Spherical Harmonics?: true
    Max angular momentum: 2

  ==> Pre-Iterations <==

   -------------------------------------------------------
    Irrep   Nso     Nmo     Nalpha   Nbeta   Ndocc  Nsocc
   -------------------------------------------------------
     A        243     243       0       0       0       0
   -------------------------------------------------------
    Total     243     243      44      44      44       0
   -------------------------------------------------------

  ==> Integral Setup <==

  Using integral reordering PK algorithm.
  Sizing the integral batches needed.
  Building batch lookup table.
   Calculation information:
      Number of atoms:                  27
      Number of AO shells:             117
      Number of primitives:            339
      Number of atomic orbitals:       255
      Number of basis functions:       243

      Integral cutoff                 1.00e-12
      Number of threads:                 1

	Batch   1 pq = [       0,    9405] index = [             0,44231715] size =     44231715
	Batch   2 pq = [    9405,   13301] index = [      44231715,88464951] size =     44233236
	Batch   3 pq = [   13301,   16290] index = [      88464951,132690195] size =     44225244
	Batch   4 pq = [   16290,   18810] index = [     132690195,176917455] size =     44227260
	Batch   5 pq = [   18810,   21030] index = [     176917455,221140965] size =     44223510
	Batch   6 pq = [   21030,   23037] index = [     221140965,265363203] size =     44222238
	Batch   7 pq = [   23037,   24883] index = [     265363203,309594286] size =     44231083
	Batch   8 pq = [   24883,   26601] index = [     309594286,353819901] size =     44225615
	Batch   9 pq = [   26601,   28214] index = [     353819901,398029005] size =     44209104
	Batch  10 pq = [   28214,   29646] index = [     398029005,439457481] size =     41428476
  Task number: 40
  Buffer size: 11059200
  Buffer per thread: 2
  We computed 20784107 shell quartets total.
  Whereas there are 23829156 unique shell quartets.

  ==> DiskJK: Disk-Based J/K Matrices <==

    J tasked:                  Yes
    K tasked:                  Yes
    wK tasked:                  No
    Memory [MiB]:              375
    Schwarz Cutoff:          1E-12

    OpenMP threads:              1

  Minimum eigenvalue in the overlap matrix is 2.6010362077E-04.
  Using Symmetric Orthogonalization.

  SCF Guess: Superposition of Atomic Densities via on-the-fly atomic UHF.

  ==> Iterations <==

                        Total Energy        Delta E     RMS |[F,P]|

   @RHF iter SAD:  -478.79472909519018   -4.78795e+02   0.00000e+00
   @RHF iter   1:  -479.48889927822506   -6.94170e-01   2.56646e-03 DIIS
   @RHF iter   2:  -479.71640268222075   -2.27503e-01   1.13074e-03 DIIS
   @RHF iter   3:  -479.75650016394945   -4.00975e-02   2.99654e-04 DIIS
   @RHF iter   4:  -479.76024536229073   -3.74520e-03   1.38377e-04 DIIS
   @RHF iter   5:  -479.76088748624284   -6.42124e-04   1.97747e-05 DIIS
   @RHF iter   6:  -479.76091742907477   -2.99428e-05   8.96333e-06 DIIS
   @RHF iter   7:  -479.76092339515975   -5.96608e-06   3.88696e-06 DIIS
   @RHF iter   8:  -479.76092512630845   -1.73115e-06   1.47134e-06 DIIS
   @RHF iter   9:  -479.76092545218728   -3.25879e-07   6.59582e-07 DIIS
   @RHF iter  10:  -479.76092551774741   -6.55601e-08   3.14365e-07 DIIS
   @RHF iter  11:  -479.76092553516196   -1.74145e-08   1.17608e-07 DIIS
   @RHF iter  12:  -479.76092553759992   -2.43796e-09   3.94906e-08 DIIS
   @RHF iter  13:  -479.76092553777619   -1.76271e-10   1.09456e-08 DIIS
   @RHF iter  14:  -479.76092553778767   -1.14824e-11   4.96882e-09 DIIS
   @RHF iter  15:  -479.76092553778972   -2.04636e-12   2.53923e-09 DIIS
   @RHF iter  16:  -479.76092553779324   -3.52429e-12   1.03884e-09 DIIS
   @RHF iter  17:  -479.76092553779330   -5.68434e-14   4.09660e-10 DIIS
   @RHF iter  18:  -479.76092553778966    3.63798e-12   1.65913e-10 DIIS
   @RHF iter  19:  -479.76092553779165   -1.98952e-12   5.88463e-11 DIIS
  Energy and wave function converged.

  ==> Post-Iterations <==

    Orbital Energies [Eh]
    ---------------------

    Doubly Occupied:

       1A    -15.602591     2A    -11.269451     3A    -11.263886
       4A    -11.236518     5A    -11.235333     6A    -11.235185
       7A    -11.230754     8A    -11.225450     9A    -11.224606
      10A    -11.217930    11A    -11.212004    12A    -11.205610
      13A     -1.284421    14A     -1.120668    15A     -1.074255
      16A     -1.005509    17A     -0.994122    18A     -0.984356
      19A     -0.931759    20A     -0.835132    21A     -0.825316
      22A     -0.804168    23A     -0.747769    24A     -0.716085
      25A     -0.666232    26A     -0.637003    27A     -0.599173
      28A     -0.590065    29A     -0.589908    30A     -0.588610
      31A     -0.586772    32A     -0.563911    33A     -0.551304
      34A     -0.535981    35A     -0.529979    36A     -0.495003
      37A     -0.483874    38A     -0.479405    39A     -0.478430
      40A     -0.470944    41A     -0.453967    42A     -0.372562
      43A     -0.293441    44A     -0.279161

    Virtual:

      45A      0.122431    46A      0.163957    47A      0.181390
      48A      0.183927    49A      0.192609    50A      0.207714
      51A      0.221961    52A      0.227908    53A      0.230811
      54A      0.254193    55A      0.258522    56A      0.268797
      57A      0.275028    58A      0.278199    59A      0.285562
      60A      0.290327    61A      0.293478    62A      0.329613
      63A      0.366743    64A      0.374928    65A      0.394623
      66A      0.401554    67A      0.417189    68A      0.439804
      69A      0.469486    70A      0.474274    71A      0.495822
      72A      0.511339    73A      0.594447    74A      0.599404
      75A      0.604135    76A      0.613732    77A      0.616605
      78A      0.625664    79A      0.631864    80A      0.657506
      81A      0.659132    82A      0.689063    83A      0.696860
      84A      0.708503    85A      0.718614    86A      0.728452
      87A      0.730213    88A      0.738338    89A      0.750142
      90A      0.761256    91A      0.764240    92A      0.773138
      93A      0.783559    94A      0.806408    95A      0.831394
      96A      0.841386    97A      0.853840    98A      0.865370
      99A      0.876313   100A      0.883459   101A      0.887027
     102A      0.892999   103A      0.902150   104A      0.904545
     105A      0.906791   106A      0.908937   107A      0.921736
     108A      0.930903   109A      0.947741   110A      0.950316
     111A      0.955525   112A      0.965334   113A      0.970113
     114A      0.973718   115A      1.009147   116A      1.028031
     117A      1.061988   118A      1.073241   119A      1.087762
     120A      1.118332   121A      1.120524   122A      1.129340
     123A      1.139020   124A      1.142462   125A      1.163241
     126A      1.182517   127A      1.207595   128A      1.216603
     129A      1.226674   130A      1.232068   131A      1.252406
     132A      1.266654   133A      1.279058   134A      1.287604
     135A      1.318561   136A      1.326208   137A      1.337579
     138A      1.353319   139A      1.354911   140A      1.393938
     141A      1.436516   142A      1.488413   143A      1.493674
     144A      1.505115   145A      1.548609   146A      1.565149
     147A      1.581479   148A      1.588228   149A      1.616137
     150A      1.638165   151A      1.645245   152A      1.674573
     153A      1.679695   154A      1.686880   155A      1.706179
     156A      1.737500   157A      1.758405   158A      1.771467
     159A      1.782202   160A      1.811060   161A      1.829154
     162A      1.838226   163A      1.857921   164A      1.872255
     165A      1.880342   166A      1.881830   167A      1.893836
     168A      1.900772   169A      1.908665   170A      1.914734
     171A      1.918642   172A      1.937311   173A      1.946594
     174A      1.954350   175A      1.959043   176A      1.965167
     177A      1.967605   178A      1.970447   179A      1.989767
     180A      1.997662   181A      2.004825   182A      2.021398
     183A      2.046057   184A      2.070716   185A      2.076488
     186A      2.081289   187A      2.092281   188A      2.101180
     189A      2.107888   190A      2.119034   191A      2.129285
     192A      2.135505   193A      2.142880   194A      2.153726
     195A      2.167967   196A      2.224466   197A      2.232228
     198A      2.276323   199A      2.279965   200A      2.300617
     201A      2.314582   202A      2.316265   203A      2.319694
     204A      2.337554   205A      2.377470   206A      2.419313
     207A      2.435647   208A      2.456339   209A      2.467647
     210A      2.471512   211A      2.523717   212A      2.562261
     213A      2.573937   214A      2.583807   215A      2.585605
     216A      2.619884   217A      2.635392   218A      2.658657
     219A      2.692831   220A      2.751820   221A      2.767232
     222A      2.771828   223A      2.774712   224A      2.777872
     225A      2.807707   226A      2.816603   227A      2.840299
     228A      2.842733   229A      2.867910   230A      2.870763
     231A      2.903923   232A      2.956140   233A      2.961847
     234A      2.979019   235A      2.992347   236A      3.019769
     237A      3.058660   238A      3.086395   239A      3.181581
     240A      3.271640   241A      3.346178   242A      3.719287
     243A      3.907166

    Final Occupation by Irrep:
              A
    DOCC [    44 ]

  @RHF Final Energy:  -479.76092553779165

   => Energetics <=

    Nuclear Repulsion Energy =            645.3741232813842998
    One-Electron Energy =               -1928.8128885464182076
    Two-Electron Energy =                 803.6778397272422580
    Total Energy =                       -479.7609255377916497

Computation Completed

Properties will be evaluated at   0.000000,   0.000000,   0.000000 [a0]

Properties computed using the SCF density matrix

  Nuclear Dipole Moment: [e a0]
     X:    -9.9820      Y:    10.7284      Z:     4.5934

  Electronic Dipole Moment: [e a0]
     X:    10.1673      Y:   -10.9688      Z:    -5.3107

  Dipole Moment: [e a0]
     X:     0.1853      Y:    -0.2404      Z:    -0.7172     Total:     0.7788

  Dipole Moment: [D]
     X:     0.4710      Y:    -0.6111      Z:    -1.8230     Total:     1.9796

*** tstop() called on ds3 at Tue Apr 28 01:19:52 2020
Module time:
	user time   =     158.12 seconds =       2.64 minutes
	system time =      67.39 seconds =       1.12 minutes
	total time  =        217 seconds =       3.62 minutes
Total time:
	user time   =     158.12 seconds =       2.64 minutes
	system time =      67.39 seconds =       1.12 minutes
	total time  =        217 seconds =       3.62 minutes
                                     G D M A

                                 by Anthony Stone

                           version 2.2.06, 22 June 2011

               Distributed Multipoles from Gaussian wavefunctions

Starting at 1:19:52 on 28 Apr 2020

Using SCF density matrix from file ./SSI/SSI-045TRP-100VAL-1-dimer.test.7692.fchk

                         Distributed Multipole Analysis

Standard DMA

Positions and radii in angstrom
Multipole moments in atomic units, ea_0^k for rank k

C          x = -1.285626  y = -3.310461  z = -0.291504 angstrom
           Maximum rank =  0   Radius =  0.650 angstrom
                   Q00  =  -0.197723

C          x =  0.173374  y = -1.124461  z =  0.037496 angstrom
           Maximum rank =  0   Radius =  0.650 angstrom
                   Q00  =  -0.059116

C          x = -0.318626  y = -2.239461  z = -0.733504 angstrom
           Maximum rank =  0   Radius =  0.650 angstrom
                   Q00  =  -0.120000

C          x =  1.030374  y = -0.352461  z = -0.805504 angstrom
           Maximum rank =  0   Radius =  0.650 angstrom
                   Q00  =   0.291598

C          x =  0.224374  y = -2.127461  z = -1.958504 angstrom
           Maximum rank =  0   Radius =  0.650 angstrom
                   Q00  =   0.079208

C          x =  0.611374  y =  0.468539  z =  1.820496 angstrom
           Maximum rank =  0   Radius =  0.650 angstrom
                   Q00  =  -0.082916

C          x =  1.452374  y =  1.216539  z =  0.961496 angstrom
           Maximum rank =  0   Radius =  0.650 angstrom
                   Q00  =  -0.081522

C          x = -0.029626  y = -0.695461  z =  1.369496 angstrom
           Maximum rank =  0   Radius =  0.650 angstrom
                   Q00  =  -0.092851

C          x =  1.672374  y =  0.810539  z = -0.361504 angstrom
           Maximum rank =  0   Radius =  0.650 angstrom
                   Q00  =  -0.122383

N          x =  1.045374  y = -0.996461  z = -2.030504 angstrom
           Maximum rank =  0   Radius =  0.650 angstrom
                   Q00  =  -0.521368

H          x =  0.444374  y =  0.781539  z =  2.846496 angstrom
           Maximum rank =  0   Radius =  0.325 angstrom
                   Q00  =   0.065149

H          x =  1.930374  y =  2.115539  z =  1.330496 angstrom
           Maximum rank =  0   Radius =  0.325 angstrom
                   Q00  =   0.069930

H          x = -0.672626  y = -1.237461  z =  2.056496 angstrom
           Maximum rank =  0   Radius =  0.325 angstrom
                   Q00  =   0.069964

H          x =  2.312374  y =  1.356539  z = -1.042504 angstrom
           Maximum rank =  0   Radius =  0.325 angstrom
                   Q00  =   0.075849

H          x = -1.619626  y = -3.840461  z = -1.188504 angstrom
           Maximum rank =  0   Radius =  0.325 angstrom
                   Q00  =   0.101397

H          x = -2.144626  y = -2.798461  z =  0.146496 angstrom
           Maximum rank =  0   Radius =  0.325 angstrom
                   Q00  =   0.098542

H          x = -0.030626  y = -2.879461  z = -2.696504 angstrom
           Maximum rank =  0   Radius =  0.325 angstrom
                   Q00  =   0.105049

H          x =  1.570374  y = -0.685461  z = -2.842504 angstrom
           Maximum rank =  0   Radius =  0.325 angstrom
                   Q00  =   0.219465

H          x = -0.877856  y = -4.000421  z =  0.461946 angstrom
           Maximum rank =  0   Radius =  0.325 angstrom
                   Q00  =   0.100447

C          x = -1.571626  y =  3.459539  z =  1.565496 angstrom
           Maximum rank =  0   Radius =  0.650 angstrom
                   Q00  =  -0.241373

C          x = -2.284626  y =  4.096539  z =  0.354496 angstrom
           Maximum rank =  0   Radius =  0.650 angstrom
                   Q00  =  -0.236160

H          x = -1.462626  y =  4.200539  z =  2.359496 angstrom
           Maximum rank =  0   Radius =  0.325 angstrom
                   Q00  =   0.069900

H          x = -2.153626  y =  2.615539  z =  1.939496 angstrom
           Maximum rank =  0   Radius =  0.325 angstrom
                   Q00  =   0.079090

H          x = -0.584626  y =  3.105539  z =  1.267496 angstrom
           Maximum rank =  0   Radius =  0.325 angstrom
                   Q00  =   0.095789

H          x = -2.396626  y =  3.349539  z = -0.432504 angstrom
           Maximum rank =  0   Radius =  0.325 angstrom
                   Q00  =   0.083690

H          x = -1.681159  y =  4.939739  z = -0.012804 angstrom
           Maximum rank =  0   Radius =  0.325 angstrom
                   Q00  =   0.076712

H          x = -3.278054  y =  4.418129  z =  0.700446 angstrom
           Maximum rank =  0   Radius =  0.325 angstrom
                   Q00  =   0.073635

Total multipoles referred to origin at
           x =   0.000000,  y =    0.000000,  z =    0.000000 angstrom
                   Q00  =  -0.000000

Finished at 1:19:52 on 28 Apr 2020

  DMA results are available in the Python driver through the
	  variable('DMA DISTRIBUTED MULTIPOLES')
  and
	  variable('DMA TOTAL MULTIPOLES')
  commands.

    Psi4 stopped on: Tuesday, 28 April 2020 01:19AM
    Psi4 wall time for execution: 0:03:37.88

*** Psi4 exiting successfully. Buy a developer a beer!
