                               Psi4 1.3.2 release

  ==> Input File <==

--------------------------------------------------------------------------
import numpy as np
set {scf_type pk
basis cc-pvdz
d_convergence 10
gdma_switch   0
gdma_limit    0
gdma_origin   [ 0.0,  0.0,  0.0 ]
}
molecule test {
    units Angstrom
    0 1
    --
    0 1
    C               -0.564785815581367    -0.941539963766513    -0.610744352163719
    C                0.284214184418633    -2.194539963766514    -0.856744352163720
    C               -0.832785815581367    -0.174539963766513    -1.902744352163720
    C               -1.905785815581367    -1.283539963766513     0.061255647836280
    H               -0.002785815581367    -0.296539963766513     0.062255647836280
    H               -0.281785815581367    -2.872539963766513    -1.491744352163719
    H               -1.308785815581367    -0.826539963766513    -2.637744352163720
    H               -1.493785815581367     0.670460036233487    -1.702744352163720
    H                0.093214184418633     0.224460036233487    -2.317744352163719
    H               -2.648785815581367    -1.495539963766513    -0.706744352163720
    H               -1.819785815581367    -2.172539963766514     0.683255647836280
    H                0.527064184418633    -2.679469963766513     0.100265647836280
    H                1.222094184418633    -1.915709963766513    -1.359364352163720
    H               -2.290455815581367    -0.481969963766513     0.708955647836280
    C                0.848214184418633     2.107460036233487     1.192255647836280
    C                2.099214184418633     2.349460036233487     2.031255647836280
    H                0.157214184418633     1.447460036233487     1.713255647836281
    H                0.350214184418633     3.057460036233486     1.007255647836280
    H                1.133214184418633     1.675460036233487     0.234255647836280
    H                2.767214184418632     3.014460036233487     1.483255647836280
    H                2.645284184418633     1.427470036233487     2.279725647836280
    H                1.804554184418633     2.857710036233486     2.961235647836280

}
e, wfn = energy('scf', return_wfn=True)
gdma(wfn)
dmavals = variable('DMA DISTRIBUTED MULTIPOLES')
charges = np.array(dmavals)
print(charges)
np.save('SSI-027ILE-039THR-1-dimer.npy', np.array(charges))--------------------------------------------------------------------------

*** tstart() called on ds3
*** at Sun Apr 26 23:08:17 2020

   => Loading Basis Set <=

    Name: CC-PVDZ
    Role: ORBITAL
    Keyword: BASIS
    atoms 1-4, 15-16  entry C          line   138 file /theoryfs2/ds/metcalf/miniconda2/envs/tf2gpu/share/psi4/basis/cc-pvdz.gbs
    atoms 5-14, 17-22 entry H          line    22 file /theoryfs2/ds/metcalf/miniconda2/envs/tf2gpu/share/psi4/basis/cc-pvdz.gbs

         ---------------------------------------------------------
                                   SCF
               by Justin Turney, Rob Parrish, Andy Simmonett
                          and Daniel G. A. Smith
                              RHF Reference
                        1 Threads,    500 MiB Core
         ---------------------------------------------------------

  ==> Geometry <==

    Molecular point group: c1
    Full point group: C1

    Geometry (in Angstrom), charge = 0, multiplicity = 1:

       Center              X                  Y                   Z               Mass
    ------------   -----------------  -----------------  -----------------  -----------------
         C           -0.564785815581    -0.941539963767    -0.610744352164    12.000000000000
         C            0.284214184419    -2.194539963767    -0.856744352164    12.000000000000
         C           -0.832785815581    -0.174539963767    -1.902744352164    12.000000000000
         C           -1.905785815581    -1.283539963767     0.061255647836    12.000000000000
         H           -0.002785815581    -0.296539963767     0.062255647836     1.007825032230
         H           -0.281785815581    -2.872539963767    -1.491744352164     1.007825032230
         H           -1.308785815581    -0.826539963767    -2.637744352164     1.007825032230
         H           -1.493785815581     0.670460036233    -1.702744352164     1.007825032230
         H            0.093214184419     0.224460036233    -2.317744352164     1.007825032230
         H           -2.648785815581    -1.495539963767    -0.706744352164     1.007825032230
         H           -1.819785815581    -2.172539963767     0.683255647836     1.007825032230
         H            0.527064184419    -2.679469963767     0.100265647836     1.007825032230
         H            1.222094184419    -1.915709963767    -1.359364352164     1.007825032230
         H           -2.290455815581    -0.481969963767     0.708955647836     1.007825032230
         C            0.848214184419     2.107460036233     1.192255647836    12.000000000000
         C            2.099214184419     2.349460036233     2.031255647836    12.000000000000
         H            0.157214184419     1.447460036233     1.713255647836     1.007825032230
         H            0.350214184419     3.057460036233     1.007255647836     1.007825032230
         H            1.133214184419     1.675460036233     0.234255647836     1.007825032230
         H            2.767214184419     3.014460036233     1.483255647836     1.007825032230
         H            2.645284184419     1.427470036233     2.279725647836     1.007825032230
         H            1.804554184419     2.857710036233     2.961235647836     1.007825032230

  Running in c1 symmetry.

  Rotational constants: A =      0.13579  B =      0.03198  C =      0.03146 [cm^-1]
  Rotational constants: A =   4070.86365  B =    958.85256  C =    943.03486 [MHz]
  Nuclear repulsion =  243.724655310645034

  Charge       = 0
  Multiplicity = 1
  Electrons    = 52
  Nalpha       = 26
  Nbeta        = 26

  ==> Algorithm <==

  SCF Algorithm Type is PK.
  DIIS enabled.
  MOM disabled.
  Fractional occupation disabled.
  Guess Type is SAD.
  Energy threshold   = 1.00e-06
  Density threshold  = 1.00e-10
  Integral threshold = 0.00e+00

  ==> Primary Basis <==

  Basis Set: CC-PVDZ
    Blend: CC-PVDZ
    Number of shells: 84
    Number of basis function: 164
    Number of Cartesian functions: 170
    Spherical Harmonics?: true
    Max angular momentum: 2

  ==> Pre-Iterations <==

   -------------------------------------------------------
    Irrep   Nso     Nmo     Nalpha   Nbeta   Ndocc  Nsocc
   -------------------------------------------------------
     A        164     164       0       0       0       0
   -------------------------------------------------------
    Total     164     164      26      26      26       0
   -------------------------------------------------------

  ==> Integral Setup <==

  Using integral reordering PK algorithm.
  Sizing the integral batches needed.
  Building batch lookup table.
   Calculation information:
      Number of atoms:                  22
      Number of AO shells:              84
      Number of primitives:            212
      Number of atomic orbitals:       170
      Number of basis functions:       164

      Integral cutoff                 1.00e-12
      Number of threads:                 1

	Batch   1 pq = [       0,    9405] index = [             0,44231715] size =     44231715
	Batch   2 pq = [    9405,   13530] index = [      44231715,91537215] size =     47305500
  Task number: 9
  Buffer size: 11059200
  Buffer per thread: 2
  We computed 5575434 shell quartets total.
  Whereas there are 6374235 unique shell quartets.

  ==> DiskJK: Disk-Based J/K Matrices <==

    J tasked:                  Yes
    K tasked:                  Yes
    wK tasked:                  No
    Memory [MiB]:              375
    Schwarz Cutoff:          1E-12

    OpenMP threads:              1

  Minimum eigenvalue in the overlap matrix is 4.4623661102E-03.
  Using Symmetric Orthogonalization.

  SCF Guess: Superposition of Atomic Densities via on-the-fly atomic UHF.

  ==> Iterations <==

                        Total Energy        Delta E     RMS |[F,P]|

   @RHF iter SAD:  -235.40610580046823   -2.35406e+02   0.00000e+00
   @RHF iter   1:  -236.31183387327735   -9.05728e-01   3.52481e-03 DIIS
   @RHF iter   2:  -236.50187124274848   -1.90037e-01   1.52727e-03 DIIS
   @RHF iter   3:  -236.53554912007408   -3.36779e-02   3.12944e-04 DIIS
   @RHF iter   4:  -236.53818047966223   -2.63136e-03   6.94545e-05 DIIS
   @RHF iter   5:  -236.53826644446619   -8.59648e-05   1.58498e-05 DIIS
   @RHF iter   6:  -236.53827211612699   -5.67166e-06   2.67013e-06 DIIS
   @RHF iter   7:  -236.53827229586480   -1.79738e-07   6.61208e-07 DIIS
   @RHF iter   8:  -236.53827230815338   -1.22886e-08   1.61219e-07 DIIS
   @RHF iter   9:  -236.53827230891824   -7.64857e-10   4.56114e-08 DIIS
   @RHF iter  10:  -236.53827230898818   -6.99458e-11   1.00517e-08 DIIS
   @RHF iter  11:  -236.53827230899242   -4.23483e-12   2.04063e-09 DIIS
   @RHF iter  12:  -236.53827230899344   -1.02318e-12   4.26682e-10 DIIS
   @RHF iter  13:  -236.53827230899262    8.24230e-13   1.13265e-10 DIIS
   @RHF iter  14:  -236.53827230899284   -2.27374e-13   2.60393e-11 DIIS
  Energy and wave function converged.

  ==> Post-Iterations <==

    Orbital Energies [Eh]
    ---------------------

    Doubly Occupied:

       1A    -11.221170     2A    -11.219977     3A    -11.217796
       4A    -11.215644     5A    -11.213006     6A    -11.212739
       7A     -1.078853     8A     -1.020528     9A     -0.925920
      10A     -0.923227    11A     -0.838761    12A     -0.763563
      13A     -0.630849    14A     -0.600725    15A     -0.598123
      16A     -0.585496    17A     -0.584187    18A     -0.538857
      19A     -0.531742    20A     -0.504909    21A     -0.504061
      22A     -0.488334    23A     -0.486527    24A     -0.458327
      25A     -0.456330    26A     -0.449664

    Virtual:

      27A      0.167195    28A      0.193874    29A      0.210489
      30A      0.222278    31A      0.231174    32A      0.247881
      33A      0.254344    34A      0.258480    35A      0.266700
      36A      0.272888    37A      0.281669    38A      0.290200
      39A      0.304623    40A      0.313461    41A      0.320366
      42A      0.330522    43A      0.377036    44A      0.389126
      45A      0.410483    46A      0.431509    47A      0.573262
      48A      0.575270    49A      0.596913    50A      0.600126
      51A      0.606858    52A      0.611917    53A      0.635977
      54A      0.654499    55A      0.682470    56A      0.729236
      57A      0.768362    58A      0.794704    59A      0.819627
      60A      0.823290    61A      0.841782    62A      0.864240
      63A      0.880781    64A      0.883924    65A      0.889078
      66A      0.892286    67A      0.893872    68A      0.895046
      69A      0.901155    70A      0.909977    71A      0.911717
      72A      0.916555    73A      0.922186    74A      0.938934
      75A      0.953771    76A      0.956809    77A      0.971182
      78A      0.989172    79A      0.998854    80A      1.019630
      81A      1.116005    82A      1.120399    83A      1.123822
      84A      1.148377    85A      1.232973    86A      1.278123
      87A      1.380739    88A      1.391257    89A      1.409243
      90A      1.467807    91A      1.481927    92A      1.519957
      93A      1.566191    94A      1.585041    95A      1.648281
      96A      1.666149    97A      1.671200    98A      1.680654
      99A      1.687924   100A      1.696217   101A      1.707577
     102A      1.720564   103A      1.752603   104A      1.838272
     105A      1.846181   106A      1.857430   107A      1.871046
     108A      1.882366   109A      1.905788   110A      1.926924
     111A      1.931876   112A      1.941556   113A      1.947274
     114A      1.949315   115A      1.959461   116A      1.961492
     117A      1.966669   118A      1.980364   119A      1.991917
     120A      2.002643   121A      2.008920   122A      2.030171
     123A      2.050742   124A      2.086533   125A      2.095921
     126A      2.109271   127A      2.119240   128A      2.135505
     129A      2.157969   130A      2.207010   131A      2.270678
     132A      2.287405   133A      2.305094   134A      2.318936
     135A      2.332189   136A      2.337162   137A      2.366743
     138A      2.378018   139A      2.454003   140A      2.458700
     141A      2.484732   142A      2.547399   143A      2.561079
     144A      2.575484   145A      2.604764   146A      2.651376
     147A      2.690162   148A      2.718095   149A      2.756993
     150A      2.761036   151A      2.788756   152A      2.792307
     153A      2.795175   154A      2.799330   155A      2.834430
     156A      2.841270   157A      2.854496   158A      2.864035
     159A      2.874442   160A      2.961860   161A      2.966398
     162A      3.000298   163A      3.004596   164A      3.139471

    Final Occupation by Irrep:
              A
    DOCC [    26 ]

  @RHF Final Energy:  -236.53827230899284

   => Energetics <=

    Nuclear Repulsion Energy =            243.7246553106450335
    One-Electron Energy =                -799.9872260246177120
    Two-Electron Energy =                 319.7242984049798338
    Total Energy =                       -236.5382723089928163

Computation Completed

Properties will be evaluated at   0.000000,   0.000000,   0.000000 [a0]

Properties computed using the SCF density matrix

  Nuclear Dipole Moment: [e a0]
     X:     0.8005      Y:     1.5319      Z:     0.9540

  Electronic Dipole Moment: [e a0]
     X:    -0.7717      Y:    -1.4657      Z:    -0.9135

  Dipole Moment: [e a0]
     X:     0.0288      Y:     0.0662      Z:     0.0405     Total:     0.0828

  Dipole Moment: [D]
     X:     0.0732      Y:     0.1682      Z:     0.1030     Total:     0.2104

*** tstop() called on ds3 at Sun Apr 26 23:08:54 2020
Module time:
	user time   =      27.43 seconds =       0.46 minutes
	system time =      11.36 seconds =       0.19 minutes
	total time  =         37 seconds =       0.62 minutes
Total time:
	user time   =      27.43 seconds =       0.46 minutes
	system time =      11.36 seconds =       0.19 minutes
	total time  =         37 seconds =       0.62 minutes
                                     G D M A

                                 by Anthony Stone

                           version 2.2.06, 22 June 2011

               Distributed Multipoles from Gaussian wavefunctions

Starting at 23:8:54 on 26 Apr 2020

Using SCF density matrix from file ./SSI/SSI-027ILE-039THR-1-dimer.test.24637.fchk

                         Distributed Multipole Analysis

Standard DMA

Positions and radii in angstrom
Multipole moments in atomic units, ea_0^k for rank k

C          x = -0.564786  y = -0.941540  z = -0.610744 angstrom
           Maximum rank =  0   Radius =  0.650 angstrom
                   Q00  =   0.013015

C          x =  0.284214  y = -2.194540  z = -0.856744 angstrom
           Maximum rank =  0   Radius =  0.650 angstrom
                   Q00  =  -0.241866

C          x = -0.832786  y = -0.174540  z = -1.902744 angstrom
           Maximum rank =  0   Radius =  0.650 angstrom
                   Q00  =  -0.243198

C          x = -1.905786  y = -1.283540  z =  0.061256 angstrom
           Maximum rank =  0   Radius =  0.650 angstrom
                   Q00  =  -0.258657

H          x = -0.002786  y = -0.296540  z =  0.062256 angstrom
           Maximum rank =  0   Radius =  0.325 angstrom
                   Q00  =   0.022860

H          x = -0.281786  y = -2.872540  z = -1.491744 angstrom
           Maximum rank =  0   Radius =  0.325 angstrom
                   Q00  =   0.075247

H          x = -1.308786  y = -0.826540  z = -2.637744 angstrom
           Maximum rank =  0   Radius =  0.325 angstrom
                   Q00  =   0.077199

H          x = -1.493786  y =  0.670460  z = -1.702744 angstrom
           Maximum rank =  0   Radius =  0.325 angstrom
                   Q00  =   0.079704

H          x =  0.093214  y =  0.224460  z = -2.317744 angstrom
           Maximum rank =  0   Radius =  0.325 angstrom
                   Q00  =   0.078529

H          x = -2.648786  y = -1.495540  z = -0.706744 angstrom
           Maximum rank =  0   Radius =  0.325 angstrom
                   Q00  =   0.074206

H          x = -1.819786  y = -2.172540  z =  0.683256 angstrom
           Maximum rank =  0   Radius =  0.325 angstrom
                   Q00  =   0.076723

H          x =  0.527064  y = -2.679470  z =  0.100266 angstrom
           Maximum rank =  0   Radius =  0.325 angstrom
                   Q00  =   0.082682

H          x =  1.222094  y = -1.915710  z = -1.359364 angstrom
           Maximum rank =  0   Radius =  0.325 angstrom
                   Q00  =   0.078941

H          x = -2.290456  y = -0.481970  z =  0.708956 angstrom
           Maximum rank =  0   Radius =  0.325 angstrom
                   Q00  =   0.083950

C          x =  0.848214  y =  2.107460  z =  1.192256 angstrom
           Maximum rank =  0   Radius =  0.650 angstrom
                   Q00  =  -0.230842

C          x =  2.099214  y =  2.349460  z =  2.031256 angstrom
           Maximum rank =  0   Radius =  0.650 angstrom
                   Q00  =  -0.240337

H          x =  0.157214  y =  1.447460  z =  1.713256 angstrom
           Maximum rank =  0   Radius =  0.325 angstrom
                   Q00  =   0.079280

H          x =  0.350214  y =  3.057460  z =  1.007256 angstrom
           Maximum rank =  0   Radius =  0.325 angstrom
                   Q00  =   0.080476

H          x =  1.133214  y =  1.675460  z =  0.234256 angstrom
           Maximum rank =  0   Radius =  0.325 angstrom
                   Q00  =   0.077717

H          x =  2.767214  y =  3.014460  z =  1.483256 angstrom
           Maximum rank =  0   Radius =  0.325 angstrom
                   Q00  =   0.078105

H          x =  2.645284  y =  1.427470  z =  2.279726 angstrom
           Maximum rank =  0   Radius =  0.325 angstrom
                   Q00  =   0.080717

H          x =  1.804554  y =  2.857710  z =  2.961236 angstrom
           Maximum rank =  0   Radius =  0.325 angstrom
                   Q00  =   0.075549

Total multipoles referred to origin at
           x =   0.000000,  y =    0.000000,  z =    0.000000 angstrom
                   Q00  =  -0.000000

Finished at 23:8:54 on 26 Apr 2020

  DMA results are available in the Python driver through the
	  variable('DMA DISTRIBUTED MULTIPOLES')
  and
	  variable('DMA TOTAL MULTIPOLES')
  commands.

    Psi4 stopped on: Sunday, 26 April 2020 11:08PM
    Psi4 wall time for execution: 0:00:37.80

*** Psi4 exiting successfully. Buy a developer a beer!
