                               Psi4 1.3.2 release

  ==> Input File <==

--------------------------------------------------------------------------
import numpy as np
set {scf_type pk
basis cc-pvdz
d_convergence 10
gdma_switch   0
gdma_limit    0
gdma_origin   [ 0.0,  0.0,  0.0 ]
}
molecule test {
    units Angstrom
    0 1
    --
    0 1
    C                3.068449692116554     0.874018267705933     1.033188561730091
    C                4.070449692116554     0.407018267705933    -0.029811438269909
    C                2.594449692116555    -0.187981732294067     2.035188561730090
    H                3.526449692116554     1.690018267705933     1.595188561730090
    H                2.194449692116554     1.284018267705933     0.525188561730091
    H                4.957449692116555     0.018018267705933     0.472188561730091
    H                2.114449692116555    -1.005981732294068     1.507188561730091
    H                4.387499692116555     1.256488267705932    -0.652611438269909
    H                3.647649692116554    -0.411981732294067    -0.630221438269910
    H                3.443519692116554    -0.612881732294067     2.590658561730091
    H                1.854079692116554     0.248888267705933     2.721488561730091
    C               -3.852550307883445    -0.821981732294067    -0.403811438269909
    C               -0.261550307883446    -0.380981732294068    -0.229811438269909
    C               -2.438550307883446    -0.346981732294067    -0.510811438269909
    C               -1.916550307883446     0.718018267705933    -1.169811438269909
    N               -1.383550307883446    -1.031981732294068     0.057188561730091
    N               -0.556550307883446     0.683018267705933    -0.967811438269909
    H                0.731449692116555    -0.711981732294067     0.023188561730091
    H                0.124449692116554     1.322018267705932    -1.371811438269909
    H               -2.469550307883446     1.465018267705932    -1.706811438269910
    H               -4.529550307883446     0.026018267705933    -0.497811438269909
    H               -3.980550307883446    -1.232981732294067     0.599188561730091
    H               -4.097350307883445    -1.595261732294068    -1.146851438269910

}
e, wfn = energy('scf', return_wfn=True)
gdma(wfn)
dmavals = variable('DMA DISTRIBUTED MULTIPOLES')
charges = np.array(dmavals)
print(charges)
np.save('SSI-011LEU-062HIE-2-dimer.npy', np.array(charges))--------------------------------------------------------------------------

*** tstart() called on ds3
*** at Mon Apr 27 16:48:12 2020

   => Loading Basis Set <=

    Name: CC-PVDZ
    Role: ORBITAL
    Keyword: BASIS
    atoms 1-3, 12-15  entry C          line   138 file /theoryfs2/ds/metcalf/miniconda2/envs/tf2gpu/share/psi4/basis/cc-pvdz.gbs
    atoms 4-11, 18-23 entry H          line    22 file /theoryfs2/ds/metcalf/miniconda2/envs/tf2gpu/share/psi4/basis/cc-pvdz.gbs
    atoms 16-17       entry N          line   168 file /theoryfs2/ds/metcalf/miniconda2/envs/tf2gpu/share/psi4/basis/cc-pvdz.gbs

         ---------------------------------------------------------
                                   SCF
               by Justin Turney, Rob Parrish, Andy Simmonett
                          and Daniel G. A. Smith
                              RHF Reference
                        1 Threads,    500 MiB Core
         ---------------------------------------------------------

  ==> Geometry <==

    Molecular point group: c1
    Full point group: C1

    Geometry (in Angstrom), charge = 0, multiplicity = 1:

       Center              X                  Y                   Z               Mass
    ------------   -----------------  -----------------  -----------------  -----------------
         C            3.068449692117     0.874018267706     1.033188561730    12.000000000000
         C            4.070449692117     0.407018267706    -0.029811438270    12.000000000000
         C            2.594449692117    -0.187981732294     2.035188561730    12.000000000000
         H            3.526449692117     1.690018267706     1.595188561730     1.007825032230
         H            2.194449692117     1.284018267706     0.525188561730     1.007825032230
         H            4.957449692117     0.018018267706     0.472188561730     1.007825032230
         H            2.114449692117    -1.005981732294     1.507188561730     1.007825032230
         H            4.387499692117     1.256488267706    -0.652611438270     1.007825032230
         H            3.647649692117    -0.411981732294    -0.630221438270     1.007825032230
         H            3.443519692117    -0.612881732294     2.590658561730     1.007825032230
         H            1.854079692117     0.248888267706     2.721488561730     1.007825032230
         C           -3.852550307883    -0.821981732294    -0.403811438270    12.000000000000
         C           -0.261550307883    -0.380981732294    -0.229811438270    12.000000000000
         C           -2.438550307883    -0.346981732294    -0.510811438270    12.000000000000
         C           -1.916550307883     0.718018267706    -1.169811438270    12.000000000000
         N           -1.383550307883    -1.031981732294     0.057188561730    14.003074004430
         N           -0.556550307883     0.683018267706    -0.967811438270    14.003074004430
         H            0.731449692117    -0.711981732294     0.023188561730     1.007825032230
         H            0.124449692117     1.322018267706    -1.371811438270     1.007825032230
         H           -2.469550307883     1.465018267706    -1.706811438270     1.007825032230
         H           -4.529550307883     0.026018267706    -0.497811438270     1.007825032230
         H           -3.980550307883    -1.232981732294     0.599188561730     1.007825032230
         H           -4.097350307883    -1.595261732294    -1.146851438270     1.007825032230

  Running in c1 symmetry.

  Rotational constants: A =      0.12949  B =      0.01751  C =      0.01625 [cm^-1]
  Rotational constants: A =   3881.94870  B =    525.03727  C =    487.17462 [MHz]
  Nuclear repulsion =  423.398697111074000

  Charge       = 0
  Multiplicity = 1
  Electrons    = 70
  Nalpha       = 35
  Nbeta        = 35

  ==> Algorithm <==

  SCF Algorithm Type is PK.
  DIIS enabled.
  MOM disabled.
  Fractional occupation disabled.
  Guess Type is SAD.
  Energy threshold   = 1.00e-06
  Density threshold  = 1.00e-10
  Integral threshold = 0.00e+00

  ==> Primary Basis <==

  Basis Set: CC-PVDZ
    Blend: CC-PVDZ
    Number of shells: 96
    Number of basis function: 196
    Number of Cartesian functions: 205
    Spherical Harmonics?: true
    Max angular momentum: 2

  ==> Pre-Iterations <==

   -------------------------------------------------------
    Irrep   Nso     Nmo     Nalpha   Nbeta   Ndocc  Nsocc
   -------------------------------------------------------
     A        196     196       0       0       0       0
   -------------------------------------------------------
    Total     196     196      35      35      35       0
   -------------------------------------------------------

  ==> Integral Setup <==

  Using integral reordering PK algorithm.
  Sizing the integral batches needed.
  Building batch lookup table.
   Calculation information:
      Number of atoms:                  23
      Number of AO shells:              96
      Number of primitives:            268
      Number of atomic orbitals:       205
      Number of basis functions:       196

      Integral cutoff                 1.00e-12
      Number of threads:                 1

	Batch   1 pq = [       0,    9405] index = [             0,44231715] size =     44231715
	Batch   2 pq = [    9405,   13301] index = [      44231715,88464951] size =     44233236
	Batch   3 pq = [   13301,   16290] index = [      88464951,132690195] size =     44225244
	Batch   4 pq = [   16290,   18810] index = [     132690195,176917455] size =     44227260
	Batch   5 pq = [   18810,   19306] index = [     176917455,186370471] size =      9453016
  Task number: 17
  Buffer size: 11059200
  Buffer per thread: 2
  We computed 8346620 shell quartets total.
  Whereas there are 10841496 unique shell quartets.

  ==> DiskJK: Disk-Based J/K Matrices <==

    J tasked:                  Yes
    K tasked:                  Yes
    wK tasked:                  No
    Memory [MiB]:              375
    Schwarz Cutoff:          1E-12

    OpenMP threads:              1

  Minimum eigenvalue in the overlap matrix is 1.2077422828E-03.
  Using Symmetric Orthogonalization.

  SCF Guess: Superposition of Atomic Densities via on-the-fly atomic UHF.

  ==> Iterations <==

                        Total Energy        Delta E     RMS |[F,P]|

   @RHF iter SAD:  -381.22736806491520   -3.81227e+02   0.00000e+00
   @RHF iter   1:  -381.89359683248961   -6.66229e-01   3.12215e-03 DIIS
   @RHF iter   2:  -382.09183918376868   -1.98242e-01   1.55540e-03 DIIS
   @RHF iter   3:  -382.13630898280269   -4.44698e-02   4.00951e-04 DIIS
   @RHF iter   4:  -382.14020236568530   -3.89338e-03   1.70226e-04 DIIS
   @RHF iter   5:  -382.14082845565969   -6.26090e-04   2.48381e-05 DIIS
   @RHF iter   6:  -382.14085109915601   -2.26435e-05   1.03158e-05 DIIS
   @RHF iter   7:  -382.14085472692909   -3.62777e-06   3.56249e-06 DIIS
   @RHF iter   8:  -382.14085546833036   -7.41401e-07   1.49652e-06 DIIS
   @RHF iter   9:  -382.14085563646915   -1.68139e-07   5.47623e-07 DIIS
   @RHF iter  10:  -382.14085565521401   -1.87449e-08   1.61326e-07 DIIS
   @RHF iter  11:  -382.14085565720330   -1.98929e-09   6.85832e-08 DIIS
   @RHF iter  12:  -382.14085565744841   -2.45109e-10   2.91843e-08 DIIS
   @RHF iter  13:  -382.14085565749320   -4.47926e-11   8.69859e-09 DIIS
   @RHF iter  14:  -382.14085565749900   -5.79803e-12   2.90126e-09 DIIS
   @RHF iter  15:  -382.14085565749969   -6.82121e-13   1.12938e-09 DIIS
   @RHF iter  16:  -382.14085565749929    3.97904e-13   4.05430e-10 DIIS
   @RHF iter  17:  -382.14085565750025   -9.66338e-13   1.40076e-10 DIIS
   @RHF iter  18:  -382.14085565749980    4.54747e-13   4.14574e-11 DIIS
  Energy and wave function converged.

  ==> Post-Iterations <==

    Orbital Energies [Eh]
    ---------------------

    Doubly Occupied:

       1A    -15.619910     2A    -15.526411     3A    -11.289171
       4A    -11.247433     5A    -11.239169     6A    -11.230767
       7A    -11.228127     8A    -11.224203     9A    -11.221799
      10A     -1.340255    11A     -1.151935    12A     -1.059441
      13A     -1.030137    14A     -0.940249    15A     -0.933884
      16A     -0.816750    17A     -0.804974    18A     -0.761384
      19A     -0.740523    20A     -0.635235    21A     -0.607527
      22A     -0.604059    23A     -0.600878    24A     -0.595066
      25A     -0.560280    26A     -0.552418    27A     -0.539354
      28A     -0.535923    29A     -0.518781    30A     -0.482917
      31A     -0.475991    32A     -0.475294    33A     -0.409864
      34A     -0.376579    35A     -0.308110

    Virtual:

      36A      0.154506    37A      0.183511    38A      0.189943
      39A      0.200983    40A      0.215004    41A      0.224528
      42A      0.232917    43A      0.239752    44A      0.246298
      45A      0.258675    46A      0.277955    47A      0.281384
      48A      0.291398    49A      0.293695    50A      0.308828
      51A      0.353636    52A      0.364538    53A      0.382111
      54A      0.403203    55A      0.414844    56A      0.432859
      57A      0.475276    58A      0.503084    59A      0.563625
      60A      0.592878    61A      0.603622    62A      0.611142
      63A      0.616238    64A      0.628841    65A      0.646373
      66A      0.649657    67A      0.676678    68A      0.714709
      69A      0.737030    70A      0.745320    71A      0.769365
      72A      0.772484    73A      0.791368    74A      0.818728
      75A      0.826036    76A      0.838565    77A      0.840747
      78A      0.851645    79A      0.870407    80A      0.881797
      81A      0.885783    82A      0.891945    83A      0.895992
      84A      0.898381    85A      0.911407    86A      0.920816
      87A      0.925888    88A      0.944084    89A      0.956799
      90A      0.964149    91A      0.968290    92A      0.977694
      93A      1.020118    94A      1.042976    95A      1.083713
      96A      1.092151    97A      1.110472    98A      1.113866
      99A      1.133218   100A      1.162076   101A      1.175073
     102A      1.205598   103A      1.207911   104A      1.252170
     105A      1.272472   106A      1.313218   107A      1.329461
     108A      1.347190   109A      1.359426   110A      1.431317
     111A      1.447611   112A      1.472335   113A      1.478676
     114A      1.500784   115A      1.504000   116A      1.536011
     117A      1.572322   118A      1.610987   119A      1.630267
     120A      1.632683   121A      1.665113   122A      1.678679
     123A      1.687305   124A      1.695718   125A      1.713896
     126A      1.785859   127A      1.805620   128A      1.832290
     129A      1.849125   130A      1.853376   131A      1.870211
     132A      1.882882   133A      1.897029   134A      1.912890
     135A      1.918775   136A      1.929410   137A      1.939234
     138A      1.946957   139A      1.952589   140A      1.954476
     141A      1.968310   142A      1.973355   143A      1.977870
     144A      1.979172   145A      1.988807   146A      2.017864
     147A      2.037859   148A      2.055308   149A      2.069319
     150A      2.117690   151A      2.119616   152A      2.145347
     153A      2.150993   154A      2.198145   155A      2.230738
     156A      2.232866   157A      2.277505   158A      2.288009
     159A      2.293087   160A      2.325966   161A      2.330709
     162A      2.344235   163A      2.378075   164A      2.443445
     165A      2.450561   166A      2.488573   167A      2.506134
     168A      2.515032   169A      2.563221   170A      2.589915
     171A      2.601503   172A      2.612760   173A      2.617488
     174A      2.697242   175A      2.726252   176A      2.741104
     177A      2.747184   178A      2.757620   179A      2.782391
     180A      2.786376   181A      2.791664   182A      2.799904
     183A      2.845235   184A      2.866963   185A      2.892174
     186A      2.921882   187A      2.939802   188A      2.961964
     189A      2.968382   190A      2.985594   191A      3.051865
     192A      3.079981   193A      3.169821   194A      3.251027
     195A      3.479468   196A      3.805835

    Final Occupation by Irrep:
              A
    DOCC [    35 ]

  @RHF Final Energy:  -382.14085565749980

   => Energetics <=

    Nuclear Repulsion Energy =            423.3986971110740001
    One-Electron Energy =               -1355.7095089984190963
    Two-Electron Energy =                 550.1699562298454111
    Total Energy =                       -382.1408556574997419

Computation Completed

Properties will be evaluated at   0.000000,   0.000000,   0.000000 [a0]

Properties computed using the SCF density matrix

  Nuclear Dipole Moment: [e a0]
     X:    11.1657      Y:     1.6317      Z:     3.7789

  Electronic Dipole Moment: [e a0]
     X:   -10.5603      Y:    -0.5830      Z:    -4.3740

  Dipole Moment: [e a0]
     X:     0.6054      Y:     1.0487      Z:    -0.5951     Total:     1.3492

  Dipole Moment: [D]
     X:     1.5388      Y:     2.6655      Z:    -1.5126     Total:     3.4294

*** tstop() called on ds3 at Mon Apr 27 16:49:47 2020
Module time:
	user time   =      63.35 seconds =       1.06 minutes
	system time =      36.65 seconds =       0.61 minutes
	total time  =         95 seconds =       1.58 minutes
Total time:
	user time   =      63.35 seconds =       1.06 minutes
	system time =      36.65 seconds =       0.61 minutes
	total time  =         95 seconds =       1.58 minutes
                                     G D M A

                                 by Anthony Stone

                           version 2.2.06, 22 June 2011

               Distributed Multipoles from Gaussian wavefunctions

Starting at 16:49:47 on 27 Apr 2020

Using SCF density matrix from file ./SSI/SSI-011LEU-062HIE-2-dimer.test.28119.fchk

                         Distributed Multipole Analysis

Standard DMA

Positions and radii in angstrom
Multipole moments in atomic units, ea_0^k for rank k

C          x =  3.068450  y =  0.874018  z =  1.033189 angstrom
           Maximum rank =  0   Radius =  0.650 angstrom
                   Q00  =  -0.071589

C          x =  4.070450  y =  0.407018  z = -0.029811 angstrom
           Maximum rank =  0   Radius =  0.650 angstrom
                   Q00  =  -0.250861

C          x =  2.594450  y = -0.187982  z =  2.035189 angstrom
           Maximum rank =  0   Radius =  0.650 angstrom
                   Q00  =  -0.248346

H          x =  3.526450  y =  1.690018  z =  1.595189 angstrom
           Maximum rank =  0   Radius =  0.325 angstrom
                   Q00  =   0.053509

H          x =  2.194450  y =  1.284018  z =  0.525189 angstrom
           Maximum rank =  0   Radius =  0.325 angstrom
                   Q00  =   0.022104

H          x =  4.957450  y =  0.018018  z =  0.472189 angstrom
           Maximum rank =  0   Radius =  0.325 angstrom
                   Q00  =   0.082731

H          x =  2.114450  y = -1.005982  z =  1.507189 angstrom
           Maximum rank =  0   Radius =  0.325 angstrom
                   Q00  =   0.073866

H          x =  4.387500  y =  1.256488  z = -0.652611 angstrom
           Maximum rank =  0   Radius =  0.325 angstrom
                   Q00  =   0.086884

H          x =  3.647650  y = -0.411982  z = -0.630221 angstrom
           Maximum rank =  0   Radius =  0.325 angstrom
                   Q00  =   0.073905

H          x =  3.443520  y = -0.612882  z =  2.590659 angstrom
           Maximum rank =  0   Radius =  0.325 angstrom
                   Q00  =   0.082923

H          x =  1.854080  y =  0.248888  z =  2.721489 angstrom
           Maximum rank =  0   Radius =  0.325 angstrom
                   Q00  =   0.095146

C          x = -3.852550  y = -0.821982  z = -0.403811 angstrom
           Maximum rank =  0   Radius =  0.650 angstrom
                   Q00  =  -0.195211

C          x = -0.261550  y = -0.380982  z = -0.229811 angstrom
           Maximum rank =  0   Radius =  0.650 angstrom
                   Q00  =   0.459039

C          x = -2.438550  y = -0.346982  z = -0.510811 angstrom
           Maximum rank =  0   Radius =  0.650 angstrom
                   Q00  =   0.227541

C          x = -1.916550  y =  0.718018  z = -1.169811 angstrom
           Maximum rank =  0   Radius =  0.650 angstrom
                   Q00  =   0.001240

N          x = -1.383550  y = -1.031982  z =  0.057189 angstrom
           Maximum rank =  0   Radius =  0.650 angstrom
                   Q00  =  -0.770047

N          x = -0.556550  y =  0.683018  z = -0.967811 angstrom
           Maximum rank =  0   Radius =  0.650 angstrom
                   Q00  =  -0.483105

H          x =  0.731450  y = -0.711982  z =  0.023189 angstrom
           Maximum rank =  0   Radius =  0.325 angstrom
                   Q00  =   0.124947

H          x =  0.124450  y =  1.322018  z = -1.371811 angstrom
           Maximum rank =  0   Radius =  0.325 angstrom
                   Q00  =   0.220945

H          x = -2.469550  y =  1.465018  z = -1.706811 angstrom
           Maximum rank =  0   Radius =  0.325 angstrom
                   Q00  =   0.099862

H          x = -4.529550  y =  0.026018  z = -0.497811 angstrom
           Maximum rank =  0   Radius =  0.325 angstrom
                   Q00  =   0.092404

H          x = -3.980550  y = -1.232982  z =  0.599189 angstrom
           Maximum rank =  0   Radius =  0.325 angstrom
                   Q00  =   0.115880

H          x = -4.097350  y = -1.595262  z = -1.146851 angstrom
           Maximum rank =  0   Radius =  0.325 angstrom
                   Q00  =   0.106234

Total multipoles referred to origin at
           x =   0.000000,  y =    0.000000,  z =    0.000000 angstrom
                   Q00  =  -0.000000

Finished at 16:49:47 on 27 Apr 2020

  DMA results are available in the Python driver through the
	  variable('DMA DISTRIBUTED MULTIPOLES')
  and
	  variable('DMA TOTAL MULTIPOLES')
  commands.

    Psi4 stopped on: Monday, 27 April 2020 04:49PM
    Psi4 wall time for execution: 0:01:35.40

*** Psi4 exiting successfully. Buy a developer a beer!
