                               Psi4 1.3.2 release

  ==> Input File <==

--------------------------------------------------------------------------
import numpy as np
set {scf_type pk
basis cc-pvdz
d_convergence 10
gdma_switch   0
gdma_limit    0
gdma_origin   [ 0.0,  0.0,  0.0 ]
}
molecule test {
    units Angstrom
    0 1
    --
    0 1
    C                1.046957600035509     0.427872466613126    -1.420213871275184
    C                1.386957600035509     1.507872466613126    -0.355213871275184
    C                3.011957600035509    -0.261127533386874    -0.173213871275184
    C                1.466957600035509    -1.654127533386873    -3.390213871275184
    C                2.479957600035509    -1.442127533386873    -2.269213871275184
    O                3.545957600035509    -2.048127533386873    -2.253213871275184
    N                2.164957600035509    -0.530127533386874    -1.339213871275184
    H                0.120957600035509    -0.072127533386874    -1.166213871275184
    H                0.975957600035509     0.887872466613126    -2.406213871275184
    H                0.487957600035509     1.940872466613127     0.083786128724816
    H                1.996957600035509     2.284872466613126    -0.799213871275184
    H                3.913957600035509     0.243872466613126    -0.522213871275184
    H                0.465957600035509    -1.417127533386874    -3.033213871275184
    H                1.965737600035509     0.936344466613126     0.385306128724816
    H                2.418561600035509     0.442768466613126     0.428796128724816
    H                3.299649600035508    -1.111190533386873     0.462886128724816
    H                1.722284600035509    -0.982937533386874    -4.223463871275184
    H                1.465522600035509    -2.686807533386874    -3.769123871275184
    C               -2.248042399964491     2.494872466613127     3.613786128724816
    C               -2.237042399964491     0.919872466613126     0.165786128724816
    C               -2.317042399964491     1.857872466613127     1.192786128724816
    C               -1.923042399964491    -0.398127533386874     0.493786128724816
    C               -2.095042399964491     1.488872466613127     2.525786128724816
    C               -1.691042399964491    -0.780127533386874     1.817786128724816
    C               -1.814042399964491     0.167872466613126     2.837786128724817
    O               -1.849042399964491    -1.357127533386874    -0.466213871275184
    H               -2.419042399964491     1.210872466613127    -0.859213871275184
    H               -2.569042399964491     2.879872466613126     0.961786128724816
    H               -2.027042399964492    -1.011127533386874    -1.346213871275184
    H               -1.482042399964491    -1.815127533386873     2.047786128724816
    H               -1.843042399964491     3.448872466613127     3.273786128724816
    H               -1.673042399964491     2.179872466613127     4.482786128724817
    H               -1.796042399964491    -0.128127533386874     3.875786128724816
    H               -3.305622399964491     2.627874466613126     3.885506128724816

}
e, wfn = energy('scf', return_wfn=True)
gdma(wfn)
dmavals = variable('DMA DISTRIBUTED MULTIPOLES')
charges = np.array(dmavals)
print(charges)
np.save('SSI-115PRO-129TYR-1-dimer.npy', np.array(charges))--------------------------------------------------------------------------

*** tstart() called on ds3
*** at Mon Apr 27 21:49:30 2020

   => Loading Basis Set <=

    Name: CC-PVDZ
    Role: ORBITAL
    Keyword: BASIS
    atoms 1-5, 19-25  entry C          line   138 file /theoryfs2/ds/metcalf/miniconda2/envs/tf2gpu/share/psi4/basis/cc-pvdz.gbs
    atoms 6, 26       entry O          line   198 file /theoryfs2/ds/metcalf/miniconda2/envs/tf2gpu/share/psi4/basis/cc-pvdz.gbs
    atoms 7           entry N          line   168 file /theoryfs2/ds/metcalf/miniconda2/envs/tf2gpu/share/psi4/basis/cc-pvdz.gbs
    atoms 8-18, 27-34 entry H          line    22 file /theoryfs2/ds/metcalf/miniconda2/envs/tf2gpu/share/psi4/basis/cc-pvdz.gbs

         ---------------------------------------------------------
                                   SCF
               by Justin Turney, Rob Parrish, Andy Simmonett
                          and Daniel G. A. Smith
                              RHF Reference
                        1 Threads,    500 MiB Core
         ---------------------------------------------------------

  ==> Geometry <==

    Molecular point group: c1
    Full point group: C1

    Geometry (in Angstrom), charge = 0, multiplicity = 1:

       Center              X                  Y                   Z               Mass
    ------------   -----------------  -----------------  -----------------  -----------------
         C            1.046957600036     0.427872466613    -1.420213871275    12.000000000000
         C            1.386957600036     1.507872466613    -0.355213871275    12.000000000000
         C            3.011957600036    -0.261127533387    -0.173213871275    12.000000000000
         C            1.466957600036    -1.654127533387    -3.390213871275    12.000000000000
         C            2.479957600036    -1.442127533387    -2.269213871275    12.000000000000
         O            3.545957600036    -2.048127533387    -2.253213871275    15.994914619570
         N            2.164957600036    -0.530127533387    -1.339213871275    14.003074004430
         H            0.120957600036    -0.072127533387    -1.166213871275     1.007825032230
         H            0.975957600036     0.887872466613    -2.406213871275     1.007825032230
         H            0.487957600036     1.940872466613     0.083786128725     1.007825032230
         H            1.996957600036     2.284872466613    -0.799213871275     1.007825032230
         H            3.913957600036     0.243872466613    -0.522213871275     1.007825032230
         H            0.465957600036    -1.417127533387    -3.033213871275     1.007825032230
         H            1.965737600036     0.936344466613     0.385306128725     1.007825032230
         H            2.418561600036     0.442768466613     0.428796128725     1.007825032230
         H            3.299649600036    -1.111190533387     0.462886128725     1.007825032230
         H            1.722284600036    -0.982937533387    -4.223463871275     1.007825032230
         H            1.465522600036    -2.686807533387    -3.769123871275     1.007825032230
         C           -2.248042399964     2.494872466613     3.613786128725    12.000000000000
         C           -2.237042399964     0.919872466613     0.165786128725    12.000000000000
         C           -2.317042399964     1.857872466613     1.192786128725    12.000000000000
         C           -1.923042399964    -0.398127533387     0.493786128725    12.000000000000
         C           -2.095042399964     1.488872466613     2.525786128725    12.000000000000
         C           -1.691042399964    -0.780127533387     1.817786128725    12.000000000000
         C           -1.814042399964     0.167872466613     2.837786128725    12.000000000000
         O           -1.849042399964    -1.357127533387    -0.466213871275    15.994914619570
         H           -2.419042399964     1.210872466613    -0.859213871275     1.007825032230
         H           -2.569042399964     2.879872466613     0.961786128725     1.007825032230
         H           -2.027042399964    -1.011127533387    -1.346213871275     1.007825032230
         H           -1.482042399964    -1.815127533387     2.047786128725     1.007825032230
         H           -1.843042399964     3.448872466613     3.273786128725     1.007825032230
         H           -1.673042399964     2.179872466613     4.482786128725     1.007825032230
         H           -1.796042399964    -0.128127533387     3.875786128725     1.007825032230
         H           -3.305622399964     2.627874466613     3.885506128725     1.007825032230

  Running in c1 symmetry.

  Rotational constants: A =      0.03571  B =      0.00865  C =      0.00800 [cm^-1]
  Rotational constants: A =   1070.54258  B =    259.23970  C =    239.76764 [MHz]
  Nuclear repulsion =  986.622716907046993

  Charge       = 0
  Multiplicity = 1
  Electrons    = 114
  Nalpha       = 57
  Nbeta        = 57

  ==> Algorithm <==

  SCF Algorithm Type is PK.
  DIIS enabled.
  MOM disabled.
  Fractional occupation disabled.
  Guess Type is SAD.
  Energy threshold   = 1.00e-06
  Density threshold  = 1.00e-10
  Integral threshold = 0.00e+00

  ==> Primary Basis <==

  Basis Set: CC-PVDZ
    Blend: CC-PVDZ
    Number of shells: 147
    Number of basis function: 305
    Number of Cartesian functions: 320
    Spherical Harmonics?: true
    Max angular momentum: 2

  ==> Pre-Iterations <==

   -------------------------------------------------------
    Irrep   Nso     Nmo     Nalpha   Nbeta   Ndocc  Nsocc
   -------------------------------------------------------
     A        305     305       0       0       0       0
   -------------------------------------------------------
    Total     305     305      57      57      57       0
   -------------------------------------------------------

  ==> Integral Setup <==

  Using integral reordering PK algorithm.
  Sizing the integral batches needed.
  Building batch lookup table.
   Calculation information:
      Number of atoms:                  34
      Number of AO shells:             147
      Number of primitives:            425
      Number of atomic orbitals:       320
      Number of basis functions:       305

      Integral cutoff                 1.00e-12
      Number of threads:                 1

	Batch   1 pq = [       0,    9405] index = [             0,44231715] size =     44231715
	Batch   2 pq = [    9405,   13301] index = [      44231715,88464951] size =     44233236
	Batch   3 pq = [   13301,   16290] index = [      88464951,132690195] size =     44225244
	Batch   4 pq = [   16290,   18810] index = [     132690195,176917455] size =     44227260
	Batch   5 pq = [   18810,   21030] index = [     176917455,221140965] size =     44223510
	Batch   6 pq = [   21030,   23037] index = [     221140965,265363203] size =     44222238
	Batch   7 pq = [   23037,   24883] index = [     265363203,309594286] size =     44231083
	Batch   8 pq = [   24883,   26601] index = [     309594286,353819901] size =     44225615
	Batch   9 pq = [   26601,   28214] index = [     353819901,398029005] size =     44209104
	Batch  10 pq = [   28214,   29740] index = [     398029005,442248670] size =     44219665
	Batch  11 pq = [   29740,   31191] index = [     442248670,486454836] size =     44206166
	Batch  12 pq = [   31191,   32578] index = [     486454836,530679331] size =     44224495
	Batch  13 pq = [   32578,   33908] index = [     530679331,574893186] size =     44213855
	Batch  14 pq = [   33908,   35188] index = [     574893186,619115266] size =     44222080
	Batch  15 pq = [   35188,   36423] index = [     619115266,663335676] size =     44220410
	Batch  16 pq = [   36423,   37617] index = [     663335676,707538153] size =     44202477
	Batch  17 pq = [   37617,   38775] index = [     707538153,751769700] size =     44231547
	Batch  18 pq = [   38775,   39899] index = [     751769700,795985050] size =     44215350
	Batch  19 pq = [   39899,   40992] index = [     795985050,840192528] size =     44207478
	Batch  20 pq = [   40992,   42057] index = [     840192528,884416653] size =     44224125
	Batch  21 pq = [   42057,   43095] index = [     884416653,928611060] size =     44194407
	Batch  22 pq = [   43095,   44109] index = [     928611060,972823995] size =     44212935
	Batch  23 pq = [   44109,   45100] index = [     972823995,1017027550] size =     44203555
	Batch  24 pq = [   45100,   46070] index = [    1017027550,1061245485] size =     44217935
	Batch  25 pq = [   46070,   46665] index = [    1061245485,1088834445] size =     27588960
  Task number: 99
  Buffer size: 11059200
  Buffer per thread: 2
  We computed 61536898 shell quartets total.
  Whereas there are 59170881 unique shell quartets.
     4.00 percent of shell quartets recomputed by reordering.

  ==> DiskJK: Disk-Based J/K Matrices <==

    J tasked:                  Yes
    K tasked:                  Yes
    wK tasked:                  No
    Memory [MiB]:              375
    Schwarz Cutoff:          1E-12

    OpenMP threads:              1

  Minimum eigenvalue in the overlap matrix is 3.3050339980E-04.
  Using Symmetric Orthogonalization.

  SCF Guess: Superposition of Atomic Densities via on-the-fly atomic UHF.

  ==> Iterations <==

                        Total Energy        Delta E     RMS |[F,P]|

   @RHF iter SAD:  -668.70643002635234   -6.68706e+02   0.00000e+00
   @RHF iter   1:  -669.12132483882885   -4.14895e-01   2.63324e-03 DIIS
   @RHF iter   2:  -669.43031875944996   -3.08994e-01   1.39051e-03 DIIS
   @RHF iter   3:  -669.50242533775975   -7.21066e-02   3.53334e-04 DIIS
   @RHF iter   4:  -669.50919861961768   -6.77328e-03   1.37020e-04 DIIS
   @RHF iter   5:  -669.51024473453208   -1.04611e-03   2.33200e-05 DIIS
   @RHF iter   6:  -669.51030638829627   -6.16538e-05   1.21867e-05 DIIS
   @RHF iter   7:  -669.51031949770504   -1.31094e-05   4.20686e-06 DIIS
   @RHF iter   8:  -669.51032208681113   -2.58911e-06   1.71262e-06 DIIS
   @RHF iter   9:  -669.51032245222791   -3.65417e-07   5.91168e-07 DIIS
   @RHF iter  10:  -669.51032249185062   -3.96227e-08   2.10361e-07 DIIS
   @RHF iter  11:  -669.51032249645777   -4.60716e-09   6.68596e-08 DIIS
   @RHF iter  12:  -669.51032249701279   -5.55019e-10   2.76532e-08 DIIS
   @RHF iter  13:  -669.51032249709453   -8.17408e-11   9.76264e-09 DIIS
   @RHF iter  14:  -669.51032249711477   -2.02363e-11   4.68765e-09 DIIS
   @RHF iter  15:  -669.51032249711773   -2.95586e-12   2.47692e-09 DIIS
   @RHF iter  16:  -669.51032249712409   -6.36646e-12   9.87086e-10 DIIS
   @RHF iter  17:  -669.51032249712557   -1.47793e-12   3.32515e-10 DIIS
   @RHF iter  18:  -669.51032249712443    1.13687e-12   1.06418e-10 DIIS
   @RHF iter  19:  -669.51032249711693    7.50333e-12   4.24022e-11 DIIS
  Energy and wave function converged.

  ==> Post-Iterations <==

    Orbital Energies [Eh]
    ---------------------

    Doubly Occupied:

       1A    -20.596330     2A    -20.492357     3A    -15.575874
       4A    -11.335124     5A    -11.309989     6A    -11.273071
       7A    -11.249005     8A    -11.246403     9A    -11.245867
      10A    -11.240774    11A    -11.240661    12A    -11.240226
      13A    -11.235228    14A    -11.233286    15A    -11.215551
      16A     -1.414659    17A     -1.357934    18A     -1.244221
      19A     -1.160803    20A     -1.058802    21A     -1.049061
      22A     -1.028315    23A     -0.997457    24A     -0.963713
      25A     -0.934247    26A     -0.856547    27A     -0.851524
      28A     -0.811686    29A     -0.743796    30A     -0.742466
      31A     -0.725878    32A     -0.678343    33A     -0.666348
      34A     -0.651696    35A     -0.646770    36A     -0.616679
      37A     -0.613643    38A     -0.602018    39A     -0.598491
      40A     -0.587379    41A     -0.581662    42A     -0.578508
      43A     -0.567777    44A     -0.547321    45A     -0.534425
      46A     -0.532651    47A     -0.523720    48A     -0.516782
      49A     -0.507598    50A     -0.496343    51A     -0.481305
      52A     -0.473732    53A     -0.395449    54A     -0.389275
      55A     -0.355337    56A     -0.347210    57A     -0.310116

    Virtual:

      58A      0.116617    59A      0.143895    60A      0.151871
      61A      0.174873    62A      0.183533    63A      0.199508
      64A      0.201480    65A      0.209970    66A      0.211510
      67A      0.238343    68A      0.249174    69A      0.251315
      70A      0.258886    71A      0.263917    72A      0.268500
      73A      0.272484    74A      0.281474    75A      0.285588
      76A      0.304228    77A      0.304767    78A      0.324162
      79A      0.344421    80A      0.346660    81A      0.364160
      82A      0.366565    83A      0.382955    84A      0.420523
      85A      0.433009    86A      0.445641    87A      0.461191
      88A      0.473182    89A      0.485747    90A      0.496077
      91A      0.502101    92A      0.516543    93A      0.560163
      94A      0.583317    95A      0.602817    96A      0.626085
      97A      0.631719    98A      0.646289    99A      0.649233
     100A      0.653806   101A      0.663444   102A      0.667560
     103A      0.679754   104A      0.690295   105A      0.698364
     106A      0.716793   107A      0.719294   108A      0.724895
     109A      0.733364   110A      0.742530   111A      0.747215
     112A      0.767576   113A      0.771501   114A      0.774977
     115A      0.784438   116A      0.800635   117A      0.805798
     118A      0.826417   119A      0.837041   120A      0.850705
     121A      0.856721   122A      0.860124   123A      0.870276
     124A      0.872114   125A      0.875166   126A      0.881173
     127A      0.889358   128A      0.891115   129A      0.895567
     130A      0.901863   131A      0.907082   132A      0.919748
     133A      0.924786   134A      0.929721   135A      0.936024
     136A      0.943081   137A      0.945015   138A      0.958656
     139A      0.984387   140A      0.985152   141A      1.004891
     142A      1.015265   143A      1.025305   144A      1.035741
     145A      1.046471   146A      1.065714   147A      1.089922
     148A      1.111927   149A      1.128754   150A      1.135153
     151A      1.144094   152A      1.152507   153A      1.157035
     154A      1.175405   155A      1.203963   156A      1.213654
     157A      1.219382   158A      1.229477   159A      1.251201
     160A      1.263870   161A      1.268798   162A      1.279953
     163A      1.296781   164A      1.318812   165A      1.337196
     166A      1.351940   167A      1.359633   168A      1.374392
     169A      1.377900   170A      1.396259   171A      1.422090
     172A      1.428591   173A      1.443650   174A      1.461554
     175A      1.484107   176A      1.491898   177A      1.511397
     178A      1.532157   179A      1.548131   180A      1.562300
     181A      1.578919   182A      1.591185   183A      1.603691
     184A      1.611685   185A      1.619090   186A      1.643195
     187A      1.650127   188A      1.675238   189A      1.694837
     190A      1.701102   191A      1.716892   192A      1.730021
     193A      1.730246   194A      1.748039   195A      1.778339
     196A      1.780198   197A      1.799852   198A      1.809906
     199A      1.824200   200A      1.840872   201A      1.850952
     202A      1.862695   203A      1.865833   204A      1.882969
     205A      1.887290   206A      1.891572   207A      1.899197
     208A      1.901609   209A      1.918400   210A      1.929836
     211A      1.932230   212A      1.940871   213A      1.944503
     214A      1.956660   215A      1.965992   216A      1.972802
     217A      1.975224   218A      1.993454   219A      1.996808
     220A      2.014757   221A      2.023694   222A      2.034516
     223A      2.035714   224A      2.053446   225A      2.057745
     226A      2.071630   227A      2.074002   228A      2.077557
     229A      2.112705   230A      2.126658   231A      2.133049
     232A      2.146264   233A      2.151686   234A      2.154061
     235A      2.171460   236A      2.183114   237A      2.192477
     238A      2.205232   239A      2.221687   240A      2.231466
     241A      2.246727   242A      2.251304   243A      2.257903
     244A      2.265016   245A      2.279061   246A      2.296939
     247A      2.325737   248A      2.347153   249A      2.355243
     250A      2.399704   251A      2.412213   252A      2.417087
     253A      2.444206   254A      2.453603   255A      2.466050
     256A      2.473932   257A      2.504236   258A      2.508210
     259A      2.529125   260A      2.542874   261A      2.551380
     262A      2.576192   263A      2.606381   264A      2.626169
     265A      2.640307   266A      2.655720   267A      2.722452
     268A      2.744536   269A      2.747921   270A      2.765922
     271A      2.772367   272A      2.783739   273A      2.790867
     274A      2.796256   275A      2.810342   276A      2.819788
     277A      2.830887   278A      2.838661   279A      2.860567
     280A      2.863630   281A      2.895711   282A      2.948509
     283A      2.955498   284A      2.993081   285A      3.002554
     286A      3.025323   287A      3.078664   288A      3.098291
     289A      3.110000   290A      3.137538   291A      3.175289
     292A      3.225584   293A      3.237643   294A      3.266695
     295A      3.330097   296A      3.341231   297A      3.367791
     298A      3.537982   299A      3.572220   300A      3.676454
     301A      3.840301   302A      3.917512   303A      3.958764
     304A      4.191233   305A      5.006880

    Final Occupation by Irrep:
              A
    DOCC [    57 ]

  @RHF Final Energy:  -669.51032249711693

   => Energetics <=

    Nuclear Repulsion Energy =            986.6227169070469927
    One-Electron Energy =               -2869.3232090741275897
    Two-Electron Energy =                1213.1901696699635522
    Total Energy =                       -669.5103224971169311

Computation Completed

Properties will be evaluated at   0.000000,   0.000000,   0.000000 [a0]

Properties computed using the SCF density matrix

  Nuclear Dipole Moment: [e a0]
     X:     1.6130      Y:     9.2281      Z:     1.6437

  Electronic Dipole Moment: [e a0]
     X:    -3.2174      Y:    -7.5951      Z:    -1.3278

  Dipole Moment: [e a0]
     X:    -1.6044      Y:     1.6329      Z:     0.3159     Total:     2.3109

  Dipole Moment: [D]
     X:    -4.0780      Y:     4.1505      Z:     0.8028     Total:     5.8738

*** tstop() called on ds3 at Mon Apr 27 22:07:29 2020
Module time:
	user time   =     502.07 seconds =       8.37 minutes
	system time =     184.69 seconds =       3.08 minutes
	total time  =       1079 seconds =      17.98 minutes
Total time:
	user time   =     502.07 seconds =       8.37 minutes
	system time =     184.69 seconds =       3.08 minutes
	total time  =       1079 seconds =      17.98 minutes
                                     G D M A

                                 by Anthony Stone

                           version 2.2.06, 22 June 2011

               Distributed Multipoles from Gaussian wavefunctions

Starting at 22:7:30 on 27 Apr 2020

Using SCF density matrix from file ./SSI/SSI-115PRO-129TYR-1-dimer.test.22494.fchk

                         Distributed Multipole Analysis

Standard DMA

Positions and radii in angstrom
Multipole moments in atomic units, ea_0^k for rank k

C          x =  1.046958  y =  0.427872  z = -1.420214 angstrom
           Maximum rank =  0   Radius =  0.650 angstrom
                   Q00  =   0.006104

C          x =  1.386958  y =  1.507872  z = -0.355214 angstrom
           Maximum rank =  0   Radius =  0.650 angstrom
                   Q00  =  -0.242002

C          x =  3.011958  y = -0.261128  z = -0.173214 angstrom
           Maximum rank =  0   Radius =  0.650 angstrom
                   Q00  =  -0.077461

C          x =  1.466958  y = -1.654128  z = -3.390214 angstrom
           Maximum rank =  0   Radius =  0.650 angstrom
                   Q00  =  -0.272268

C          x =  2.479958  y = -1.442128  z = -2.269214 angstrom
           Maximum rank =  0   Radius =  0.650 angstrom
                   Q00  =   0.771371

O          x =  3.545958  y = -2.048128  z = -2.253214 angstrom
           Maximum rank =  0   Radius =  0.650 angstrom
                   Q00  =  -0.782760

N          x =  2.164958  y = -0.530128  z = -1.339214 angstrom
           Maximum rank =  0   Radius =  0.650 angstrom
                   Q00  =  -0.478555

H          x =  0.120958  y = -0.072128  z = -1.166214 angstrom
           Maximum rank =  0   Radius =  0.325 angstrom
                   Q00  =   0.044103

H          x =  0.975958  y =  0.887872  z = -2.406214 angstrom
           Maximum rank =  0   Radius =  0.325 angstrom
                   Q00  =   0.072048

H          x =  0.487958  y =  1.940872  z =  0.083786 angstrom
           Maximum rank =  0   Radius =  0.325 angstrom
                   Q00  =   0.105270

H          x =  1.996958  y =  2.284872  z = -0.799214 angstrom
           Maximum rank =  0   Radius =  0.325 angstrom
                   Q00  =   0.091471

H          x =  3.913958  y =  0.243872  z = -0.522214 angstrom
           Maximum rank =  0   Radius =  0.325 angstrom
                   Q00  =   0.092918

H          x =  0.465958  y = -1.417128  z = -3.033214 angstrom
           Maximum rank =  0   Radius =  0.325 angstrom
                   Q00  =   0.080840

H          x =  1.965738  y =  0.936344  z =  0.385306 angstrom
           Maximum rank =  0   Radius =  0.325 angstrom
                   Q00  =   0.106238

H          x =  2.418562  y =  0.442768  z =  0.428796 angstrom
           Maximum rank =  0   Radius =  0.325 angstrom
                   Q00  =   0.097001

H          x =  3.299650  y = -1.111191  z =  0.462886 angstrom
           Maximum rank =  0   Radius =  0.325 angstrom
                   Q00  =   0.107213

H          x =  1.722285  y = -0.982938  z = -4.223464 angstrom
           Maximum rank =  0   Radius =  0.325 angstrom
                   Q00  =   0.122108

H          x =  1.465523  y = -2.686808  z = -3.769124 angstrom
           Maximum rank =  0   Radius =  0.325 angstrom
                   Q00  =   0.132898

C          x = -2.248042  y =  2.494872  z =  3.613786 angstrom
           Maximum rank =  0   Radius =  0.650 angstrom
                   Q00  =  -0.186571

C          x = -2.237042  y =  0.919872  z =  0.165786 angstrom
           Maximum rank =  0   Radius =  0.650 angstrom
                   Q00  =  -0.192281

C          x = -2.317042  y =  1.857872  z =  1.192786 angstrom
           Maximum rank =  0   Radius =  0.650 angstrom
                   Q00  =   0.018378

C          x = -1.923042  y = -0.398128  z =  0.493786 angstrom
           Maximum rank =  0   Radius =  0.650 angstrom
                   Q00  =   0.346705

C          x = -2.095042  y =  1.488872  z =  2.525786 angstrom
           Maximum rank =  0   Radius =  0.650 angstrom
                   Q00  =  -0.132218

C          x = -1.691042  y = -0.780128  z =  1.817786 angstrom
           Maximum rank =  0   Radius =  0.650 angstrom
                   Q00  =  -0.118406

C          x = -1.814042  y =  0.167872  z =  2.837786 angstrom
           Maximum rank =  0   Radius =  0.650 angstrom
                   Q00  =  -0.048605

O          x = -1.849042  y = -1.357128  z = -0.466214 angstrom
           Maximum rank =  0   Radius =  0.650 angstrom
                   Q00  =  -0.661359

H          x = -2.419042  y =  1.210872  z = -0.859214 angstrom
           Maximum rank =  0   Radius =  0.325 angstrom
                   Q00  =   0.075285

H          x = -2.569042  y =  2.879872  z =  0.961786 angstrom
           Maximum rank =  0   Radius =  0.325 angstrom
                   Q00  =   0.069362

H          x = -2.027042  y = -1.011128  z = -1.346214 angstrom
           Maximum rank =  0   Radius =  0.325 angstrom
                   Q00  =   0.405308

H          x = -1.482042  y = -1.815128  z =  2.047786 angstrom
           Maximum rank =  0   Radius =  0.325 angstrom
                   Q00  =   0.085731

H          x = -1.843042  y =  3.448872  z =  3.273786 angstrom
           Maximum rank =  0   Radius =  0.325 angstrom
                   Q00  =   0.095436

H          x = -1.673042  y =  2.179872  z =  4.482786 angstrom
           Maximum rank =  0   Radius =  0.325 angstrom
                   Q00  =   0.097096

H          x = -1.796042  y = -0.128128  z =  3.875786 angstrom
           Maximum rank =  0   Radius =  0.325 angstrom
                   Q00  =   0.070377

H          x = -3.305622  y =  2.627874  z =  3.885506 angstrom
           Maximum rank =  0   Radius =  0.325 angstrom
                   Q00  =   0.099224

Total multipoles referred to origin at
           x =   0.000000,  y =    0.000000,  z =    0.000000 angstrom
                   Q00  =  -0.000000

Finished at 22:7:30 on 27 Apr 2020

  DMA results are available in the Python driver through the
	  variable('DMA DISTRIBUTED MULTIPOLES')
  and
	  variable('DMA TOTAL MULTIPOLES')
  commands.

    Psi4 stopped on: Monday, 27 April 2020 10:07PM
    Psi4 wall time for execution: 0:17:59.24

*** Psi4 exiting successfully. Buy a developer a beer!
