                               Psi4 1.3.2 release

  ==> Input File <==

--------------------------------------------------------------------------
import numpy as np
set {scf_type pk
basis cc-pvdz
d_convergence 10
gdma_switch   0
gdma_limit    0
gdma_origin   [ 0.0,  0.0,  0.0 ]
}
molecule test {
    units Angstrom
    0 1
    --
    0 1
    C                0.519400732945358    -1.991930915642502    -0.147708729418458
    C                1.707400732945358    -1.774930915642502     0.759291270581542
    H               -0.302599267054642    -1.326930915642502     0.104291270581542
    H                0.820400732945358    -1.792930915642502    -1.176708729418458
    H                0.181400732945358    -3.024930915642503    -0.093708729418458
    H                2.167400732945358    -0.814930915642503     0.522291270581542
    H                2.443400732945358    -2.550930915642503     0.543291270581542
    H                1.454510732945359    -1.818849915642502     1.828926270581542
    C               -0.582599267054642     1.527069084357497    -0.701708729418458
    C               -1.650599267054641     2.236069084357498     0.093291270581542
    H               -1.011599267054642     0.742069084357497    -1.323708729418458
    H               -0.079599267054642     2.250069084357498    -1.344708729418458
    H                0.156400732945358     1.098069084357498    -0.025708729418458
    H               -1.153599267054642     2.991069084357498     0.695291270581542
    H               -2.195779267054641     1.560503084357497     0.768856930581542
    H               -2.404169267054641     2.732062084357498    -0.536090729418458

}
e, wfn = energy('scf', return_wfn=True)
gdma(wfn)
dmavals = variable('DMA DISTRIBUTED MULTIPOLES')
charges = np.array(dmavals)
print(charges)
np.save('SSI-020ILE-032THR-1-dimer.npy', np.array(charges))--------------------------------------------------------------------------

*** tstart() called on ds3
*** at Tue Apr 28 07:58:14 2020

   => Loading Basis Set <=

    Name: CC-PVDZ
    Role: ORBITAL
    Keyword: BASIS
    atoms 1-2, 9-10  entry C          line   138 file /theoryfs2/ds/metcalf/miniconda2/envs/tf2gpu/share/psi4/basis/cc-pvdz.gbs
    atoms 3-8, 11-16 entry H          line    22 file /theoryfs2/ds/metcalf/miniconda2/envs/tf2gpu/share/psi4/basis/cc-pvdz.gbs

         ---------------------------------------------------------
                                   SCF
               by Justin Turney, Rob Parrish, Andy Simmonett
                          and Daniel G. A. Smith
                              RHF Reference
                        1 Threads,    500 MiB Core
         ---------------------------------------------------------

  ==> Geometry <==

    Molecular point group: c1
    Full point group: C1

    Geometry (in Angstrom), charge = 0, multiplicity = 1:

       Center              X                  Y                   Z               Mass
    ------------   -----------------  -----------------  -----------------  -----------------
         C            0.519400732945    -1.991930915643    -0.147708729418    12.000000000000
         C            1.707400732945    -1.774930915643     0.759291270582    12.000000000000
         H           -0.302599267055    -1.326930915643     0.104291270582     1.007825032230
         H            0.820400732945    -1.792930915643    -1.176708729418     1.007825032230
         H            0.181400732945    -3.024930915643    -0.093708729418     1.007825032230
         H            2.167400732945    -0.814930915643     0.522291270582     1.007825032230
         H            2.443400732945    -2.550930915643     0.543291270582     1.007825032230
         H            1.454510732945    -1.818849915643     1.828926270582     1.007825032230
         C           -0.582599267055     1.527069084357    -0.701708729418    12.000000000000
         C           -1.650599267055     2.236069084357     0.093291270582    12.000000000000
         H           -1.011599267055     0.742069084357    -1.323708729418     1.007825032230
         H           -0.079599267055     2.250069084357    -1.344708729418     1.007825032230
         H            0.156400732945     1.098069084357    -0.025708729418     1.007825032230
         H           -1.153599267055     2.991069084357     0.695291270582     1.007825032230
         H           -2.195779267055     1.560503084357     0.768856930582     1.007825032230
         H           -2.404169267055     2.732062084357    -0.536090729418     1.007825032230

  Running in c1 symmetry.

  Rotational constants: A =      0.44386  B =      0.05158  C =      0.05049 [cm^-1]
  Rotational constants: A =  13306.46846  B =   1546.25555  C =   1513.74208 [MHz]
  Nuclear repulsion =  123.601888238918505

  Charge       = 0
  Multiplicity = 1
  Electrons    = 36
  Nalpha       = 18
  Nbeta        = 18

  ==> Algorithm <==

  SCF Algorithm Type is PK.
  DIIS enabled.
  MOM disabled.
  Fractional occupation disabled.
  Guess Type is SAD.
  Energy threshold   = 1.00e-06
  Density threshold  = 1.00e-10
  Integral threshold = 0.00e+00

  ==> Primary Basis <==

  Basis Set: CC-PVDZ
    Blend: CC-PVDZ
    Number of shells: 60
    Number of basis function: 116
    Number of Cartesian functions: 120
    Spherical Harmonics?: true
    Max angular momentum: 2

  ==> Pre-Iterations <==

   -------------------------------------------------------
    Irrep   Nso     Nmo     Nalpha   Nbeta   Ndocc  Nsocc
   -------------------------------------------------------
     A        116     116       0       0       0       0
   -------------------------------------------------------
    Total     116     116      18      18      18       0
   -------------------------------------------------------

  ==> Integral Setup <==

  Using integral reordering PK algorithm.
  Sizing the integral batches needed.
  Building batch lookup table.
   Calculation information:
      Number of atoms:                  16
      Number of AO shells:              60
      Number of primitives:            148
      Number of atomic orbitals:       120
      Number of basis functions:       116

      Integral cutoff                 1.00e-12
      Number of threads:                 1

	Batch   1 pq = [       0,    6786] index = [             0,23028291] size =     23028291
  Task number: 3
  Buffer size: 11059200
  Buffer per thread: 2
  We computed 1466264 shell quartets total.
  Whereas there are 1675365 unique shell quartets.

  ==> DiskJK: Disk-Based J/K Matrices <==

    J tasked:                  Yes
    K tasked:                  Yes
    wK tasked:                  No
    Memory [MiB]:              375
    Schwarz Cutoff:          1E-12

    OpenMP threads:              1

  Minimum eigenvalue in the overlap matrix is 7.2215447578E-03.
  Using Symmetric Orthogonalization.

  SCF Guess: Superposition of Atomic Densities via on-the-fly atomic UHF.

  ==> Iterations <==

                        Total Energy        Delta E     RMS |[F,P]|

   @RHF iter SAD:  -157.41917304892795   -1.57419e+02   0.00000e+00
   @RHF iter   1:  -158.30292526419990   -8.83752e-01   4.27616e-03 DIIS
   @RHF iter   2:  -158.43923868346178   -1.36313e-01   1.83912e-03 DIIS
   @RHF iter   3:  -158.46365282679596   -2.44141e-02   3.52995e-04 DIIS
   @RHF iter   4:  -158.46552197520015   -1.86915e-03   3.89876e-05 DIIS
   @RHF iter   5:  -158.46554575312820   -2.37779e-05   6.42922e-06 DIIS
   @RHF iter   6:  -158.46554635979462   -6.06666e-07   1.07601e-06 DIIS
   @RHF iter   7:  -158.46554637100616   -1.12115e-08   3.02701e-07 DIIS
   @RHF iter   8:  -158.46554637179761   -7.91459e-10   3.74950e-08 DIIS
   @RHF iter   9:  -158.46554637181859   -2.09752e-11   7.56905e-09 DIIS
   @RHF iter  10:  -158.46554637181958   -9.94760e-13   2.07020e-09 DIIS
   @RHF iter  11:  -158.46554637181956    2.84217e-14   6.32657e-10 DIIS
   @RHF iter  12:  -158.46554637181947    8.52651e-14   1.49722e-10 DIIS
   @RHF iter  13:  -158.46554637181933    1.42109e-13   1.92246e-11 DIIS
  Energy and wave function converged.

  ==> Post-Iterations <==

    Orbital Energies [Eh]
    ---------------------

    Doubly Occupied:

       1A    -11.217405     2A    -11.216898     3A    -11.215976
       4A    -11.213971     5A     -1.024443     6A     -1.021611
       7A     -0.838642     8A     -0.834736     9A     -0.605343
      10A     -0.602231    11A     -0.599024    12A     -0.591638
      13A     -0.509388    14A     -0.505292    15A     -0.487115
      16A     -0.485118    17A     -0.482043    18A     -0.477537

    Virtual:

      19A      0.172129    20A      0.197159    21A      0.225634
      22A      0.230035    23A      0.248219    24A      0.257363
      25A      0.260861    26A      0.275344    27A      0.281663
      28A      0.286449    29A      0.316504    30A      0.338366
      31A      0.397934    32A      0.408143    33A      0.569032
      34A      0.596843    35A      0.602114    36A      0.608261
      37A      0.615424    38A      0.636418    39A      0.655823
      40A      0.685215    41A      0.693781    42A      0.812336
      43A      0.851575    44A      0.860156    45A      0.882998
      46A      0.887031    47A      0.892174    48A      0.895832
      49A      0.901954    50A      0.907677    51A      0.916879
      52A      0.925689    53A      0.937904    54A      0.956411
      55A      0.981808    56A      1.015067    57A      1.124955
      58A      1.127167    59A      1.131822    60A      1.159339
      61A      1.239407    62A      1.243731    63A      1.467000
      64A      1.468722    65A      1.477139    66A      1.495799
      67A      1.572459    68A      1.586198    69A      1.685537
      70A      1.689755    71A      1.697891    72A      1.705496
      73A      1.858794    74A      1.863347    75A      1.873741
      76A      1.888342    77A      1.892312    78A      1.912076
      79A      1.935092    80A      1.944357    81A      1.950522
      82A      1.957364    83A      1.962505    84A      1.965289
      85A      1.976190    86A      1.982860    87A      1.984642
      88A      2.014316    89A      2.085527    90A      2.109803
      91A      2.115201    92A      2.142385    93A      2.310565
      94A      2.312990    95A      2.322768    96A      2.336068
      97A      2.450930    98A      2.456357    99A      2.469563
     100A      2.472540   101A      2.551733   102A      2.569738
     103A      2.577375   104A      2.588347   105A      2.756690
     106A      2.772614   107A      2.790293   108A      2.798511
     109A      2.862990   110A      2.868148   111A      2.873118
     112A      2.881765   113A      2.940027   114A      2.954578
     115A      2.979739   116A      2.989189

    Final Occupation by Irrep:
              A
    DOCC [    18 ]

  @RHF Final Energy:  -158.46554637181933

   => Energetics <=

    Nuclear Repulsion Energy =            123.6018882389185052
    One-Electron Energy =                -456.2780473393039529
    Two-Electron Energy =                 174.2106127285661330
    Total Energy =                       -158.4655463718193289

Computation Completed

Properties will be evaluated at   0.000000,   0.000000,   0.000000 [a0]

Properties computed using the SCF density matrix

  Nuclear Dipole Moment: [e a0]
     X:     0.0714      Y:     0.0416      Z:    -0.0353

  Electronic Dipole Moment: [e a0]
     X:    -0.0603      Y:    -0.0353      Z:     0.0200

  Dipole Moment: [e a0]
     X:     0.0111      Y:     0.0062      Z:    -0.0153     Total:     0.0199

  Dipole Moment: [D]
     X:     0.0282      Y:     0.0159      Z:    -0.0389     Total:     0.0506

*** tstop() called on ds3 at Tue Apr 28 07:58:31 2020
Module time:
	user time   =       7.49 seconds =       0.12 minutes
	system time =       2.69 seconds =       0.04 minutes
	total time  =         17 seconds =       0.28 minutes
Total time:
	user time   =       7.49 seconds =       0.12 minutes
	system time =       2.69 seconds =       0.04 minutes
	total time  =         17 seconds =       0.28 minutes
                                     G D M A

                                 by Anthony Stone

                           version 2.2.06, 22 June 2011

               Distributed Multipoles from Gaussian wavefunctions

Starting at 7:58:31 on 28 Apr 2020

Using SCF density matrix from file ./SSI/SSI-020ILE-032THR-1-dimer.test.8073.fchk

                         Distributed Multipole Analysis

Standard DMA

Positions and radii in angstrom
Multipole moments in atomic units, ea_0^k for rank k

C          x =  0.519401  y = -1.991931  z = -0.147709 angstrom
           Maximum rank =  0   Radius =  0.650 angstrom
                   Q00  =  -0.237911

C          x =  1.707401  y = -1.774931  z =  0.759291 angstrom
           Maximum rank =  0   Radius =  0.650 angstrom
                   Q00  =  -0.227325

H          x = -0.302599  y = -1.326931  z =  0.104291 angstrom
           Maximum rank =  0   Radius =  0.325 angstrom
                   Q00  =   0.081390

H          x =  0.820401  y = -1.792931  z = -1.176709 angstrom
           Maximum rank =  0   Radius =  0.325 angstrom
                   Q00  =   0.076384

H          x =  0.181401  y = -3.024931  z = -0.093709 angstrom
           Maximum rank =  0   Radius =  0.325 angstrom
                   Q00  =   0.076239

H          x =  2.167401  y = -0.814931  z =  0.522291 angstrom
           Maximum rank =  0   Radius =  0.325 angstrom
                   Q00  =   0.075965

H          x =  2.443401  y = -2.550931  z =  0.543291 angstrom
           Maximum rank =  0   Radius =  0.325 angstrom
                   Q00  =   0.075720

H          x =  1.454511  y = -1.818850  z =  1.828926 angstrom
           Maximum rank =  0   Radius =  0.325 angstrom
                   Q00  =   0.079187

C          x = -0.582599  y =  1.527069  z = -0.701709 angstrom
           Maximum rank =  0   Radius =  0.650 angstrom
                   Q00  =  -0.227965

C          x = -1.650599  y =  2.236069  z =  0.093291 angstrom
           Maximum rank =  0   Radius =  0.650 angstrom
                   Q00  =  -0.236063

H          x = -1.011599  y =  0.742069  z = -1.323709 angstrom
           Maximum rank =  0   Radius =  0.325 angstrom
                   Q00  =   0.078742

H          x = -0.079599  y =  2.250069  z = -1.344709 angstrom
           Maximum rank =  0   Radius =  0.325 angstrom
                   Q00  =   0.077164

H          x =  0.156401  y =  1.098069  z = -0.025709 angstrom
           Maximum rank =  0   Radius =  0.325 angstrom
                   Q00  =   0.079478

H          x = -1.153599  y =  2.991069  z =  0.695291 angstrom
           Maximum rank =  0   Radius =  0.325 angstrom
                   Q00  =   0.075256

H          x = -2.195779  y =  1.560503  z =  0.768857 angstrom
           Maximum rank =  0   Radius =  0.325 angstrom
                   Q00  =   0.075677

H          x = -2.404169  y =  2.732062  z = -0.536091 angstrom
           Maximum rank =  0   Radius =  0.325 angstrom
                   Q00  =   0.078064

Total multipoles referred to origin at
           x =   0.000000,  y =    0.000000,  z =    0.000000 angstrom
                   Q00  =  -0.000000

Finished at 7:58:31 on 28 Apr 2020

  DMA results are available in the Python driver through the
	  variable('DMA DISTRIBUTED MULTIPOLES')
  and
	  variable('DMA TOTAL MULTIPOLES')
  commands.

    Psi4 stopped on: Tuesday, 28 April 2020 07:58AM
    Psi4 wall time for execution: 0:00:17.46

*** Psi4 exiting successfully. Buy a developer a beer!
