                               Psi4 1.3.2 release

  ==> Input File <==

--------------------------------------------------------------------------
import numpy as np
set {scf_type pk
basis cc-pvdz
d_convergence 10
gdma_switch   0
gdma_limit    0
gdma_origin   [ 0.0,  0.0,  0.0 ]
}
molecule test {
    units Angstrom
    0 1
    --
    0 1
    C                0.660668619637103     3.007095901867497     0.019948145301738
    C                1.174668619637103     3.883095901867497    -1.118051854698262
    H               -0.333331380362897     2.615095901867497    -0.184051854698262
    H                1.324668619637103     2.148095901867497     0.119948145301738
    H                0.696668619637103     3.560095901867497     0.957948145301738
    H                1.238668619637103     3.261095901867496    -2.006051854698263
    H                0.473788619637103     4.713825901867497    -1.287353854698262
    H                2.181958619637103     4.262805901867496    -0.891807854698262
    C                2.390668619637103    -2.210904098132504    -0.068051854698262
    C               -0.816331380362897    -0.353904098132503    -0.951051854698262
    C                0.451668619637103    -0.925904098132503    -1.047051854698262
    C               -1.502331380362897    -0.385904098132503     0.263948145301738
    C                1.046668619637103    -1.533904098132503     0.062948145301738
    C               -0.918331380362897    -0.983904098132503     1.382948145301738
    C                0.352668619637103    -1.553904098132503     1.276948145301738
    O               -2.748331380362897     0.157095901867497     0.351948145301738
    H               -1.262331380362897     0.117095901867497    -1.810051854698262
    H                0.988668619637103    -0.886904098132503    -1.985051854698262
    H               -3.050331380362897     0.433095901867497    -0.545051854698262
    H               -1.458331380362897    -1.014904098132503     2.317948145301738
    H                2.881668619637103    -2.244904098132503     0.904948145301738
    H                3.010668619637103    -1.595904098132503    -0.723051854698262
    H                0.792668619637103    -2.034904098132503     2.139948145301738
    H                2.317308619637103    -3.227858098132503    -0.480874854698262

}
e, wfn = energy('scf', return_wfn=True)
gdma(wfn)
dmavals = variable('DMA DISTRIBUTED MULTIPOLES')
charges = np.array(dmavals)
print(charges)
np.save('SSI-007LEU-090TYR-1-dimer.npy', np.array(charges))--------------------------------------------------------------------------

*** tstart() called on ds3
*** at Mon Apr 27 21:10:49 2020

   => Loading Basis Set <=

    Name: CC-PVDZ
    Role: ORBITAL
    Keyword: BASIS
    atoms 1-2, 9-15  entry C          line   138 file /theoryfs2/ds/metcalf/miniconda2/envs/tf2gpu/share/psi4/basis/cc-pvdz.gbs
    atoms 3-8, 17-24 entry H          line    22 file /theoryfs2/ds/metcalf/miniconda2/envs/tf2gpu/share/psi4/basis/cc-pvdz.gbs
    atoms 16         entry O          line   198 file /theoryfs2/ds/metcalf/miniconda2/envs/tf2gpu/share/psi4/basis/cc-pvdz.gbs

         ---------------------------------------------------------
                                   SCF
               by Justin Turney, Rob Parrish, Andy Simmonett
                          and Daniel G. A. Smith
                              RHF Reference
                        1 Threads,    500 MiB Core
         ---------------------------------------------------------

  ==> Geometry <==

    Molecular point group: c1
    Full point group: C1

    Geometry (in Angstrom), charge = 0, multiplicity = 1:

       Center              X                  Y                   Z               Mass
    ------------   -----------------  -----------------  -----------------  -----------------
         C            0.660668619637     3.007095901867     0.019948145302    12.000000000000
         C            1.174668619637     3.883095901867    -1.118051854698    12.000000000000
         H           -0.333331380363     2.615095901867    -0.184051854698     1.007825032230
         H            1.324668619637     2.148095901867     0.119948145302     1.007825032230
         H            0.696668619637     3.560095901867     0.957948145302     1.007825032230
         H            1.238668619637     3.261095901867    -2.006051854698     1.007825032230
         H            0.473788619637     4.713825901867    -1.287353854698     1.007825032230
         H            2.181958619637     4.262805901867    -0.891807854698     1.007825032230
         C            2.390668619637    -2.210904098133    -0.068051854698    12.000000000000
         C           -0.816331380363    -0.353904098133    -0.951051854698    12.000000000000
         C            0.451668619637    -0.925904098133    -1.047051854698    12.000000000000
         C           -1.502331380363    -0.385904098133     0.263948145302    12.000000000000
         C            1.046668619637    -1.533904098133     0.062948145302    12.000000000000
         C           -0.918331380363    -0.983904098133     1.382948145302    12.000000000000
         C            0.352668619637    -1.553904098133     1.276948145302    12.000000000000
         O           -2.748331380363     0.157095901867     0.351948145302    15.994914619570
         H           -1.262331380363     0.117095901867    -1.810051854698     1.007825032230
         H            0.988668619637    -0.886904098133    -1.985051854698     1.007825032230
         H           -3.050331380363     0.433095901867    -0.545051854698     1.007825032230
         H           -1.458331380363    -1.014904098133     2.317948145302     1.007825032230
         H            2.881668619637    -2.244904098133     0.904948145302     1.007825032230
         H            3.010668619637    -1.595904098133    -0.723051854698     1.007825032230
         H            0.792668619637    -2.034904098133     2.139948145302     1.007825032230
         H            2.317308619637    -3.227858098133    -0.480874854698     1.007825032230

  Running in c1 symmetry.

  Rotational constants: A =      0.04101  B =      0.02663  C =      0.01915 [cm^-1]
  Rotational constants: A =   1229.48014  B =    798.36602  C =    574.03925 [MHz]
  Nuclear repulsion =  496.745911306156302

  Charge       = 0
  Multiplicity = 1
  Electrons    = 76
  Nalpha       = 38
  Nbeta        = 38

  ==> Algorithm <==

  SCF Algorithm Type is PK.
  DIIS enabled.
  MOM disabled.
  Fractional occupation disabled.
  Guess Type is SAD.
  Energy threshold   = 1.00e-06
  Density threshold  = 1.00e-10
  Integral threshold = 0.00e+00

  ==> Primary Basis <==

  Basis Set: CC-PVDZ
    Blend: CC-PVDZ
    Number of shells: 102
    Number of basis function: 210
    Number of Cartesian functions: 220
    Spherical Harmonics?: true
    Max angular momentum: 2

  ==> Pre-Iterations <==

   -------------------------------------------------------
    Irrep   Nso     Nmo     Nalpha   Nbeta   Ndocc  Nsocc
   -------------------------------------------------------
     A        210     210       0       0       0       0
   -------------------------------------------------------
    Total     210     210      38      38      38       0
   -------------------------------------------------------

  ==> Integral Setup <==

  Using integral reordering PK algorithm.
  Sizing the integral batches needed.
  Building batch lookup table.
   Calculation information:
      Number of atoms:                  24
      Number of AO shells:             102
      Number of primitives:            290
      Number of atomic orbitals:       220
      Number of basis functions:       210

      Integral cutoff                 1.00e-12
      Number of threads:                 1

	Batch   1 pq = [       0,    9405] index = [             0,44231715] size =     44231715
	Batch   2 pq = [    9405,   13301] index = [      44231715,88464951] size =     44233236
	Batch   3 pq = [   13301,   16290] index = [      88464951,132690195] size =     44225244
	Batch   4 pq = [   16290,   18810] index = [     132690195,176917455] size =     44227260
	Batch   5 pq = [   18810,   21030] index = [     176917455,221140965] size =     44223510
	Batch   6 pq = [   21030,   22155] index = [     221140965,245433090] size =     24292125
  Task number: 23
  Buffer size: 11059200
  Buffer per thread: 2
  We computed 12045116 shell quartets total.
  Whereas there are 13799631 unique shell quartets.

  ==> DiskJK: Disk-Based J/K Matrices <==

    J tasked:                  Yes
    K tasked:                  Yes
    wK tasked:                  No
    Memory [MiB]:              375
    Schwarz Cutoff:          1E-12

    OpenMP threads:              1

  Minimum eigenvalue in the overlap matrix is 3.3162939143E-04.
  Using Symmetric Orthogonalization.

  SCF Guess: Superposition of Atomic Densities via on-the-fly atomic UHF.

  ==> Iterations <==

                        Total Energy        Delta E     RMS |[F,P]|

   @RHF iter SAD:  -422.62695270317033   -4.22627e+02   0.00000e+00
   @RHF iter   1:  -423.59940503957489   -9.72452e-01   2.98023e-03 DIIS
   @RHF iter   2:  -423.81652128349776   -2.17116e-01   1.26257e-03 DIIS
   @RHF iter   3:  -423.85163908685524   -3.51178e-02   2.85348e-04 DIIS
   @RHF iter   4:  -423.85452640346830   -2.88732e-03   1.19787e-04 DIIS
   @RHF iter   5:  -423.85489504123785   -3.68638e-04   2.09640e-05 DIIS
   @RHF iter   6:  -423.85491323149989   -1.81903e-05   6.57234e-06 DIIS
   @RHF iter   7:  -423.85491494980511   -1.71831e-06   2.14513e-06 DIIS
   @RHF iter   8:  -423.85491517655953   -2.26754e-07   7.85693e-07 DIIS
   @RHF iter   9:  -423.85491520923858   -3.26791e-08   2.83660e-07 DIIS
   @RHF iter  10:  -423.85491521431283   -5.07424e-09   1.11902e-07 DIIS
   @RHF iter  11:  -423.85491521567161   -1.35879e-09   5.24513e-08 DIIS
   @RHF iter  12:  -423.85491521599494   -3.23325e-10   2.79472e-08 DIIS
   @RHF iter  13:  -423.85491521607651   -8.15703e-11   8.57521e-09 DIIS
   @RHF iter  14:  -423.85491521608219   -5.68434e-12   2.27787e-09 DIIS
   @RHF iter  15:  -423.85491521608242   -2.27374e-13   7.23213e-10 DIIS
   @RHF iter  16:  -423.85491521608310   -6.82121e-13   2.15167e-10 DIIS
   @RHF iter  17:  -423.85491521608105    2.04636e-12   7.51660e-11 DIIS
  Energy and wave function converged.

  ==> Post-Iterations <==

    Orbital Energies [Eh]
    ---------------------

    Doubly Occupied:

       1A    -20.586805     2A    -11.300195     3A    -11.240433
       4A    -11.239636     5A    -11.234615     6A    -11.234400
       7A    -11.231652     8A    -11.228935     9A    -11.214663
      10A    -11.207575    11A     -1.397868    12A     -1.148525
      13A     -1.035450    14A     -1.017727    15A     -1.013569
      16A     -0.924457    17A     -0.844455    18A     -0.829733
      19A     -0.799932    20A     -0.727117    21A     -0.668995
      22A     -0.641810    23A     -0.605696    24A     -0.596618
      25A     -0.591543    26A     -0.587786    27A     -0.586350
      28A     -0.570933    29A     -0.568563    30A     -0.526009
      31A     -0.498200    32A     -0.495009    33A     -0.485203
      34A     -0.481382    35A     -0.477170    36A     -0.464748
      37A     -0.338732    38A     -0.300809

    Virtual:

      39A      0.127792    40A      0.153614    41A      0.166198
      42A      0.181242    43A      0.200498    44A      0.215170
      45A      0.219632    46A      0.246514    47A      0.257460
      48A      0.260936    49A      0.264222    50A      0.267340
      51A      0.282285    52A      0.288929    53A      0.298728
      54A      0.302792    55A      0.368803    56A      0.371406
      57A      0.400777    58A      0.431319    59A      0.452765
      60A      0.481251    61A      0.494681    62A      0.505592
      63A      0.587120    64A      0.599022    65A      0.602459
      66A      0.610014    67A      0.638266    68A      0.643878
      69A      0.654606    70A      0.659554    71A      0.685035
      72A      0.690207    73A      0.700490    74A      0.726471
      75A      0.730437    76A      0.733245    77A      0.759426
      78A      0.769074    79A      0.786790    80A      0.796343
      81A      0.829542    82A      0.838632    83A      0.842728
      84A      0.846836    85A      0.864771    86A      0.876701
      87A      0.882335    88A      0.890926    89A      0.894957
      90A      0.899470    91A      0.901311    92A      0.919211
      93A      0.921522    94A      0.931183    95A      0.933439
      96A      0.936505    97A      0.941518    98A      0.973321
      99A      0.992844   100A      1.012301   101A      1.025117
     102A      1.069475   103A      1.122331   104A      1.130557
     105A      1.136258   106A      1.143079   107A      1.143786
     108A      1.170134   109A      1.206000   110A      1.232234
     111A      1.245908   112A      1.251205   113A      1.266548
     114A      1.287944   115A      1.295588   116A      1.303587
     117A      1.308487   118A      1.350016   119A      1.361727
     120A      1.383719   121A      1.475663   122A      1.478906
     123A      1.495887   124A      1.504331   125A      1.524764
     126A      1.552931   127A      1.576056   128A      1.613266
     129A      1.615663   130A      1.678661   131A      1.681022
     132A      1.692355   133A      1.704438   134A      1.734945
     135A      1.749060   136A      1.779616   137A      1.800236
     138A      1.805119   139A      1.861230   140A      1.866229
     141A      1.879206   142A      1.888759   143A      1.892667
     144A      1.904475   145A      1.909179   146A      1.914906
     147A      1.921010   148A      1.942761   149A      1.949448
     150A      1.954172   151A      1.959385   152A      1.964103
     153A      1.971011   154A      1.976561   155A      1.983517
     156A      1.991796   157A      2.032202   158A      2.048116
     159A      2.053080   160A      2.068619   161A      2.074807
     162A      2.096928   163A      2.131684   164A      2.138372
     165A      2.142067   166A      2.160143   167A      2.199522
     168A      2.224230   169A      2.257844   170A      2.272302
     171A      2.292464   172A      2.294151   173A      2.321757
     174A      2.323349   175A      2.364069   176A      2.421412
     177A      2.422132   178A      2.456226   179A      2.467523
     180A      2.476677   181A      2.485578   182A      2.528316
     183A      2.548436   184A      2.566909   185A      2.588166
     186A      2.599742   187A      2.630561   188A      2.750990
     189A      2.766056   190A      2.772768   191A      2.785710
     192A      2.802174   193A      2.805663   194A      2.833752
     195A      2.844730   196A      2.871554   197A      2.899195
     198A      2.947168   199A      2.960755   200A      2.989493
     201A      2.997468   202A      3.081094   203A      3.099118
     204A      3.251801   205A      3.274837   206A      3.330395
     207A      3.581168   208A      3.673671   209A      3.944122
     210A      4.159190

    Final Occupation by Irrep:
              A
    DOCC [    38 ]

  @RHF Final Energy:  -423.85491521608105

   => Energetics <=

    Nuclear Repulsion Energy =            496.7459113061563016
    One-Electron Energy =               -1559.3150584770796740
    Two-Electron Energy =                 638.7142319548422620
    Total Energy =                       -423.8549152160810536

Computation Completed

Properties will be evaluated at   0.000000,   0.000000,   0.000000 [a0]

Properties computed using the SCF density matrix

  Nuclear Dipole Moment: [e a0]
     X:     9.1763      Y:     9.4747      Z:    -3.2538

  Electronic Dipole Moment: [e a0]
     X:    -9.0093      Y:    -9.5729      Z:     2.7261

  Dipole Moment: [e a0]
     X:     0.1670      Y:    -0.0982      Z:    -0.5277     Total:     0.5621

  Dipole Moment: [D]
     X:     0.4244      Y:    -0.2496      Z:    -1.3413     Total:     1.4288

*** tstop() called on ds3 at Mon Apr 27 21:13:49 2020
Module time:
	user time   =      87.46 seconds =       1.46 minutes
	system time =      35.10 seconds =       0.59 minutes
	total time  =        180 seconds =       3.00 minutes
Total time:
	user time   =      87.46 seconds =       1.46 minutes
	system time =      35.10 seconds =       0.59 minutes
	total time  =        180 seconds =       3.00 minutes
                                     G D M A

                                 by Anthony Stone

                           version 2.2.06, 22 June 2011

               Distributed Multipoles from Gaussian wavefunctions

Starting at 21:13:49 on 27 Apr 2020

Using SCF density matrix from file ./SSI/SSI-007LEU-090TYR-1-dimer.test.24667.fchk

                         Distributed Multipole Analysis

Standard DMA

Positions and radii in angstrom
Multipole moments in atomic units, ea_0^k for rank k

C          x =  0.660669  y =  3.007096  z =  0.019948 angstrom
           Maximum rank =  0   Radius =  0.650 angstrom
                   Q00  =  -0.227318

C          x =  1.174669  y =  3.883096  z = -1.118052 angstrom
           Maximum rank =  0   Radius =  0.650 angstrom
                   Q00  =  -0.236144

H          x = -0.333331  y =  2.615096  z = -0.184052 angstrom
           Maximum rank =  0   Radius =  0.325 angstrom
                   Q00  =   0.079130

H          x =  1.324669  y =  2.148096  z =  0.119948 angstrom
           Maximum rank =  0   Radius =  0.325 angstrom
                   Q00  =   0.079956

H          x =  0.696669  y =  3.560096  z =  0.957948 angstrom
           Maximum rank =  0   Radius =  0.325 angstrom
                   Q00  =   0.075056

H          x =  1.238669  y =  3.261096  z = -2.006052 angstrom
           Maximum rank =  0   Radius =  0.325 angstrom
                   Q00  =   0.072031

H          x =  0.473789  y =  4.713826  z = -1.287354 angstrom
           Maximum rank =  0   Radius =  0.325 angstrom
                   Q00  =   0.074581

H          x =  2.181959  y =  4.262806  z = -0.891808 angstrom
           Maximum rank =  0   Radius =  0.325 angstrom
                   Q00  =   0.078890

C          x =  2.390669  y = -2.210904  z = -0.068052 angstrom
           Maximum rank =  0   Radius =  0.650 angstrom
                   Q00  =  -0.189286

C          x = -0.816331  y = -0.353904  z = -0.951052 angstrom
           Maximum rank =  0   Radius =  0.650 angstrom
                   Q00  =  -0.177740

C          x =  0.451669  y = -0.925904  z = -1.047052 angstrom
           Maximum rank =  0   Radius =  0.650 angstrom
                   Q00  =   0.020630

C          x = -1.502331  y = -0.385904  z =  0.263948 angstrom
           Maximum rank =  0   Radius =  0.650 angstrom
                   Q00  =   0.302202

C          x =  1.046669  y = -1.533904  z =  0.062948 angstrom
           Maximum rank =  0   Radius =  0.650 angstrom
                   Q00  =  -0.141386

C          x = -0.918331  y = -0.983904  z =  1.382948 angstrom
           Maximum rank =  0   Radius =  0.650 angstrom
                   Q00  =  -0.111839

C          x =  0.352669  y = -1.553904  z =  1.276948 angstrom
           Maximum rank =  0   Radius =  0.650 angstrom
                   Q00  =  -0.013944

O          x = -2.748331  y =  0.157096  z =  0.351948 angstrom
           Maximum rank =  0   Radius =  0.650 angstrom
                   Q00  =  -0.673877

H          x = -1.262331  y =  0.117096  z = -1.810052 angstrom
           Maximum rank =  0   Radius =  0.325 angstrom
                   Q00  =   0.070408

H          x =  0.988669  y = -0.886904  z = -1.985052 angstrom
           Maximum rank =  0   Radius =  0.325 angstrom
                   Q00  =   0.068685

H          x = -3.050331  y =  0.433096  z = -0.545052 angstrom
           Maximum rank =  0   Radius =  0.325 angstrom
                   Q00  =   0.411677

H          x = -1.458331  y = -1.014904  z =  2.317948 angstrom
           Maximum rank =  0   Radius =  0.325 angstrom
                   Q00  =   0.081870

H          x =  2.881669  y = -2.244904  z =  0.904948 angstrom
           Maximum rank =  0   Radius =  0.325 angstrom
                   Q00  =   0.097172

H          x =  3.010669  y = -1.595904  z = -0.723052 angstrom
           Maximum rank =  0   Radius =  0.325 angstrom
                   Q00  =   0.093781

H          x =  0.792669  y = -2.034904  z =  2.139948 angstrom
           Maximum rank =  0   Radius =  0.325 angstrom
                   Q00  =   0.065030

H          x =  2.317309  y = -3.227858  z = -0.480875 angstrom
           Maximum rank =  0   Radius =  0.325 angstrom
                   Q00  =   0.100435

Total multipoles referred to origin at
           x =   0.000000,  y =    0.000000,  z =    0.000000 angstrom
                   Q00  =  -0.000000

Finished at 21:13:49 on 27 Apr 2020

  DMA results are available in the Python driver through the
	  variable('DMA DISTRIBUTED MULTIPOLES')
  and
	  variable('DMA TOTAL MULTIPOLES')
  commands.

    Psi4 stopped on: Monday, 27 April 2020 09:13PM
    Psi4 wall time for execution: 0:03:00.87

*** Psi4 exiting successfully. Buy a developer a beer!
