                               Psi4 1.3.2 release

  ==> Input File <==

--------------------------------------------------------------------------
import numpy as np
set {scf_type pk
basis cc-pvdz
d_convergence 10
gdma_switch   0
gdma_limit    0
gdma_origin   [ 0.0,  0.0,  0.0 ]
}
molecule test {
    units Angstrom
    0 1
    --
    0 1
    C               -1.393092830424346    -3.899082049947223     0.202967194849955
    C               -2.307092830424345    -1.521082049947223    -0.308032805150045
    C               -1.655092830424346    -2.674082049947223    -0.616032805150045
    C               -1.646092830424345    -1.396082049947223    -2.405032805150045
    N               -2.281092830424346    -0.738082049947223    -1.440032805150045
    N               -1.249092830424346    -2.572082049947223    -1.931032805150045
    H               -2.757092830424345    -1.246082049947222     0.627967194849955
    H               -2.692092830424346     0.184917950052777    -1.544032805150045
    H               -1.470092830424345    -3.663082049947223     1.263967194849955
    H               -0.369092830424345    -4.220082049947223     0.007967194849955
    H               -1.478092830424345    -1.029082049947223    -3.412032805150045
    H               -2.076632830424345    -4.724812049947222    -0.043886805150045
    C                0.405907169575655     1.228917950052777    -0.097032805150045
    C                0.985907169575655     0.348917950052777    -1.169032805150045
    C                2.824907169575654     1.298917950052777     0.019967194849955
    C                0.130907169575655     2.568917950052777     2.437967194849955
    C                1.515907169575655     2.325917950052777     1.840967194849955
    O                2.514907169575654     2.750917950052777     2.428967194849954
    N                1.570907169575655     1.639917950052777     0.688967194849955
    H               -0.072092830424345     2.102917950052777    -0.543032805150045
    H               -0.303092830424345     0.644917950052777     0.490967194849955
    H                0.417907169575655     0.431917950052777    -2.096032805150045
    H                1.000907169575655    -0.686082049947223    -0.833032805150045
    H                3.328907169575654     0.495917950052777     0.557967194849955
    H               -0.643092830424345     2.169917950052777     1.792967194849955
    H                2.018727169575655     0.699587950052777    -1.311516805150045
    H                2.507767169575655     0.956557950052777    -0.976130805150045
    H                3.493277169575654     2.166857950052777    -0.079820805150045
    H                0.039567169575655     2.083517950052778     3.420843194849955
    H               -0.088172830424345     3.644837950052777     2.504266194849955

}
e, wfn = energy('scf', return_wfn=True)
gdma(wfn)
dmavals = variable('DMA DISTRIBUTED MULTIPOLES')
charges = np.array(dmavals)
print(charges)
np.save('SSI-072HIE-095PRO-1-dimer.npy', np.array(charges))--------------------------------------------------------------------------

*** tstart() called on ds3
*** at Sun Apr 26 22:24:41 2020

   => Loading Basis Set <=

    Name: CC-PVDZ
    Role: ORBITAL
    Keyword: BASIS
    atoms 1-4, 13-17  entry C          line   138 file /theoryfs2/ds/metcalf/miniconda2/envs/tf2gpu/share/psi4/basis/cc-pvdz.gbs
    atoms 5-6, 19     entry N          line   168 file /theoryfs2/ds/metcalf/miniconda2/envs/tf2gpu/share/psi4/basis/cc-pvdz.gbs
    atoms 7-12, 20-30 entry H          line    22 file /theoryfs2/ds/metcalf/miniconda2/envs/tf2gpu/share/psi4/basis/cc-pvdz.gbs
    atoms 18          entry O          line   198 file /theoryfs2/ds/metcalf/miniconda2/envs/tf2gpu/share/psi4/basis/cc-pvdz.gbs

         ---------------------------------------------------------
                                   SCF
               by Justin Turney, Rob Parrish, Andy Simmonett
                          and Daniel G. A. Smith
                              RHF Reference
                        1 Threads,    500 MiB Core
         ---------------------------------------------------------

  ==> Geometry <==

    Molecular point group: c1
    Full point group: C1

    Geometry (in Angstrom), charge = 0, multiplicity = 1:

       Center              X                  Y                   Z               Mass
    ------------   -----------------  -----------------  -----------------  -----------------
         C           -1.393092830424    -3.899082049947     0.202967194850    12.000000000000
         C           -2.307092830424    -1.521082049947    -0.308032805150    12.000000000000
         C           -1.655092830424    -2.674082049947    -0.616032805150    12.000000000000
         C           -1.646092830424    -1.396082049947    -2.405032805150    12.000000000000
         N           -2.281092830424    -0.738082049947    -1.440032805150    14.003074004430
         N           -1.249092830424    -2.572082049947    -1.931032805150    14.003074004430
         H           -2.757092830424    -1.246082049947     0.627967194850     1.007825032230
         H           -2.692092830424     0.184917950053    -1.544032805150     1.007825032230
         H           -1.470092830424    -3.663082049947     1.263967194850     1.007825032230
         H           -0.369092830424    -4.220082049947     0.007967194850     1.007825032230
         H           -1.478092830424    -1.029082049947    -3.412032805150     1.007825032230
         H           -2.076632830424    -4.724812049947    -0.043886805150     1.007825032230
         C            0.405907169576     1.228917950053    -0.097032805150    12.000000000000
         C            0.985907169576     0.348917950053    -1.169032805150    12.000000000000
         C            2.824907169576     1.298917950053     0.019967194850    12.000000000000
         C            0.130907169576     2.568917950053     2.437967194850    12.000000000000
         C            1.515907169576     2.325917950053     1.840967194850    12.000000000000
         O            2.514907169576     2.750917950053     2.428967194850    15.994914619570
         N            1.570907169576     1.639917950053     0.688967194850    14.003074004430
         H           -0.072092830424     2.102917950053    -0.543032805150     1.007825032230
         H           -0.303092830424     0.644917950053     0.490967194850     1.007825032230
         H            0.417907169576     0.431917950053    -2.096032805150     1.007825032230
         H            1.000907169576    -0.686082049947    -0.833032805150     1.007825032230
         H            3.328907169576     0.495917950053     0.557967194850     1.007825032230
         H           -0.643092830424     2.169917950053     1.792967194850     1.007825032230
         H            2.018727169576     0.699587950053    -1.311516805150     1.007825032230
         H            2.507767169576     0.956557950053    -0.976130805150     1.007825032230
         H            3.493277169576     2.166857950053    -0.079820805150     1.007825032230
         H            0.039567169576     2.083517950053     3.420843194850     1.007825032230
         H           -0.088172830424     3.644837950053     2.504266194850     1.007825032230

  Running in c1 symmetry.

  Rotational constants: A =      0.04529  B =      0.01023  C =      0.00986 [cm^-1]
  Rotational constants: A =   1357.78040  B =    306.59838  C =    295.44635 [MHz]
  Nuclear repulsion =  794.027283117315164

  Charge       = 0
  Multiplicity = 1
  Electrons    = 100
  Nalpha       = 50
  Nbeta        = 50

  ==> Algorithm <==

  SCF Algorithm Type is PK.
  DIIS enabled.
  MOM disabled.
  Fractional occupation disabled.
  Guess Type is SAD.
  Energy threshold   = 1.00e-06
  Density threshold  = 1.00e-10
  Integral threshold = 0.00e+00

  ==> Primary Basis <==

  Basis Set: CC-PVDZ
    Blend: CC-PVDZ
    Number of shells: 129
    Number of basis function: 267
    Number of Cartesian functions: 280
    Spherical Harmonics?: true
    Max angular momentum: 2

  ==> Pre-Iterations <==

   -------------------------------------------------------
    Irrep   Nso     Nmo     Nalpha   Nbeta   Ndocc  Nsocc
   -------------------------------------------------------
     A        267     267       0       0       0       0
   -------------------------------------------------------
    Total     267     267      50      50      50       0
   -------------------------------------------------------

  ==> Integral Setup <==

  Using integral reordering PK algorithm.
  Sizing the integral batches needed.
  Building batch lookup table.
   Calculation information:
      Number of atoms:                  30
      Number of AO shells:             129
      Number of primitives:            371
      Number of atomic orbitals:       280
      Number of basis functions:       267

      Integral cutoff                 1.00e-12
      Number of threads:                 1

	Batch   1 pq = [       0,    9405] index = [             0,44231715] size =     44231715
	Batch   2 pq = [    9405,   13301] index = [      44231715,88464951] size =     44233236
	Batch   3 pq = [   13301,   16290] index = [      88464951,132690195] size =     44225244
	Batch   4 pq = [   16290,   18810] index = [     132690195,176917455] size =     44227260
	Batch   5 pq = [   18810,   21030] index = [     176917455,221140965] size =     44223510
	Batch   6 pq = [   21030,   23037] index = [     221140965,265363203] size =     44222238
	Batch   7 pq = [   23037,   24883] index = [     265363203,309594286] size =     44231083
	Batch   8 pq = [   24883,   26601] index = [     309594286,353819901] size =     44225615
	Batch   9 pq = [   26601,   28214] index = [     353819901,398029005] size =     44209104
	Batch  10 pq = [   28214,   29740] index = [     398029005,442248670] size =     44219665
	Batch  11 pq = [   29740,   31191] index = [     442248670,486454836] size =     44206166
	Batch  12 pq = [   31191,   32578] index = [     486454836,530679331] size =     44224495
	Batch  13 pq = [   32578,   33908] index = [     530679331,574893186] size =     44213855
	Batch  14 pq = [   33908,   35188] index = [     574893186,619115266] size =     44222080
	Batch  15 pq = [   35188,   35778] index = [     619115266,640050531] size =     20935265
  Task number: 58
  Buffer size: 11059200
  Buffer per thread: 2
  We computed 33463787 shell quartets total.
  Whereas there are 35158305 unique shell quartets.

  ==> DiskJK: Disk-Based J/K Matrices <==

    J tasked:                  Yes
    K tasked:                  Yes
    wK tasked:                  No
    Memory [MiB]:              375
    Schwarz Cutoff:          1E-12

    OpenMP threads:              1

  Minimum eigenvalue in the overlap matrix is 1.1028839359E-03.
  Using Symmetric Orthogonalization.

  SCF Guess: Superposition of Atomic Densities via on-the-fly atomic UHF.

  ==> Iterations <==

                        Total Energy        Delta E     RMS |[F,P]|

   @RHF iter SAD:  -588.29160593559402   -5.88292e+02   0.00000e+00
   @RHF iter   1:  -588.38894274628728   -9.73368e-02   2.89014e-03 DIIS
   @RHF iter   2:  -588.65524287439928   -2.66300e-01   1.67726e-03 DIIS
   @RHF iter   3:  -588.73579795415969   -8.05551e-02   3.92892e-04 DIIS
   @RHF iter   4:  -588.74249831050372   -6.70036e-03   1.41209e-04 DIIS
   @RHF iter   5:  -588.74342453623785   -9.26226e-04   2.83172e-05 DIIS
   @RHF iter   6:  -588.74349253989703   -6.80037e-05   1.44116e-05 DIIS
   @RHF iter   7:  -588.74350788686024   -1.53470e-05   5.09918e-06 DIIS
   @RHF iter   8:  -588.74351089325035   -3.00639e-06   2.04496e-06 DIIS
   @RHF iter   9:  -588.74351130951879   -4.16268e-07   7.76204e-07 DIIS
   @RHF iter  10:  -588.74351135767358   -4.81548e-08   2.52310e-07 DIIS
   @RHF iter  11:  -588.74351136244081   -4.76723e-09   8.09023e-08 DIIS
   @RHF iter  12:  -588.74351136302050   -5.79689e-10   3.78053e-08 DIIS
   @RHF iter  13:  -588.74351136313476   -1.14255e-10   1.10505e-08 DIIS
   @RHF iter  14:  -588.74351136314931   -1.45519e-11   4.34800e-09 DIIS
   @RHF iter  15:  -588.74351136314613    3.18323e-12   2.12948e-09 DIIS
   @RHF iter  16:  -588.74351136314965   -3.52429e-12   7.92140e-10 DIIS
   @RHF iter  17:  -588.74351136314829    1.36424e-12   3.10955e-10 DIIS
   @RHF iter  18:  -588.74351136315158   -3.29692e-12   1.01376e-10 DIIS
   @RHF iter  19:  -588.74351136314897    2.61480e-12   3.62443e-11 DIIS
  Energy and wave function converged.

  ==> Post-Iterations <==

    Orbital Energies [Eh]
    ---------------------

    Doubly Occupied:

       1A    -20.495462     2A    -15.631155     3A    -15.582144
       4A    -15.538004     5A    -11.340144     6A    -11.303129
       7A    -11.275724     8A    -11.260712     9A    -11.252716
      10A    -11.242323    11A    -11.235761    12A    -11.231274
      13A    -11.215799    14A     -1.356540    15A     -1.351826
      16A     -1.254736    17A     -1.163764    18A     -1.070960
      19A     -1.040553    20A     -1.006735    21A     -0.969612
      22A     -0.950709    23A     -0.853651    24A     -0.827337
      25A     -0.773571    26A     -0.756051    27A     -0.749739
      28A     -0.729822    29A     -0.673263    30A     -0.655058
      31A     -0.620154    32A     -0.615328    33A     -0.611009
      34A     -0.608271    35A     -0.598238    36A     -0.574144
      37A     -0.561164    38A     -0.549068    39A     -0.544193
      40A     -0.536138    41A     -0.530295    42A     -0.525896
      43A     -0.521569    44A     -0.483300    45A     -0.421133
      46A     -0.398207    47A     -0.390117    48A     -0.388127
      49A     -0.358764    50A     -0.319356

    Virtual:

      51A      0.146233    52A      0.171019    53A      0.176236
      54A      0.188702    55A      0.192650    56A      0.197491
      57A      0.209609    58A      0.215780    59A      0.227712
      60A      0.239057    61A      0.246587    62A      0.255181
      63A      0.263949    64A      0.272804    65A      0.278532
      66A      0.291196    67A      0.294680    68A      0.305322
      69A      0.327910    70A      0.332575    71A      0.347399
      72A      0.371772    73A      0.373385    74A      0.394370
      75A      0.408795    76A      0.424673    77A      0.441948
      78A      0.471934    79A      0.485093    80A      0.508853
      81A      0.524625    82A      0.546622    83A      0.583148
      84A      0.597132    85A      0.613700    86A      0.618369
      87A      0.640830    88A      0.654279    89A      0.660504
      90A      0.667278    91A      0.685276    92A      0.688820
      93A      0.698066    94A      0.709994    95A      0.734143
      96A      0.736464    97A      0.749265    98A      0.755104
      99A      0.775822   100A      0.794996   101A      0.801185
     102A      0.816865   103A      0.832931   104A      0.840287
     105A      0.849547   106A      0.860796   107A      0.863029
     108A      0.868635   109A      0.876029   110A      0.882703
     111A      0.888075   112A      0.897077   113A      0.901673
     114A      0.912955   115A      0.918766   116A      0.921225
     117A      0.936398   118A      0.946432   119A      0.959439
     120A      0.962098   121A      0.963265   122A      0.986413
     123A      1.002250   124A      1.016488   125A      1.033202
     126A      1.041042   127A      1.064709   128A      1.078019
     129A      1.085227   130A      1.102501   131A      1.108654
     132A      1.125253   133A      1.137553   134A      1.165001
     135A      1.174351   136A      1.175108   137A      1.217563
     138A      1.237718   139A      1.247460   140A      1.265973
     141A      1.276398   142A      1.307138   143A      1.317515
     144A      1.335263   145A      1.359237   146A      1.384253
     147A      1.410022   148A      1.420977   149A      1.429285
     150A      1.430856   151A      1.451666   152A      1.461564
     153A      1.485225   154A      1.511602   155A      1.517904
     156A      1.544333   157A      1.556004   158A      1.574991
     159A      1.593930   160A      1.598239   161A      1.614380
     162A      1.619063   163A      1.626680   164A      1.636421
     165A      1.666149   166A      1.684761   167A      1.697786
     168A      1.740160   169A      1.747713   170A      1.776286
     171A      1.794136   172A      1.803903   173A      1.813739
     174A      1.826690   175A      1.840126   176A      1.858402
     177A      1.868657   178A      1.881277   179A      1.887408
     180A      1.896269   181A      1.904696   182A      1.917344
     183A      1.926046   184A      1.931639   185A      1.944660
     186A      1.953709   187A      1.954672   188A      1.965259
     189A      1.973361   190A      1.976697   191A      2.005222
     192A      2.028009   193A      2.039748   194A      2.052816
     195A      2.062993   196A      2.075917   197A      2.100469
     198A      2.108243   199A      2.112969   200A      2.121398
     201A      2.126515   202A      2.131602   203A      2.140089
     204A      2.186845   205A      2.190478   206A      2.207290
     207A      2.214389   208A      2.233440   209A      2.253609
     210A      2.268908   211A      2.287423   212A      2.303103
     213A      2.333582   214A      2.348323   215A      2.353333
     216A      2.385234   217A      2.390785   218A      2.428628
     219A      2.435981   220A      2.443606   221A      2.450460
     222A      2.482904   223A      2.494091   224A      2.497351
     225A      2.524168   226A      2.542047   227A      2.579165
     228A      2.606188   229A      2.620230   230A      2.653458
     231A      2.690496   232A      2.703546   233A      2.716801
     234A      2.743459   235A      2.750249   236A      2.770204
     237A      2.776491   238A      2.782537   239A      2.791159
     240A      2.802132   241A      2.818230   242A      2.826468
     243A      2.832146   244A      2.840041   245A      2.850290
     246A      2.865145   247A      2.888970   248A      2.920318
     249A      2.941242   250A      2.970040   251A      2.982836
     252A      3.043999   253A      3.069529   254A      3.104378
     255A      3.127815   256A      3.155815   257A      3.168933
     258A      3.227986   259A      3.230644   260A      3.347984
     261A      3.387089   262A      3.470933   263A      3.523961
     264A      3.794723   265A      3.826153   266A      3.906360
     267A      5.209428

    Final Occupation by Irrep:
              A
    DOCC [    50 ]

  @RHF Final Energy:  -588.74351136314897

   => Energetics <=

    Nuclear Repulsion Energy =            794.0272831173151644
    One-Electron Energy =               -2375.6561048238563671
    Two-Electron Energy =                 992.8853103433922342
    Total Energy =                       -588.7435113631489685

Computation Completed

Properties will be evaluated at   0.000000,   0.000000,   0.000000 [a0]

Properties computed using the SCF density matrix

  Nuclear Dipole Moment: [e a0]
     X:     0.8217      Y:     0.0299      Z:    -0.1424

  Electronic Dipole Moment: [e a0]
     X:    -2.6078      Y:     0.1833      Z:    -0.8810

  Dipole Moment: [e a0]
     X:    -1.7861      Y:     0.2133      Z:    -1.0234     Total:     2.0695

  Dipole Moment: [D]
     X:    -4.5398      Y:     0.5420      Z:    -2.6012     Total:     5.2602

*** tstop() called on ds3 at Sun Apr 26 22:30:27 2020
Module time:
	user time   =     246.29 seconds =       4.10 minutes
	system time =     105.88 seconds =       1.76 minutes
	total time  =        346 seconds =       5.77 minutes
Total time:
	user time   =     246.29 seconds =       4.10 minutes
	system time =     105.88 seconds =       1.76 minutes
	total time  =        346 seconds =       5.77 minutes
                                     G D M A

                                 by Anthony Stone

                           version 2.2.06, 22 June 2011

               Distributed Multipoles from Gaussian wavefunctions

Starting at 22:30:27 on 26 Apr 2020

Using SCF density matrix from file ./SSI/SSI-072HIE-095PRO-1-dimer.test.31458.fchk

                         Distributed Multipole Analysis

Standard DMA

Positions and radii in angstrom
Multipole moments in atomic units, ea_0^k for rank k

C          x = -1.393093  y = -3.899082  z =  0.202967 angstrom
           Maximum rank =  0   Radius =  0.650 angstrom
                   Q00  =  -0.194958

C          x = -2.307093  y = -1.521082  z = -0.308033 angstrom
           Maximum rank =  0   Radius =  0.650 angstrom
                   Q00  =  -0.014628

C          x = -1.655093  y = -2.674082  z = -0.616033 angstrom
           Maximum rank =  0   Radius =  0.650 angstrom
                   Q00  =   0.223169

C          x = -1.646093  y = -1.396082  z = -2.405033 angstrom
           Maximum rank =  0   Radius =  0.650 angstrom
                   Q00  =   0.465067

N          x = -2.281093  y = -0.738082  z = -1.440033 angstrom
           Maximum rank =  0   Radius =  0.650 angstrom
                   Q00  =  -0.470380

N          x = -1.249093  y = -2.572082  z = -1.931033 angstrom
           Maximum rank =  0   Radius =  0.650 angstrom
                   Q00  =  -0.769312

H          x = -2.757093  y = -1.246082  z =  0.627967 angstrom
           Maximum rank =  0   Radius =  0.325 angstrom
                   Q00  =   0.100844

H          x = -2.692093  y =  0.184918  z = -1.544033 angstrom
           Maximum rank =  0   Radius =  0.325 angstrom
                   Q00  =   0.220763

H          x = -1.470093  y = -3.663082  z =  1.263967 angstrom
           Maximum rank =  0   Radius =  0.325 angstrom
                   Q00  =   0.092907

H          x = -0.369093  y = -4.220082  z =  0.007967 angstrom
           Maximum rank =  0   Radius =  0.325 angstrom
                   Q00  =   0.116045

H          x = -1.478093  y = -1.029082  z = -3.412033 angstrom
           Maximum rank =  0   Radius =  0.325 angstrom
                   Q00  =   0.124075

H          x = -2.076633  y = -4.724812  z = -0.043887 angstrom
           Maximum rank =  0   Radius =  0.325 angstrom
                   Q00  =   0.110658

C          x =  0.405907  y =  1.228918  z = -0.097033 angstrom
           Maximum rank =  0   Radius =  0.650 angstrom
                   Q00  =  -0.011802

C          x =  0.985907  y =  0.348918  z = -1.169033 angstrom
           Maximum rank =  0   Radius =  0.650 angstrom
                   Q00  =  -0.209021

C          x =  2.824907  y =  1.298918  z =  0.019967 angstrom
           Maximum rank =  0   Radius =  0.650 angstrom
                   Q00  =  -0.108014

C          x =  0.130907  y =  2.568918  z =  2.437967 angstrom
           Maximum rank =  0   Radius =  0.650 angstrom
                   Q00  =  -0.272209

C          x =  1.515907  y =  2.325918  z =  1.840967 angstrom
           Maximum rank =  0   Radius =  0.650 angstrom
                   Q00  =   0.753211

O          x =  2.514907  y =  2.750918  z =  2.428967 angstrom
           Maximum rank =  0   Radius =  0.650 angstrom
                   Q00  =  -0.780561

N          x =  1.570907  y =  1.639918  z =  0.688967 angstrom
           Maximum rank =  0   Radius =  0.650 angstrom
                   Q00  =  -0.457729

H          x = -0.072093  y =  2.102918  z = -0.543033 angstrom
           Maximum rank =  0   Radius =  0.325 angstrom
                   Q00  =   0.049199

H          x = -0.303093  y =  0.644918  z =  0.490967 angstrom
           Maximum rank =  0   Radius =  0.325 angstrom
                   Q00  =   0.087133

H          x =  0.417907  y =  0.431918  z = -2.096033 angstrom
           Maximum rank =  0   Radius =  0.325 angstrom
                   Q00  =   0.076801

H          x =  1.000907  y = -0.686082  z = -0.833033 angstrom
           Maximum rank =  0   Radius =  0.325 angstrom
                   Q00  =   0.114893

H          x =  3.328907  y =  0.495918  z =  0.557967 angstrom
           Maximum rank =  0   Radius =  0.325 angstrom
                   Q00  =   0.103960

H          x = -0.643093  y =  2.169918  z =  1.792967 angstrom
           Maximum rank =  0   Radius =  0.325 angstrom
                   Q00  =   0.073727

H          x =  2.018727  y =  0.699588  z = -1.311517 angstrom
           Maximum rank =  0   Radius =  0.325 angstrom
                   Q00  =   0.103542

H          x =  2.507767  y =  0.956558  z = -0.976131 angstrom
           Maximum rank =  0   Radius =  0.325 angstrom
                   Q00  =   0.109499

H          x =  3.493277  y =  2.166858  z = -0.079821 angstrom
           Maximum rank =  0   Radius =  0.325 angstrom
                   Q00  =   0.105050

H          x =  0.039567  y =  2.083518  z =  3.420843 angstrom
           Maximum rank =  0   Radius =  0.325 angstrom
                   Q00  =   0.130821

H          x = -0.088173  y =  3.644838  z =  2.504266 angstrom
           Maximum rank =  0   Radius =  0.325 angstrom
                   Q00  =   0.127251

Total multipoles referred to origin at
           x =   0.000000,  y =    0.000000,  z =    0.000000 angstrom
                   Q00  =  -0.000000

Finished at 22:30:27 on 26 Apr 2020

  DMA results are available in the Python driver through the
	  variable('DMA DISTRIBUTED MULTIPOLES')
  and
	  variable('DMA TOTAL MULTIPOLES')
  commands.

    Psi4 stopped on: Sunday, 26 April 2020 10:30PM
    Psi4 wall time for execution: 0:05:45.74

*** Psi4 exiting successfully. Buy a developer a beer!
