                               Psi4 1.3.2 release

  ==> Input File <==

--------------------------------------------------------------------------
import numpy as np
set {scf_type pk
basis cc-pvdz
d_convergence 10
gdma_switch   0
gdma_limit    0
gdma_origin   [ 0.0,  0.0,  0.0 ]
}
molecule test {
    units Angstrom
    1 1
    --
    1 1
    C               -0.161464954277914    -1.715056411347669    -1.051037147181986
    C               -0.454464954277914    -3.162056411347669    -1.400037147181986
    C                1.294535045722086    -1.627056411347668    -0.531037147181986
    C               -0.379464954277914    -0.801056411347668    -2.268037147181986
    H               -0.823464954277914    -1.394056411347669    -0.253037147181986
    H               -0.326464954277914    -3.771056411347668    -0.505037147181986
    H                0.267535045722086    -3.486056411347668    -2.147037147181986
    H                1.987535045722086    -1.996056411347668    -1.290037147181986
    H                1.547535045722086    -0.591056411347668    -0.308037147181986
    H                1.400535045722086    -2.221056411347668     0.377962852818014
    H               -1.442464954277914    -0.730056411347669    -2.501037147181986
    H               -0.024464954277914     0.199943588652332    -2.029037147181986
    H                0.171535045722086    -1.182056411347669    -3.128037147181986
    H               -1.458854954277914    -3.346696411347668    -1.808837147181986
    C               -0.096464954277914     2.833943588652332    -0.362037147181986
    C               -0.047464954277914     1.071943588652331     1.357962852818014
    N               -0.661464954277914     1.702943588652331     0.364962852818014
    N                1.180535045722086     1.443943588652332     1.761962852818014
    N               -0.732464954277914     0.134943588652332     2.012962852818014
    H               -1.601464954277914     1.383943588652331     0.102962852818014
    H                1.686535045722086     2.173943588652331     1.288962852818014
    H                1.627535045722086     0.976943588652332     2.539962852818014
    H               -1.667464954277914    -0.128056411347668     1.679962852818014
    H               -0.311464954277914    -0.394056411347668     2.766962852818014
    H                0.511535045722086     2.481943588652332    -1.198037147181986
    H                0.509535045722086     3.467943588652332     0.288962852818014
    H               -0.936784954277914     3.432033588652332    -0.744327147181986

}
e, wfn = energy('scf', return_wfn=True)
gdma(wfn)
dmavals = variable('DMA DISTRIBUTED MULTIPOLES')
charges = np.array(dmavals)
print(charges)
np.save('SSI-195LEU-269ARG-1-dimer.npy', np.array(charges))--------------------------------------------------------------------------

*** tstart() called on ds3
*** at Mon Apr 27 08:00:08 2020

   => Loading Basis Set <=

    Name: CC-PVDZ
    Role: ORBITAL
    Keyword: BASIS
    atoms 1-4, 15-16  entry C          line   138 file /theoryfs2/ds/metcalf/miniconda2/envs/tf2gpu/share/psi4/basis/cc-pvdz.gbs
    atoms 5-14, 20-27 entry H          line    22 file /theoryfs2/ds/metcalf/miniconda2/envs/tf2gpu/share/psi4/basis/cc-pvdz.gbs
    atoms 17-19       entry N          line   168 file /theoryfs2/ds/metcalf/miniconda2/envs/tf2gpu/share/psi4/basis/cc-pvdz.gbs

         ---------------------------------------------------------
                                   SCF
               by Justin Turney, Rob Parrish, Andy Simmonett
                          and Daniel G. A. Smith
                              RHF Reference
                        1 Threads,    500 MiB Core
         ---------------------------------------------------------

  ==> Geometry <==

    Molecular point group: c1
    Full point group: C1

    Geometry (in Angstrom), charge = 1, multiplicity = 1:

       Center              X                  Y                   Z               Mass
    ------------   -----------------  -----------------  -----------------  -----------------
         C           -0.161464954278    -1.715056411348    -1.051037147182    12.000000000000
         C           -0.454464954278    -3.162056411348    -1.400037147182    12.000000000000
         C            1.294535045722    -1.627056411348    -0.531037147182    12.000000000000
         C           -0.379464954278    -0.801056411348    -2.268037147182    12.000000000000
         H           -0.823464954278    -1.394056411348    -0.253037147182     1.007825032230
         H           -0.326464954278    -3.771056411348    -0.505037147182     1.007825032230
         H            0.267535045722    -3.486056411348    -2.147037147182     1.007825032230
         H            1.987535045722    -1.996056411348    -1.290037147182     1.007825032230
         H            1.547535045722    -0.591056411348    -0.308037147182     1.007825032230
         H            1.400535045722    -2.221056411348     0.377962852818     1.007825032230
         H           -1.442464954278    -0.730056411348    -2.501037147182     1.007825032230
         H           -0.024464954278     0.199943588652    -2.029037147182     1.007825032230
         H            0.171535045722    -1.182056411348    -3.128037147182     1.007825032230
         H           -1.458854954278    -3.346696411348    -1.808837147182     1.007825032230
         C           -0.096464954278     2.833943588652    -0.362037147182    12.000000000000
         C           -0.047464954278     1.071943588652     1.357962852818    12.000000000000
         N           -0.661464954278     1.702943588652     0.364962852818    14.003074004430
         N            1.180535045722     1.443943588652     1.761962852818    14.003074004430
         N           -0.732464954278     0.134943588652     2.012962852818    14.003074004430
         H           -1.601464954278     1.383943588652     0.102962852818     1.007825032230
         H            1.686535045722     2.173943588652     1.288962852818     1.007825032230
         H            1.627535045722     0.976943588652     2.539962852818     1.007825032230
         H           -1.667464954278    -0.128056411348     1.679962852818     1.007825032230
         H           -0.311464954278    -0.394056411348     2.766962852818     1.007825032230
         H            0.511535045722     2.481943588652    -1.198037147182     1.007825032230
         H            0.509535045722     3.467943588652     0.288962852818     1.007825032230
         H           -0.936784954278     3.432033588652    -0.744327147182     1.007825032230

  Running in c1 symmetry.

  Rotational constants: A =      0.06742  B =      0.02565  C =      0.02257 [cm^-1]
  Rotational constants: A =   2021.12268  B =    769.11734  C =    676.64433 [MHz]
  Nuclear repulsion =  496.778353247117423

  Charge       = 1
  Multiplicity = 1
  Electrons    = 74
  Nalpha       = 37
  Nbeta        = 37

  ==> Algorithm <==

  SCF Algorithm Type is PK.
  DIIS enabled.
  MOM disabled.
  Fractional occupation disabled.
  Guess Type is SAD.
  Energy threshold   = 1.00e-06
  Density threshold  = 1.00e-10
  Integral threshold = 0.00e+00

  ==> Primary Basis <==

  Basis Set: CC-PVDZ
    Blend: CC-PVDZ
    Number of shells: 108
    Number of basis function: 216
    Number of Cartesian functions: 225
    Spherical Harmonics?: true
    Max angular momentum: 2

  ==> Pre-Iterations <==

   -------------------------------------------------------
    Irrep   Nso     Nmo     Nalpha   Nbeta   Ndocc  Nsocc
   -------------------------------------------------------
     A        216     216       0       0       0       0
   -------------------------------------------------------
    Total     216     216      37      37      37       0
   -------------------------------------------------------

  ==> Integral Setup <==

  Using integral reordering PK algorithm.
  Sizing the integral batches needed.
  Building batch lookup table.
   Calculation information:
      Number of atoms:                  27
      Number of AO shells:             108
      Number of primitives:            288
      Number of atomic orbitals:       225
      Number of basis functions:       216

      Integral cutoff                 1.00e-12
      Number of threads:                 1

	Batch   1 pq = [       0,    9405] index = [             0,44231715] size =     44231715
	Batch   2 pq = [    9405,   13301] index = [      44231715,88464951] size =     44233236
	Batch   3 pq = [   13301,   16290] index = [      88464951,132690195] size =     44225244
	Batch   4 pq = [   16290,   18810] index = [     132690195,176917455] size =     44227260
	Batch   5 pq = [   18810,   21030] index = [     176917455,221140965] size =     44223510
	Batch   6 pq = [   21030,   23037] index = [     221140965,265363203] size =     44222238
	Batch   7 pq = [   23037,   23436] index = [     265363203,274634766] size =      9271563
  Task number: 25
  Buffer size: 11059200
  Buffer per thread: 2
  We computed 17387265 shell quartets total.
  Whereas there are 17325441 unique shell quartets.
     0.36 percent of shell quartets recomputed by reordering.

  ==> DiskJK: Disk-Based J/K Matrices <==

    J tasked:                  Yes
    K tasked:                  Yes
    wK tasked:                  No
    Memory [MiB]:              375
    Schwarz Cutoff:          1E-12

    OpenMP threads:              1

  Minimum eigenvalue in the overlap matrix is 3.2233292221E-03.
  Using Symmetric Orthogonalization.

  SCF Guess: Superposition of Atomic Densities via on-the-fly atomic UHF.

  ==> Iterations <==

                        Total Energy        Delta E     RMS |[F,P]|

   @RHF iter SAD:  -400.10214597984418   -4.00102e+02   0.00000e+00
   @RHF iter   1:  -400.61874955058613   -5.16604e-01   3.02125e-03 DIIS
   @RHF iter   2:  -400.84758857806213   -2.28839e-01   1.23754e-03 DIIS
   @RHF iter   3:  -400.88375101290370   -3.61624e-02   2.92888e-04 DIIS
   @RHF iter   4:  -400.88708654498726   -3.33553e-03   5.72753e-05 DIIS
   @RHF iter   5:  -400.88720020113590   -1.13656e-04   1.73330e-05 DIIS
   @RHF iter   6:  -400.88721277699938   -1.25759e-05   3.61758e-06 DIIS
   @RHF iter   7:  -400.88721353646258   -7.59463e-07   1.15078e-06 DIIS
   @RHF iter   8:  -400.88721359677641   -6.03138e-08   3.42580e-07 DIIS
   @RHF iter   9:  -400.88721360171860   -4.94219e-09   9.32551e-08 DIIS
   @RHF iter  10:  -400.88721360206574   -3.47143e-10   2.37282e-08 DIIS
   @RHF iter  11:  -400.88721360209757   -3.18323e-11   8.48776e-09 DIIS
   @RHF iter  12:  -400.88721360209865   -1.08002e-12   2.68792e-09 DIIS
   @RHF iter  13:  -400.88721360209831    3.41061e-13   8.64568e-10 DIIS
   @RHF iter  14:  -400.88721360209826    5.68434e-14   3.10509e-10 DIIS
   @RHF iter  15:  -400.88721360209962   -1.36424e-12   8.45781e-11 DIIS
  Energy and wave function converged.

  ==> Post-Iterations <==

    Orbital Energies [Eh]
    ---------------------

    Doubly Occupied:

       1A    -15.790256     2A    -15.788765     3A    -15.788406
       4A    -11.594267     5A    -11.440407     6A    -11.338649
       7A    -11.330464     8A    -11.325644     9A    -11.311849
      10A     -1.536532    11A     -1.397018    12A     -1.385813
      13A     -1.192427    14A     -1.140842    15A     -1.040610
      16A     -1.034914    17A     -1.029872    18A     -0.969507
      19A     -0.935827    20A     -0.878146    21A     -0.856335
      22A     -0.853915    23A     -0.823510    24A     -0.790860
      25A     -0.745423    26A     -0.737845    27A     -0.722876
      28A     -0.701932    29A     -0.692789    30A     -0.650501
      31A     -0.633930    32A     -0.621453    33A     -0.614588
      34A     -0.583128    35A     -0.573365    36A     -0.566396
      37A     -0.564162

    Virtual:

      38A     -0.014006    39A      0.018304    40A      0.022011
      41A      0.029698    42A      0.058542    43A      0.069528
      44A      0.090512    45A      0.108727    46A      0.116435
      47A      0.122465    48A      0.134530    49A      0.141463
      50A      0.156403    51A      0.162786    52A      0.178385
      53A      0.186362    54A      0.197586    55A      0.214165
      56A      0.217816    57A      0.245794    58A      0.259223
      59A      0.277126    60A      0.294612    61A      0.300207
      62A      0.324044    63A      0.341709    64A      0.427522
      65A      0.449338    66A      0.457464    67A      0.476050
      68A      0.493082    69A      0.497326    70A      0.513894
      71A      0.522765    72A      0.543735    73A      0.550816
      74A      0.568991    75A      0.586441    76A      0.637601
      77A      0.651268    78A      0.660587    79A      0.675301
      80A      0.685908    81A      0.705099    82A      0.715430
      83A      0.724002    84A      0.730086    85A      0.738043
      86A      0.746749    87A      0.756627    88A      0.768643
      89A      0.772830    90A      0.779479    91A      0.799016
      92A      0.803409    93A      0.807710    94A      0.813733
      95A      0.822602    96A      0.836081    97A      0.840082
      98A      0.850150    99A      0.860821   100A      0.875975
     101A      0.905826   102A      0.913631   103A      0.923173
     104A      0.946341   105A      0.960528   106A      0.994303
     107A      1.017455   108A      1.025451   109A      1.032988
     110A      1.068267   111A      1.100886   112A      1.119314
     113A      1.144282   114A      1.159597   115A      1.200498
     116A      1.206156   117A      1.246194   118A      1.259477
     119A      1.274541   120A      1.294773   121A      1.308731
     122A      1.387628   123A      1.432249   124A      1.451910
     125A      1.476562   126A      1.511914   127A      1.530489
     128A      1.536238   129A      1.553458   130A      1.577820
     131A      1.579933   132A      1.593424   133A      1.594628
     134A      1.610424   135A      1.617938   136A      1.622338
     137A      1.641006   138A      1.673456   139A      1.689517
     140A      1.701997   141A      1.728192   142A      1.741991
     143A      1.746153   144A      1.757851   145A      1.763254
     146A      1.774033   147A      1.784923   148A      1.814453
     149A      1.824679   150A      1.829505   151A      1.840288
     152A      1.853497   153A      1.858257   154A      1.867480
     155A      1.876456   156A      1.886065   157A      1.889141
     158A      1.903366   159A      1.933658   160A      1.953857
     161A      1.971476   162A      1.981203   163A      2.001885
     164A      2.010147   165A      2.031957   166A      2.041508
     167A      2.056173   168A      2.116157   169A      2.135254
     170A      2.151994   171A      2.161207   172A      2.166134
     173A      2.199920   174A      2.205342   175A      2.222266
     176A      2.243653   177A      2.254521   178A      2.259598
     179A      2.276968   180A      2.305386   181A      2.325364
     182A      2.337300   183A      2.365717   184A      2.406509
     185A      2.419795   186A      2.453939   187A      2.470024
     188A      2.498770   189A      2.512032   190A      2.540512
     191A      2.581609   192A      2.597209   193A      2.604405
     194A      2.615825   195A      2.626130   196A      2.659469
     197A      2.681087   198A      2.697932   199A      2.700017
     200A      2.712031   201A      2.728363   202A      2.730604
     203A      2.755589   204A      2.777630   205A      2.786842
     206A      2.809713   207A      2.836048   208A      2.883720
     209A      2.920159   210A      2.922977   211A      3.033715
     212A      3.053492   213A      3.081716   214A      3.101758
     215A      3.550549   216A      3.596901

    Final Occupation by Irrep:
              A
    DOCC [    37 ]

  @RHF Final Energy:  -400.88721360209962

   => Energetics <=

    Nuclear Repulsion Energy =            496.7783532471174226
    One-Electron Energy =               -1515.3646787753134504
    Two-Electron Energy =                 617.6991119260964069
    Total Energy =                       -400.8872136020996777

Computation Completed

Properties will be evaluated at   0.000000,   0.000000,   0.000000 [a0]

Properties computed using the SCF density matrix

  Nuclear Dipole Moment: [e a0]
     X:     1.0477      Y:    -4.8127      Z:    -6.4494

  Electronic Dipole Moment: [e a0]
     X:    -1.1603      Y:     6.7915      Z:     8.5426

  Dipole Moment: [e a0]
     X:    -0.1126      Y:     1.9788      Z:     2.0932     Total:     2.8827

  Dipole Moment: [D]
     X:    -0.2862      Y:     5.0296      Z:     5.3205     Total:     7.3271

*** tstop() called on ds3 at Mon Apr 27 08:03:36 2020
Module time:
	user time   =     108.95 seconds =       1.82 minutes
	system time =      35.26 seconds =       0.59 minutes
	total time  =        208 seconds =       3.47 minutes
Total time:
	user time   =     108.95 seconds =       1.82 minutes
	system time =      35.26 seconds =       0.59 minutes
	total time  =        208 seconds =       3.47 minutes
                                     G D M A

                                 by Anthony Stone

                           version 2.2.06, 22 June 2011

               Distributed Multipoles from Gaussian wavefunctions

Starting at 8:3:36 on 27 Apr 2020

Using SCF density matrix from file ./SSI/SSI-195LEU-269ARG-1-dimer.test.441.fchk

                         Distributed Multipole Analysis

Standard DMA

Positions and radii in angstrom
Multipole moments in atomic units, ea_0^k for rank k

C          x = -0.161465  y = -1.715056  z = -1.051037 angstrom
           Maximum rank =  0   Radius =  0.650 angstrom
                   Q00  =  -0.002769

C          x = -0.454465  y = -3.162056  z = -1.400037 angstrom
           Maximum rank =  0   Radius =  0.650 angstrom
                   Q00  =  -0.220170

C          x =  1.294535  y = -1.627056  z = -0.531037 angstrom
           Maximum rank =  0   Radius =  0.650 angstrom
                   Q00  =  -0.251424

C          x = -0.379465  y = -0.801056  z = -2.268037 angstrom
           Maximum rank =  0   Radius =  0.650 angstrom
                   Q00  =  -0.241744

H          x = -0.823465  y = -1.394056  z = -0.253037 angstrom
           Maximum rank =  0   Radius =  0.325 angstrom
                   Q00  =  -0.039260

H          x = -0.326465  y = -3.771056  z = -0.505037 angstrom
           Maximum rank =  0   Radius =  0.325 angstrom
                   Q00  =   0.083389

H          x =  0.267535  y = -3.486056  z = -2.147037 angstrom
           Maximum rank =  0   Radius =  0.325 angstrom
                   Q00  =   0.091004

H          x =  1.987535  y = -1.996056  z = -1.290037 angstrom
           Maximum rank =  0   Radius =  0.325 angstrom
                   Q00  =   0.109505

H          x =  1.547535  y = -0.591056  z = -0.308037 angstrom
           Maximum rank =  0   Radius =  0.325 angstrom
                   Q00  =   0.045951

H          x =  1.400535  y = -2.221056  z =  0.377963 angstrom
           Maximum rank =  0   Radius =  0.325 angstrom
                   Q00  =   0.082582

H          x = -1.442465  y = -0.730056  z = -2.501037 angstrom
           Maximum rank =  0   Radius =  0.325 angstrom
                   Q00  =   0.088036

H          x = -0.024465  y =  0.199944  z = -2.029037 angstrom
           Maximum rank =  0   Radius =  0.325 angstrom
                   Q00  =   0.047586

H          x =  0.171535  y = -1.182056  z = -3.128037 angstrom
           Maximum rank =  0   Radius =  0.325 angstrom
                   Q00  =   0.106593

H          x = -1.458855  y = -3.346696  z = -1.808837 angstrom
           Maximum rank =  0   Radius =  0.325 angstrom
                   Q00  =   0.092942

C          x = -0.096465  y =  2.833944  z = -0.362037 angstrom
           Maximum rank =  0   Radius =  0.650 angstrom
                   Q00  =  -0.125038

C          x = -0.047465  y =  1.071944  z =  1.357963 angstrom
           Maximum rank =  0   Radius =  0.650 angstrom
                   Q00  =   1.065245

N          x = -0.661465  y =  1.702944  z =  0.364963 angstrom
           Maximum rank =  0   Radius =  0.650 angstrom
                   Q00  =  -0.481256

N          x =  1.180535  y =  1.443944  z =  1.761963 angstrom
           Maximum rank =  0   Radius =  0.650 angstrom
                   Q00  =  -0.584322

N          x = -0.732465  y =  0.134944  z =  2.012963 angstrom
           Maximum rank =  0   Radius =  0.650 angstrom
                   Q00  =  -0.593902

H          x = -1.601465  y =  1.383944  z =  0.102963 angstrom
           Maximum rank =  0   Radius =  0.325 angstrom
                   Q00  =   0.244485

H          x =  1.686535  y =  2.173944  z =  1.288963 angstrom
           Maximum rank =  0   Radius =  0.325 angstrom
                   Q00  =   0.273511

H          x =  1.627535  y =  0.976944  z =  2.539963 angstrom
           Maximum rank =  0   Radius =  0.325 angstrom
                   Q00  =   0.269343

H          x = -1.667465  y = -0.128056  z =  1.679963 angstrom
           Maximum rank =  0   Radius =  0.325 angstrom
                   Q00  =   0.272849

H          x = -0.311465  y = -0.394056  z =  2.766963 angstrom
           Maximum rank =  0   Radius =  0.325 angstrom
                   Q00  =   0.269091

H          x =  0.511535  y =  2.481944  z = -1.198037 angstrom
           Maximum rank =  0   Radius =  0.325 angstrom
                   Q00  =   0.123052

H          x =  0.509535  y =  3.467944  z =  0.288963 angstrom
           Maximum rank =  0   Radius =  0.325 angstrom
                   Q00  =   0.113450

H          x = -0.936785  y =  3.432034  z = -0.744327 angstrom
           Maximum rank =  0   Radius =  0.325 angstrom
                   Q00  =   0.161272

Total multipoles referred to origin at
           x =   0.000000,  y =    0.000000,  z =    0.000000 angstrom
                   Q00  =   1.000000

Finished at 8:3:36 on 27 Apr 2020

  DMA results are available in the Python driver through the
	  variable('DMA DISTRIBUTED MULTIPOLES')
  and
	  variable('DMA TOTAL MULTIPOLES')
  commands.

    Psi4 stopped on: Monday, 27 April 2020 08:03AM
    Psi4 wall time for execution: 0:03:28.47

*** Psi4 exiting successfully. Buy a developer a beer!
