                               Psi4 1.3.2 release

  ==> Input File <==

--------------------------------------------------------------------------
import numpy as np
set {scf_type pk
basis cc-pvdz
d_convergence 10
gdma_switch   0
gdma_limit    0
gdma_origin   [ 0.0,  0.0,  0.0 ]
}
molecule test {
    units Angstrom
    0 1
    --
    0 1
    C               -0.240728763524757    -2.193170147445430    -0.929516786259851
    O               -0.187728763524757    -1.532170147445430     0.332483213740149
    H               -0.030728763524757    -0.580170147445430     0.199483213740149
    H                0.751271236475243    -2.550170147445430    -1.207516786259851
    H               -0.941868763524757    -3.028700147445430    -0.787096786259851
    H               -0.627218763524757    -1.507020147445430    -1.697516786259851
    C                0.142271236475243     2.473829852554570    -0.058516786259851
    O                0.226271236475243     1.207829852554571     0.609483213740149
    H                1.106271236475243     1.135829852554570     1.025483213740149
    H                0.435271236475243     3.275829852554570     0.617483213740149
    H                0.770611236475243     2.453719852554570    -0.961166786259851
    H               -0.902988763524757     2.606429852554570    -0.374496786259851

}
e, wfn = energy('scf', return_wfn=True)
gdma(wfn)
dmavals = variable('DMA DISTRIBUTED MULTIPOLES')
charges = np.array(dmavals)
print(charges)
np.save('SSI-025THR-045THR-1-dimer.npy', np.array(charges))--------------------------------------------------------------------------

*** tstart() called on ds3
*** at Mon Apr 27 23:21:18 2020

   => Loading Basis Set <=

    Name: CC-PVDZ
    Role: ORBITAL
    Keyword: BASIS
    atoms 1, 7      entry C          line   138 file /theoryfs2/ds/metcalf/miniconda2/envs/tf2gpu/share/psi4/basis/cc-pvdz.gbs
    atoms 2, 8      entry O          line   198 file /theoryfs2/ds/metcalf/miniconda2/envs/tf2gpu/share/psi4/basis/cc-pvdz.gbs
    atoms 3-6, 9-12 entry H          line    22 file /theoryfs2/ds/metcalf/miniconda2/envs/tf2gpu/share/psi4/basis/cc-pvdz.gbs

         ---------------------------------------------------------
                                   SCF
               by Justin Turney, Rob Parrish, Andy Simmonett
                          and Daniel G. A. Smith
                              RHF Reference
                        1 Threads,    500 MiB Core
         ---------------------------------------------------------

  ==> Geometry <==

    Molecular point group: c1
    Full point group: C1

    Geometry (in Angstrom), charge = 0, multiplicity = 1:

       Center              X                  Y                   Z               Mass
    ------------   -----------------  -----------------  -----------------  -----------------
         C           -0.240728763525    -2.193170147445    -0.929516786260    12.000000000000
         O           -0.187728763525    -1.532170147445     0.332483213740    15.994914619570
         H           -0.030728763525    -0.580170147445     0.199483213740     1.007825032230
         H            0.751271236475    -2.550170147445    -1.207516786260     1.007825032230
         H           -0.941868763525    -3.028700147445    -0.787096786260     1.007825032230
         H           -0.627218763525    -1.507020147445    -1.697516786260     1.007825032230
         C            0.142271236475     2.473829852555    -0.058516786260    12.000000000000
         O            0.226271236475     1.207829852555     0.609483213740    15.994914619570
         H            1.106271236475     1.135829852555     1.025483213740     1.007825032230
         H            0.435271236475     3.275829852555     0.617483213740     1.007825032230
         H            0.770611236475     2.453719852555    -0.961166786260     1.007825032230
         H           -0.902988763525     2.606429852555    -0.374496786260     1.007825032230

  Running in c1 symmetry.

  Rotational constants: A =      0.68030  B =      0.06805  C =      0.06388 [cm^-1]
  Rotational constants: A =  20394.93013  B =   2040.11597  C =   1915.08273 [MHz]
  Nuclear repulsion =  126.500606061581948

  Charge       = 0
  Multiplicity = 1
  Electrons    = 36
  Nalpha       = 18
  Nbeta        = 18

  ==> Algorithm <==

  SCF Algorithm Type is PK.
  DIIS enabled.
  MOM disabled.
  Fractional occupation disabled.
  Guess Type is SAD.
  Energy threshold   = 1.00e-06
  Density threshold  = 1.00e-10
  Integral threshold = 0.00e+00

  ==> Primary Basis <==

  Basis Set: CC-PVDZ
    Blend: CC-PVDZ
    Number of shells: 48
    Number of basis function: 96
    Number of Cartesian functions: 100
    Spherical Harmonics?: true
    Max angular momentum: 2

  ==> Pre-Iterations <==

   -------------------------------------------------------
    Irrep   Nso     Nmo     Nalpha   Nbeta   Ndocc  Nsocc
   -------------------------------------------------------
     A         96      96       0       0       0       0
   -------------------------------------------------------
    Total      96      96      18      18      18       0
   -------------------------------------------------------

  ==> Integral Setup <==

  Using in-core PK algorithm.
   Calculation information:
      Number of atoms:                  12
      Number of AO shells:              48
      Number of primitives:            128
      Number of atomic orbitals:       100
      Number of basis functions:        96

      Integral cutoff                 1.00e-12
      Number of threads:                 1

  Performing in-core PK
  Using 21682992 doubles for integral storage.
  We computed 577977 shell quartets total.
  Whereas there are 692076 unique shell quartets.

  ==> DiskJK: Disk-Based J/K Matrices <==

    J tasked:                  Yes
    K tasked:                  Yes
    wK tasked:                  No
    Memory [MiB]:              375
    Schwarz Cutoff:          1E-12

    OpenMP threads:              1

  Minimum eigenvalue in the overlap matrix is 1.5959143483E-02.
  Using Symmetric Orthogonalization.

  SCF Guess: Superposition of Atomic Densities via on-the-fly atomic UHF.

  ==> Iterations <==

                        Total Energy        Delta E     RMS |[F,P]|

   @RHF iter SAD:  -228.80816776017397   -2.28808e+02   0.00000e+00
   @RHF iter   1:  -229.97854851081289   -1.17038e+00   5.08477e-03 DIIS
   @RHF iter   2:  -230.07646303406190   -9.79145e-02   2.59073e-03 DIIS
   @RHF iter   3:  -230.09905785792307   -2.25948e-02   4.66273e-04 DIIS
   @RHF iter   4:  -230.10051113772892   -1.45328e-03   1.14919e-04 DIIS
   @RHF iter   5:  -230.10059731933077   -8.61816e-05   2.99734e-05 DIIS
   @RHF iter   6:  -230.10060385868155   -6.53935e-06   7.47152e-06 DIIS
   @RHF iter   7:  -230.10060448424258   -6.25561e-07   2.01073e-06 DIIS
   @RHF iter   8:  -230.10060451862546   -3.43829e-08   8.78360e-07 DIIS
   @RHF iter   9:  -230.10060452408464   -5.45919e-09   1.30716e-07 DIIS
   @RHF iter  10:  -230.10060452429479   -2.10150e-10   2.79320e-08 DIIS
   @RHF iter  11:  -230.10060452430460   -9.80549e-12   7.44616e-09 DIIS
   @RHF iter  12:  -230.10060452430531   -7.10543e-13   1.69323e-09 DIIS
   @RHF iter  13:  -230.10060452430571   -3.97904e-13   4.44171e-10 DIIS
   @RHF iter  14:  -230.10060452430579   -8.52651e-14   1.68892e-10 DIIS
   @RHF iter  15:  -230.10060452430537    4.26326e-13   5.97405e-11 DIIS
  Energy and wave function converged.

  ==> Post-Iterations <==

    Orbital Energies [Eh]
    ---------------------

    Doubly Occupied:

       1A    -20.577017     2A    -20.509756     3A    -11.294742
       4A    -11.256754     5A     -1.369079     6A     -1.310346
       7A     -0.938534     8A     -0.896068     9A     -0.699074
      10A     -0.662019    11A     -0.632831    12A     -0.601701
      13A     -0.593646    14A     -0.555740    15A     -0.516344
      16A     -0.473985    17A     -0.456590    18A     -0.412284

    Virtual:

      19A      0.165458    20A      0.209349    21A      0.212468
      22A      0.249779    23A      0.253249    24A      0.274220
      25A      0.280883    26A      0.318535    27A      0.346183
      28A      0.441505    29A      0.609717    30A      0.622156
      31A      0.650348    32A      0.658758    33A      0.703307
      34A      0.756935    35A      0.800642    36A      0.834038
      37A      0.850551    38A      0.870452    39A      0.878423
      40A      0.888831    41A      0.895759    42A      0.923234
      43A      1.107376    44A      1.128940    45A      1.149885
      46A      1.156899    47A      1.169509    48A      1.189172
      49A      1.285571    50A      1.330731    51A      1.366817
      52A      1.419031    53A      1.492684    54A      1.513138
      55A      1.624267    56A      1.646678    57A      1.660837
      58A      1.676456    59A      1.695372    60A      1.758325
      61A      1.836223    62A      1.864901    63A      1.879352
      64A      1.910491    65A      1.915443    66A      1.935557
      67A      1.949881    68A      1.981463    69A      2.004763
      70A      2.105193    71A      2.119934    72A      2.157467
      73A      2.243690    74A      2.293055    75A      2.354546
      76A      2.370567    77A      2.419603    78A      2.439786
      79A      2.473691    80A      2.690388    81A      2.728563
      82A      2.743777    83A      2.752483    84A      2.759615
      85A      2.795798    86A      2.814211    87A      3.266566
      88A      3.326997    89A      3.355214    90A      3.404767
      91A      3.425208    92A      3.460655    93A      3.555662
      94A      3.641156    95A      4.061734    96A      4.149990

    Final Occupation by Irrep:
              A
    DOCC [    18 ]

  @RHF Final Energy:  -230.10060452430537

   => Energetics <=

    Nuclear Repulsion Energy =            126.5006060615819479
    One-Electron Energy =                -565.6894046837693395
    Two-Electron Energy =                 209.0881940978820239
    Total Energy =                       -230.1006045243053677

Computation Completed

Properties will be evaluated at   0.000000,   0.000000,   0.000000 [a0]

Properties computed using the SCF density matrix

  Nuclear Dipole Moment: [e a0]
     X:     0.5257      Y:     1.6913      Z:    -2.9816

  Electronic Dipole Moment: [e a0]
     X:     0.0852      Y:    -0.5094      Z:     2.3948

  Dipole Moment: [e a0]
     X:     0.6109      Y:     1.1818      Z:    -0.5868     Total:     1.4541

  Dipole Moment: [D]
     X:     1.5529      Y:     3.0039      Z:    -1.4916     Total:     3.6959

*** tstop() called on ds3 at Mon Apr 27 23:21:24 2020
Module time:
	user time   =       5.97 seconds =       0.10 minutes
	system time =       0.13 seconds =       0.00 minutes
	total time  =          6 seconds =       0.10 minutes
Total time:
	user time   =       5.97 seconds =       0.10 minutes
	system time =       0.13 seconds =       0.00 minutes
	total time  =          6 seconds =       0.10 minutes
                                     G D M A

                                 by Anthony Stone

                           version 2.2.06, 22 June 2011

               Distributed Multipoles from Gaussian wavefunctions

Starting at 23:21:24 on 27 Apr 2020

Using SCF density matrix from file ./SSI/SSI-025THR-045THR-1-dimer.test.2474.fchk

                         Distributed Multipole Analysis

Standard DMA

Positions and radii in angstrom
Multipole moments in atomic units, ea_0^k for rank k

C          x = -0.240729  y = -2.193170  z = -0.929517 angstrom
           Maximum rank =  0   Radius =  0.650 angstrom
                   Q00  =  -0.030878

O          x = -0.187729  y = -1.532170  z =  0.332483 angstrom
           Maximum rank =  0   Radius =  0.650 angstrom
                   Q00  =  -0.657189

H          x = -0.030729  y = -0.580170  z =  0.199483 angstrom
           Maximum rank =  0   Radius =  0.325 angstrom
                   Q00  =   0.457641

H          x =  0.751271  y = -2.550170  z = -1.207517 angstrom
           Maximum rank =  0   Radius =  0.325 angstrom
                   Q00  =   0.066591

H          x = -0.941869  y = -3.028700  z = -0.787097 angstrom
           Maximum rank =  0   Radius =  0.325 angstrom
                   Q00  =   0.098092

H          x = -0.627219  y = -1.507020  z = -1.697517 angstrom
           Maximum rank =  0   Radius =  0.325 angstrom
                   Q00  =   0.058824

C          x =  0.142271  y =  2.473830  z = -0.058517 angstrom
           Maximum rank =  0   Radius =  0.650 angstrom
                   Q00  =  -0.053557

O          x =  0.226271  y =  1.207830  z =  0.609483 angstrom
           Maximum rank =  0   Radius =  0.650 angstrom
                   Q00  =  -0.625160

H          x =  1.106271  y =  1.135830  z =  1.025483 angstrom
           Maximum rank =  0   Radius =  0.325 angstrom
                   Q00  =   0.395278

H          x =  0.435271  y =  3.275830  z =  0.617483 angstrom
           Maximum rank =  0   Radius =  0.325 angstrom
                   Q00  =   0.087793

H          x =  0.770611  y =  2.453720  z = -0.961167 angstrom
           Maximum rank =  0   Radius =  0.325 angstrom
                   Q00  =   0.079103

H          x = -0.902989  y =  2.606430  z = -0.374497 angstrom
           Maximum rank =  0   Radius =  0.325 angstrom
                   Q00  =   0.123462

Total multipoles referred to origin at
           x =   0.000000,  y =    0.000000,  z =    0.000000 angstrom
                   Q00  =  -0.000000

Finished at 23:21:24 on 27 Apr 2020

  DMA results are available in the Python driver through the
	  variable('DMA DISTRIBUTED MULTIPOLES')
  and
	  variable('DMA TOTAL MULTIPOLES')
  commands.

    Psi4 stopped on: Monday, 27 April 2020 11:21PM
    Psi4 wall time for execution: 0:00:06.45

*** Psi4 exiting successfully. Buy a developer a beer!
