                               Psi4 1.3.2 release

  ==> Input File <==

--------------------------------------------------------------------------
import numpy as np
set {scf_type pk
basis cc-pvdz
d_convergence 10
gdma_switch   0
gdma_limit    0
gdma_origin   [ 0.0,  0.0,  0.0 ]
}
molecule test {
    units Angstrom
    0 1
    --
    0 1
    C                0.114072347135119    -1.304754389473671    -3.015457572787662
    C               -0.521927652864881    -0.150754389473671     0.542542427212338
    C               -0.040927652864881    -0.864754389473671    -0.533457572787662
    C               -1.396927652864881     0.907245610526329     0.371542427212338
    C               -0.411927652864881    -0.528754389473671    -1.839457572787662
    C               -1.774927652864881     1.254245610526329    -0.921457572787662
    C               -1.272927652864881     0.540245610526329    -2.012457572787662
    O               -1.856927652864881     1.562245610526329     1.481542427212338
    H               -0.212927652864881    -0.436754389473671     1.536542427212338
    H                0.677072347135119    -1.650754389473671    -0.345457572787662
    H               -1.176927652864881     1.604245610526329     2.162542427212338
    H               -2.439927652864881     2.093245610526329    -1.070457572787662
    H                1.124072347135119    -0.970754389473671    -3.228457572787662
    H               -0.487927652864881    -1.069754389473671    -3.896457572787662
    H               -1.507927652864881     0.855245610526329    -3.012457572787662
    H                0.107622347135119    -2.394674389473671    -2.867027572787662
    C                2.700072347135119    -0.981754389473671     2.076542427212338
    C                3.781072347135119    -0.432754389473671     2.982542427212338
    H                2.057072347135119    -1.685754389473671     2.597542427212338
    H                2.098072347135119    -0.151754389473671     1.705542427212338
    H                3.154072347135119    -1.483754389473671     1.220542427212338
    H                3.301072347135119     0.101245610526329     3.802542427212338
    H                4.341392347135119    -1.285074389473671     3.394352427212338
    H                4.437702347135120     0.277035610526329     2.458102427212338

}
e, wfn = energy('scf', return_wfn=True)
gdma(wfn)
dmavals = variable('DMA DISTRIBUTED MULTIPOLES')
charges = np.array(dmavals)
print(charges)
np.save('SSI-172TYR-193VAL-1-dimer.npy', np.array(charges))--------------------------------------------------------------------------

*** tstart() called on ds3
*** at Tue Apr 28 14:11:17 2020

   => Loading Basis Set <=

    Name: CC-PVDZ
    Role: ORBITAL
    Keyword: BASIS
    atoms 1-7, 17-18  entry C          line   138 file /theoryfs2/ds/metcalf/miniconda2/envs/tf2gpu/share/psi4/basis/cc-pvdz.gbs
    atoms 8           entry O          line   198 file /theoryfs2/ds/metcalf/miniconda2/envs/tf2gpu/share/psi4/basis/cc-pvdz.gbs
    atoms 9-16, 19-24 entry H          line    22 file /theoryfs2/ds/metcalf/miniconda2/envs/tf2gpu/share/psi4/basis/cc-pvdz.gbs

         ---------------------------------------------------------
                                   SCF
               by Justin Turney, Rob Parrish, Andy Simmonett
                          and Daniel G. A. Smith
                              RHF Reference
                        1 Threads,    500 MiB Core
         ---------------------------------------------------------

  ==> Geometry <==

    Molecular point group: c1
    Full point group: C1

    Geometry (in Angstrom), charge = 0, multiplicity = 1:

       Center              X                  Y                   Z               Mass
    ------------   -----------------  -----------------  -----------------  -----------------
         C            0.114072347135    -1.304754389474    -3.015457572788    12.000000000000
         C           -0.521927652865    -0.150754389474     0.542542427212    12.000000000000
         C           -0.040927652865    -0.864754389474    -0.533457572788    12.000000000000
         C           -1.396927652865     0.907245610526     0.371542427212    12.000000000000
         C           -0.411927652865    -0.528754389474    -1.839457572788    12.000000000000
         C           -1.774927652865     1.254245610526    -0.921457572788    12.000000000000
         C           -1.272927652865     0.540245610526    -2.012457572788    12.000000000000
         O           -1.856927652865     1.562245610526     1.481542427212    15.994914619570
         H           -0.212927652865    -0.436754389474     1.536542427212     1.007825032230
         H            0.677072347135    -1.650754389474    -0.345457572788     1.007825032230
         H           -1.176927652865     1.604245610526     2.162542427212     1.007825032230
         H           -2.439927652865     2.093245610526    -1.070457572788     1.007825032230
         H            1.124072347135    -0.970754389474    -3.228457572788     1.007825032230
         H           -0.487927652865    -1.069754389474    -3.896457572788     1.007825032230
         H           -1.507927652865     0.855245610526    -3.012457572788     1.007825032230
         H            0.107622347135    -2.394674389474    -2.867027572788     1.007825032230
         C            2.700072347135    -0.981754389474     2.076542427212    12.000000000000
         C            3.781072347135    -0.432754389474     2.982542427212    12.000000000000
         H            2.057072347135    -1.685754389474     2.597542427212     1.007825032230
         H            2.098072347135    -0.151754389474     1.705542427212     1.007825032230
         H            3.154072347135    -1.483754389474     1.220542427212     1.007825032230
         H            3.301072347135     0.101245610526     3.802542427212     1.007825032230
         H            4.341392347135    -1.285074389474     3.394352427212     1.007825032230
         H            4.437702347135     0.277035610526     2.458102427212     1.007825032230

  Running in c1 symmetry.

  Rotational constants: A =      0.04613  B =      0.02134  C =      0.01526 [cm^-1]
  Rotational constants: A =   1382.84380  B =    639.65993  C =    457.57944 [MHz]
  Nuclear repulsion =  487.928004922650018

  Charge       = 0
  Multiplicity = 1
  Electrons    = 76
  Nalpha       = 38
  Nbeta        = 38

  ==> Algorithm <==

  SCF Algorithm Type is PK.
  DIIS enabled.
  MOM disabled.
  Fractional occupation disabled.
  Guess Type is SAD.
  Energy threshold   = 1.00e-06
  Density threshold  = 1.00e-10
  Integral threshold = 0.00e+00

  ==> Primary Basis <==

  Basis Set: CC-PVDZ
    Blend: CC-PVDZ
    Number of shells: 102
    Number of basis function: 210
    Number of Cartesian functions: 220
    Spherical Harmonics?: true
    Max angular momentum: 2

  ==> Pre-Iterations <==

   -------------------------------------------------------
    Irrep   Nso     Nmo     Nalpha   Nbeta   Ndocc  Nsocc
   -------------------------------------------------------
     A        210     210       0       0       0       0
   -------------------------------------------------------
    Total     210     210      38      38      38       0
   -------------------------------------------------------

  ==> Integral Setup <==

  Using integral reordering PK algorithm.
  Sizing the integral batches needed.
  Building batch lookup table.
   Calculation information:
      Number of atoms:                  24
      Number of AO shells:             102
      Number of primitives:            290
      Number of atomic orbitals:       220
      Number of basis functions:       210

      Integral cutoff                 1.00e-12
      Number of threads:                 1

	Batch   1 pq = [       0,    9405] index = [             0,44231715] size =     44231715
	Batch   2 pq = [    9405,   13301] index = [      44231715,88464951] size =     44233236
	Batch   3 pq = [   13301,   16290] index = [      88464951,132690195] size =     44225244
	Batch   4 pq = [   16290,   18810] index = [     132690195,176917455] size =     44227260
	Batch   5 pq = [   18810,   21030] index = [     176917455,221140965] size =     44223510
	Batch   6 pq = [   21030,   22155] index = [     221140965,245433090] size =     24292125
  Task number: 23
  Buffer size: 11059200
  Buffer per thread: 2
  We computed 10862195 shell quartets total.
  Whereas there are 13799631 unique shell quartets.

  ==> DiskJK: Disk-Based J/K Matrices <==

    J tasked:                  Yes
    K tasked:                  Yes
    wK tasked:                  No
    Memory [MiB]:              375
    Schwarz Cutoff:          1E-12

    OpenMP threads:              1

  Minimum eigenvalue in the overlap matrix is 3.1459673340E-04.
  Using Symmetric Orthogonalization.

  SCF Guess: Superposition of Atomic Densities via on-the-fly atomic UHF.

  ==> Iterations <==

                        Total Energy        Delta E     RMS |[F,P]|

   @RHF iter SAD:  -422.76229879989472   -4.22762e+02   0.00000e+00
   @RHF iter   1:  -423.59506611649823   -8.32767e-01   3.00202e-03 DIIS
   @RHF iter   2:  -423.81386758123813   -2.18801e-01   1.27137e-03 DIIS
   @RHF iter   3:  -423.84936453672555   -3.54970e-02   2.84522e-04 DIIS
   @RHF iter   4:  -423.85225508815654   -2.89055e-03   1.17955e-04 DIIS
   @RHF iter   5:  -423.85261114237153   -3.56054e-04   2.08402e-05 DIIS
   @RHF iter   6:  -423.85262853002519   -1.73877e-05   6.19765e-06 DIIS
   @RHF iter   7:  -423.85263009933198   -1.56931e-06   1.93660e-06 DIIS
   @RHF iter   8:  -423.85263031605211   -2.16720e-07   7.79882e-07 DIIS
   @RHF iter   9:  -423.85263035501629   -3.89642e-08   2.90229e-07 DIIS
   @RHF iter  10:  -423.85263036360016   -8.58387e-09   1.31526e-07 DIIS
   @RHF iter  11:  -423.85263036605778   -2.45763e-09   5.45564e-08 DIIS
   @RHF iter  12:  -423.85263036644523   -3.87445e-10   2.28730e-08 DIIS
   @RHF iter  13:  -423.85263036649906   -5.38307e-11   7.26111e-09 DIIS
   @RHF iter  14:  -423.85263036650178   -2.72848e-12   2.21280e-09 DIIS
   @RHF iter  15:  -423.85263036650349   -1.70530e-12   7.26557e-10 DIIS
   @RHF iter  16:  -423.85263036650383   -3.41061e-13   3.62079e-10 DIIS
   @RHF iter  17:  -423.85263036650423   -3.97904e-13   1.69123e-10 DIIS
   @RHF iter  18:  -423.85263036650417    5.68434e-14   7.07641e-11 DIIS
  Energy and wave function converged.

  ==> Post-Iterations <==

    Orbital Energies [Eh]
    ---------------------

    Doubly Occupied:

       1A    -20.578718     2A    -11.293832     3A    -11.235141
       4A    -11.234424     5A    -11.233250     6A    -11.231229
       7A    -11.228223     8A    -11.227587     9A    -11.222819
      10A    -11.220191    11A     -1.394042    12A     -1.152601
      13A     -1.038885    14A     -1.027777    15A     -1.016798
      16A     -0.927605    17A     -0.841137    18A     -0.839412
      19A     -0.802212    20A     -0.731052    21A     -0.665448
      22A     -0.641736    23A     -0.617061    24A     -0.607635
      25A     -0.603233    26A     -0.584280    27A     -0.583531
      28A     -0.574757    29A     -0.556380    30A     -0.520803
      31A     -0.510271    32A     -0.498271    33A     -0.490126
      34A     -0.487216    35A     -0.480969    36A     -0.465727
      37A     -0.337091    38A     -0.305543

    Virtual:

      39A      0.131910    40A      0.150546    41A      0.171863
      42A      0.185227    43A      0.197612    44A      0.209374
      45A      0.216729    46A      0.240423    47A      0.254672
      48A      0.257627    49A      0.266399    50A      0.277590
      51A      0.284274    52A      0.291755    53A      0.299096
      54A      0.302075    55A      0.362892    56A      0.378043
      57A      0.405567    58A      0.429270    59A      0.458190
      60A      0.486048    61A      0.500082    62A      0.512790
      63A      0.593460    64A      0.600144    65A      0.612357
      66A      0.628216    67A      0.632845    68A      0.655436
      69A      0.665283    70A      0.675661    71A      0.689663
      72A      0.697544    73A      0.709966    74A      0.717882
      75A      0.736978    76A      0.742136    77A      0.770980
      78A      0.778313    79A      0.788373    80A      0.789774
      81A      0.796048    82A      0.832037    83A      0.850633
      84A      0.857425    85A      0.878006    86A      0.881002
      87A      0.882829    88A      0.888344    89A      0.889588
      90A      0.896160    91A      0.903801    92A      0.905916
      93A      0.914351    94A      0.926699    95A      0.940160
      96A      0.943578    97A      0.951328    98A      0.955049
      99A      0.997922   100A      1.022741   101A      1.043792
     102A      1.057396   103A      1.119078   104A      1.124762
     105A      1.133742   106A      1.146975   107A      1.165682
     108A      1.183693   109A      1.204146   110A      1.224501
     111A      1.245938   112A      1.267331   113A      1.271664
     114A      1.280975   115A      1.298704   116A      1.312913
     117A      1.330352   118A      1.345332   119A      1.372585
     120A      1.395186   121A      1.463292   122A      1.469191
     123A      1.492283   124A      1.508197   125A      1.534960
     126A      1.562192   127A      1.583867   128A      1.625150
     129A      1.636265   130A      1.672696   131A      1.675357
     132A      1.692191   133A      1.697087   134A      1.733671
     135A      1.748629   136A      1.786557   137A      1.799477
     138A      1.814016   139A      1.852807   140A      1.878715
     141A      1.881901   142A      1.889984   143A      1.902512
     144A      1.911949   145A      1.914811   146A      1.926041
     147A      1.928297   148A      1.936450   149A      1.939686
     150A      1.945848   151A      1.951919   152A      1.963106
     153A      1.972859   154A      1.983949   155A      2.001957
     156A      2.017904   157A      2.037647   158A      2.057655
     159A      2.068944   160A      2.076543   161A      2.080707
     162A      2.092458   163A      2.121438   164A      2.129806
     165A      2.154976   166A      2.190121   167A      2.226658
     168A      2.238073   169A      2.262284   170A      2.282025
     171A      2.301306   172A      2.305385   173A      2.331599
     174A      2.350172   175A      2.358854   176A      2.406128
     177A      2.441796   178A      2.454792   179A      2.472012
     180A      2.488872   181A      2.492423   182A      2.530921
     183A      2.550409   184A      2.564196   185A      2.585420
     186A      2.610183   187A      2.632662   188A      2.751549
     189A      2.757821   190A      2.771174   191A      2.784457
     192A      2.788197   193A      2.822946   194A      2.840627
     195A      2.850954   196A      2.865188   197A      2.896885
     198A      2.949842   199A      2.963611   200A      2.981277
     201A      3.006192   202A      3.088460   203A      3.137060
     204A      3.291534   205A      3.300837   206A      3.375997
     207A      3.572541   208A      3.658224   209A      3.993768
     210A      4.132883

    Final Occupation by Irrep:
              A
    DOCC [    38 ]

  @RHF Final Energy:  -423.85263036650417

   => Energetics <=

    Nuclear Repulsion Energy =            487.9280049226500182
    One-Electron Energy =               -1541.5472441311769671
    Two-Electron Energy =                 629.7666088420228334
    Total Energy =                       -423.8526303665041723

Computation Completed

Properties will be evaluated at   0.000000,   0.000000,   0.000000 [a0]

Properties computed using the SCF density matrix

  Nuclear Dipole Moment: [e a0]
     X:    14.4961      Y:    -5.8029      Z:     4.1858

  Electronic Dipole Moment: [e a0]
     X:   -13.8489      Y:     5.6422      Z:    -4.1455

  Dipole Moment: [e a0]
     X:     0.6472      Y:    -0.1607      Z:     0.0403     Total:     0.6681

  Dipole Moment: [D]
     X:     1.6450      Y:    -0.4085      Z:     0.1024     Total:     1.6980

*** tstop() called on ds3 at Tue Apr 28 14:13:21 2020
Module time:
	user time   =      85.13 seconds =       1.42 minutes
	system time =      45.49 seconds =       0.76 minutes
	total time  =        124 seconds =       2.07 minutes
Total time:
	user time   =      85.13 seconds =       1.42 minutes
	system time =      45.49 seconds =       0.76 minutes
	total time  =        124 seconds =       2.07 minutes
                                     G D M A

                                 by Anthony Stone

                           version 2.2.06, 22 June 2011

               Distributed Multipoles from Gaussian wavefunctions

Starting at 14:13:21 on 28 Apr 2020

Using SCF density matrix from file ./SSI/SSI-172TYR-193VAL-1-dimer.test.4720.fchk

                         Distributed Multipole Analysis

Standard DMA

Positions and radii in angstrom
Multipole moments in atomic units, ea_0^k for rank k

C          x =  0.114072  y = -1.304754  z = -3.015458 angstrom
           Maximum rank =  0   Radius =  0.650 angstrom
                   Q00  =  -0.204421

C          x = -0.521928  y = -0.150754  z =  0.542542 angstrom
           Maximum rank =  0   Radius =  0.650 angstrom
                   Q00  =  -0.020433

C          x = -0.040928  y = -0.864754  z = -0.533458 angstrom
           Maximum rank =  0   Radius =  0.650 angstrom
                   Q00  =  -0.074669

C          x = -1.396928  y =  0.907246  z =  0.371542 angstrom
           Maximum rank =  0   Radius =  0.650 angstrom
                   Q00  =   0.234613

C          x = -0.411928  y = -0.528754  z = -1.839458 angstrom
           Maximum rank =  0   Radius =  0.650 angstrom
                   Q00  =  -0.126756

C          x = -1.774928  y =  1.254246  z = -0.921458 angstrom
           Maximum rank =  0   Radius =  0.650 angstrom
                   Q00  =  -0.117692

C          x = -1.272928  y =  0.540246  z = -2.012458 angstrom
           Maximum rank =  0   Radius =  0.650 angstrom
                   Q00  =  -0.028604

O          x = -1.856928  y =  1.562246  z =  1.481542 angstrom
           Maximum rank =  0   Radius =  0.650 angstrom
                   Q00  =  -0.643702

H          x = -0.212928  y = -0.436754  z =  1.536542 angstrom
           Maximum rank =  0   Radius =  0.325 angstrom
                   Q00  =   0.068648

H          x =  0.677072  y = -1.650754  z = -0.345458 angstrom
           Maximum rank =  0   Radius =  0.325 angstrom
                   Q00  =   0.067459

H          x = -1.176928  y =  1.604246  z =  2.162542 angstrom
           Maximum rank =  0   Radius =  0.325 angstrom
                   Q00  =   0.405859

H          x = -2.439928  y =  2.093246  z = -1.070458 angstrom
           Maximum rank =  0   Radius =  0.325 angstrom
                   Q00  =   0.079907

H          x =  1.124072  y = -0.970754  z = -3.228458 angstrom
           Maximum rank =  0   Radius =  0.325 angstrom
                   Q00  =   0.100593

H          x = -0.487928  y = -1.069754  z = -3.896458 angstrom
           Maximum rank =  0   Radius =  0.325 angstrom
                   Q00  =   0.095983

H          x = -1.507928  y =  0.855246  z = -3.012458 angstrom
           Maximum rank =  0   Radius =  0.325 angstrom
                   Q00  =   0.062502

H          x =  0.107622  y = -2.394674  z = -2.867028 angstrom
           Maximum rank =  0   Radius =  0.325 angstrom
                   Q00  =   0.101070

C          x =  2.700072  y = -0.981754  z =  2.076542 angstrom
           Maximum rank =  0   Radius =  0.650 angstrom
                   Q00  =  -0.242941

C          x =  3.781072  y = -0.432754  z =  2.982542 angstrom
           Maximum rank =  0   Radius =  0.650 angstrom
                   Q00  =  -0.225200

H          x =  2.057072  y = -1.685754  z =  2.597542 angstrom
           Maximum rank =  0   Radius =  0.325 angstrom
                   Q00  =   0.077547

H          x =  2.098072  y = -0.151754  z =  1.705542 angstrom
           Maximum rank =  0   Radius =  0.325 angstrom
                   Q00  =   0.077216

H          x =  3.154072  y = -1.483754  z =  1.220542 angstrom
           Maximum rank =  0   Radius =  0.325 angstrom
                   Q00  =   0.078368

H          x =  3.301072  y =  0.101246  z =  3.802542 angstrom
           Maximum rank =  0   Radius =  0.325 angstrom
                   Q00  =   0.074037

H          x =  4.341392  y = -1.285074  z =  3.394352 angstrom
           Maximum rank =  0   Radius =  0.325 angstrom
                   Q00  =   0.077042

H          x =  4.437702  y =  0.277036  z =  2.458102 angstrom
           Maximum rank =  0   Radius =  0.325 angstrom
                   Q00  =   0.083573

Total multipoles referred to origin at
           x =   0.000000,  y =    0.000000,  z =    0.000000 angstrom
                   Q00  =  -0.000000

Finished at 14:13:21 on 28 Apr 2020

  DMA results are available in the Python driver through the
	  variable('DMA DISTRIBUTED MULTIPOLES')
  and
	  variable('DMA TOTAL MULTIPOLES')
  commands.

    Psi4 stopped on: Tuesday, 28 April 2020 02:13PM
    Psi4 wall time for execution: 0:02:04.55

*** Psi4 exiting successfully. Buy a developer a beer!
