                               Psi4 1.3.2 release

  ==> Input File <==

--------------------------------------------------------------------------
import numpy as np
set {scf_type pk
basis cc-pvdz
d_convergence 10
gdma_switch   0
gdma_limit    0
gdma_origin   [ 0.0,  0.0,  0.0 ]
}
molecule test {
    units Angstrom
    0 1
    --
    0 1
    C               -1.445340196272422     0.358392997696899    -2.252288776889208
    C               -2.289340196272422     0.083392997696899    -3.498288776889208
    H               -0.832340196272422    -0.501607002303101    -1.996288776889208
    H               -0.783340196272422     1.198392997696899    -2.451288776889208
    H               -2.083340196272422     0.620392997696899    -1.414288776889208
    H               -1.601340196272422    -0.186607002303101    -4.297288776889208
    H               -3.002660196272422    -0.742367002303101    -3.359349776889208
    H               -2.838370196272422     0.981222997696899    -3.818379776889208
    C                1.993659803727578    -0.663607002303101    -0.631288776889208
    C                1.124659803727578    -0.216607002303101     0.508711223110792
    C                0.993659803727578     0.993392997696899     1.116711223110792
    C               -0.369340196272422    -0.414607002303101     2.111711223110792
    N                0.254659803727578    -1.079607002303101     1.142711223110792
    N                0.057659803727578     0.842392997696899     2.110711223110792
    H                1.426659803727578    -1.355607002303101    -1.240288776889208
    H                2.849659803727577    -1.207607002303101    -0.231288776889208
    H                1.502659803727578     1.904392997696899     0.867711223110792
    H               -1.120340196272422    -0.821607002303101     2.780711223110792
    H               -0.281340196272422     1.581392997696899     2.731711223110792
    H                2.329849803727578     0.154322997696899    -1.285483776889208

}
e, wfn = energy('scf', return_wfn=True)
gdma(wfn)
dmavals = variable('DMA DISTRIBUTED MULTIPOLES')
charges = np.array(dmavals)
print(charges)
np.save('SSI-005LEU-083HIE-1-dimer.npy', np.array(charges))--------------------------------------------------------------------------

*** tstart() called on ds3
*** at Tue Apr 28 13:20:33 2020

   => Loading Basis Set <=

    Name: CC-PVDZ
    Role: ORBITAL
    Keyword: BASIS
    atoms 1-2, 9-12  entry C          line   138 file /theoryfs2/ds/metcalf/miniconda2/envs/tf2gpu/share/psi4/basis/cc-pvdz.gbs
    atoms 3-8, 15-20 entry H          line    22 file /theoryfs2/ds/metcalf/miniconda2/envs/tf2gpu/share/psi4/basis/cc-pvdz.gbs
    atoms 13-14      entry N          line   168 file /theoryfs2/ds/metcalf/miniconda2/envs/tf2gpu/share/psi4/basis/cc-pvdz.gbs

         ---------------------------------------------------------
                                   SCF
               by Justin Turney, Rob Parrish, Andy Simmonett
                          and Daniel G. A. Smith
                              RHF Reference
                        1 Threads,    500 MiB Core
         ---------------------------------------------------------

  ==> Geometry <==

    Molecular point group: c1
    Full point group: C1

    Geometry (in Angstrom), charge = 0, multiplicity = 1:

       Center              X                  Y                   Z               Mass
    ------------   -----------------  -----------------  -----------------  -----------------
         C           -1.445340196272     0.358392997697    -2.252288776889    12.000000000000
         C           -2.289340196272     0.083392997697    -3.498288776889    12.000000000000
         H           -0.832340196272    -0.501607002303    -1.996288776889     1.007825032230
         H           -0.783340196272     1.198392997697    -2.451288776889     1.007825032230
         H           -2.083340196272     0.620392997697    -1.414288776889     1.007825032230
         H           -1.601340196272    -0.186607002303    -4.297288776889     1.007825032230
         H           -3.002660196272    -0.742367002303    -3.359349776889     1.007825032230
         H           -2.838370196272     0.981222997697    -3.818379776889     1.007825032230
         C            1.993659803728    -0.663607002303    -0.631288776889    12.000000000000
         C            1.124659803728    -0.216607002303     0.508711223111    12.000000000000
         C            0.993659803728     0.993392997697     1.116711223111    12.000000000000
         C           -0.369340196272    -0.414607002303     2.111711223111    12.000000000000
         N            0.254659803728    -1.079607002303     1.142711223111    14.003074004430
         N            0.057659803728     0.842392997697     2.110711223111    14.003074004430
         H            1.426659803728    -1.355607002303    -1.240288776889     1.007825032230
         H            2.849659803728    -1.207607002303    -0.231288776889     1.007825032230
         H            1.502659803728     1.904392997697     0.867711223111     1.007825032230
         H           -1.120340196272    -0.821607002303     2.780711223111     1.007825032230
         H           -0.281340196272     1.581392997697     2.731711223111     1.007825032230
         H            2.329849803728     0.154322997697    -1.285483776889     1.007825032230

  Running in c1 symmetry.

  Rotational constants: A =      0.09015  B =      0.02900  C =      0.02567 [cm^-1]
  Rotational constants: A =   2702.70977  B =    869.43354  C =    769.66498 [MHz]
  Nuclear repulsion =  353.876746881505426

  Charge       = 0
  Multiplicity = 1
  Electrons    = 62
  Nalpha       = 31
  Nbeta        = 31

  ==> Algorithm <==

  SCF Algorithm Type is PK.
  DIIS enabled.
  MOM disabled.
  Fractional occupation disabled.
  Guess Type is SAD.
  Energy threshold   = 1.00e-06
  Density threshold  = 1.00e-10
  Integral threshold = 0.00e+00

  ==> Primary Basis <==

  Basis Set: CC-PVDZ
    Blend: CC-PVDZ
    Number of shells: 84
    Number of basis function: 172
    Number of Cartesian functions: 180
    Spherical Harmonics?: true
    Max angular momentum: 2

  ==> Pre-Iterations <==

   -------------------------------------------------------
    Irrep   Nso     Nmo     Nalpha   Nbeta   Ndocc  Nsocc
   -------------------------------------------------------
     A        172     172       0       0       0       0
   -------------------------------------------------------
    Total     172     172      31      31      31       0
   -------------------------------------------------------

  ==> Integral Setup <==

  Using integral reordering PK algorithm.
  Sizing the integral batches needed.
  Building batch lookup table.
   Calculation information:
      Number of atoms:                  20
      Number of AO shells:              84
      Number of primitives:            236
      Number of atomic orbitals:       180
      Number of basis functions:       172

      Integral cutoff                 1.00e-12
      Number of threads:                 1

	Batch   1 pq = [       0,    9405] index = [             0,44231715] size =     44231715
	Batch   2 pq = [    9405,   13301] index = [      44231715,88464951] size =     44233236
	Batch   3 pq = [   13301,   14878] index = [      88464951,110684881] size =     22219930
  Task number: 11
  Buffer size: 11059200
  Buffer per thread: 2
  We computed 5426011 shell quartets total.
  Whereas there are 6374235 unique shell quartets.

  ==> DiskJK: Disk-Based J/K Matrices <==

    J tasked:                  Yes
    K tasked:                  Yes
    wK tasked:                  No
    Memory [MiB]:              375
    Schwarz Cutoff:          1E-12

    OpenMP threads:              1

  Minimum eigenvalue in the overlap matrix is 1.1800988080E-03.
  Using Symmetric Orthogonalization.

  SCF Guess: Superposition of Atomic Densities via on-the-fly atomic UHF.

  ==> Iterations <==

                        Total Energy        Delta E     RMS |[F,P]|

   @RHF iter SAD:  -342.19549616091194   -3.42195e+02   0.00000e+00
   @RHF iter   1:  -342.88840199605244   -6.92906e-01   3.36314e-03 DIIS
   @RHF iter   2:  -343.06102299325488   -1.72621e-01   1.70299e-03 DIIS
   @RHF iter   3:  -343.10159524899450   -4.05723e-02   4.34653e-04 DIIS
   @RHF iter   4:  -343.10506217879538   -3.46693e-03   1.82532e-04 DIIS
   @RHF iter   5:  -343.10562886783759   -5.66689e-04   2.68688e-05 DIIS
   @RHF iter   6:  -343.10564982759871   -2.09598e-05   1.15869e-05 DIIS
   @RHF iter   7:  -343.10565331589964   -3.48830e-06   4.06583e-06 DIIS
   @RHF iter   8:  -343.10565406779546   -7.51896e-07   1.62710e-06 DIIS
   @RHF iter   9:  -343.10565423089741   -1.63102e-07   5.80662e-07 DIIS
   @RHF iter  10:  -343.10565424692612   -1.60287e-08   1.81564e-07 DIIS
   @RHF iter  11:  -343.10565424874119   -1.81507e-09   7.96813e-08 DIIS
   @RHF iter  12:  -343.10565424898289   -2.41698e-10   3.15724e-08 DIIS
   @RHF iter  13:  -343.10565424902882   -4.59295e-11   8.79670e-09 DIIS
   @RHF iter  14:  -343.10565424903280   -3.97904e-12   3.21432e-09 DIIS
   @RHF iter  15:  -343.10565424903189    9.09495e-13   1.29714e-09 DIIS
   @RHF iter  16:  -343.10565424903291   -1.02318e-12   4.07037e-10 DIIS
   @RHF iter  17:  -343.10565424903342   -5.11591e-13   1.23184e-10 DIIS
   @RHF iter  18:  -343.10565424903291    5.11591e-13   4.50471e-11 DIIS
  Energy and wave function converged.

  ==> Post-Iterations <==

    Orbital Energies [Eh]
    ---------------------

    Doubly Occupied:

       1A    -15.621030     2A    -15.527821     3A    -11.292207
       4A    -11.248292     5A    -11.241580     6A    -11.222449
       7A    -11.212038     8A    -11.206435     9A     -1.340808
      10A     -1.152230    11A     -1.028542    12A     -1.009590
      13A     -0.941472    14A     -0.830133    15A     -0.815361
      16A     -0.762306    17A     -0.740029    18A     -0.608558
      19A     -0.603589    20A     -0.596846    21A     -0.590422
      22A     -0.587133    23A     -0.552362    24A     -0.539180
      25A     -0.521891    26A     -0.494258    27A     -0.477437
      28A     -0.476206    29A     -0.410281    30A     -0.376851
      31A     -0.307938

    Virtual:

      32A      0.171980    33A      0.182811    34A      0.189936
      35A      0.206727    36A      0.225578    37A      0.229118
      38A      0.235951    39A      0.254360    40A      0.257117
      41A      0.270651    42A      0.277456    43A      0.294512
      44A      0.299607    45A      0.348266    46A      0.375629
      47A      0.390641    48A      0.402107    49A      0.430795
      50A      0.474051    51A      0.489275    52A      0.574621
      53A      0.599547    54A      0.605059    55A      0.608261
      56A      0.628365    57A      0.647940    58A      0.663476
      59A      0.695274    60A      0.698441    61A      0.723988
      62A      0.737157    63A      0.762043    64A      0.770399
      65A      0.788172    66A      0.812891    67A      0.832946
      68A      0.844403    69A      0.873952    70A      0.893338
      71A      0.899386    72A      0.901479    73A      0.914358
      74A      0.917148    75A      0.927056    76A      0.939473
      77A      0.944210    78A      0.959001    79A      0.964812
      80A      0.988603    81A      1.017836    82A      1.032649
      83A      1.048386    84A      1.091810    85A      1.101004
      86A      1.127434    87A      1.138126    88A      1.142183
      89A      1.153862    90A      1.175418    91A      1.234036
      92A      1.267020    93A      1.273059    94A      1.312799
      95A      1.326174    96A      1.335395    97A      1.427640
      98A      1.444842    99A      1.473947   100A      1.482193
     101A      1.485960   102A      1.520778   103A      1.565125
     104A      1.591454   105A      1.619953   106A      1.640843
     107A      1.693129   108A      1.698671   109A      1.710293
     110A      1.715110   111A      1.771344   112A      1.804032
     113A      1.820744   114A      1.850381   115A      1.866047
     116A      1.882430   117A      1.906377   118A      1.916379
     119A      1.927344   120A      1.945471   121A      1.948530
     122A      1.954172   123A      1.957378   124A      1.963539
     125A      1.976212   126A      1.984083   127A      1.995090
     128A      2.015616   129A      2.043780   130A      2.053016
     131A      2.093928   132A      2.122202   133A      2.136190
     134A      2.139348   135A      2.187213   136A      2.213981
     137A      2.237480   138A      2.303882   139A      2.322822
     140A      2.333755   141A      2.361351   142A      2.401163
     143A      2.434265   144A      2.452364   145A      2.461003
     146A      2.480861   147A      2.493342   148A      2.546568
     149A      2.558574   150A      2.585875   151A      2.613394
     152A      2.704787   153A      2.720612   154A      2.759494
     155A      2.767879   156A      2.787714   157A      2.795945
     158A      2.807831   159A      2.834286   160A      2.864047
     161A      2.866786   162A      2.882814   163A      2.893523
     164A      2.916506   165A      2.963714   166A      2.966831
     167A      2.976491   168A      3.078251   169A      3.163110
     170A      3.240264   171A      3.475052   172A      3.785690

    Final Occupation by Irrep:
              A
    DOCC [    31 ]

  @RHF Final Energy:  -343.10565424903291

   => Energetics <=

    Nuclear Repulsion Energy =            353.8767468815054258
    One-Electron Energy =               -1165.2942549913027506
    Two-Electron Energy =                 468.3118538607644723
    Total Energy =                       -343.1056542490329093

Computation Completed

Properties will be evaluated at   0.000000,   0.000000,   0.000000 [a0]

Properties computed using the SCF density matrix

  Nuclear Dipole Moment: [e a0]
     X:    -4.1579      Y:     1.5238      Z:   -12.8657

  Electronic Dipole Moment: [e a0]
     X:     4.0234      Y:    -0.3462      Z:    13.5514

  Dipole Moment: [e a0]
     X:    -0.1345      Y:     1.1776      Z:     0.6857     Total:     1.3693

  Dipole Moment: [D]
     X:    -0.3419      Y:     2.9931      Z:     1.7428     Total:     3.4803

*** tstop() called on ds3 at Tue Apr 28 13:22:26 2020
Module time:
	user time   =      41.46 seconds =       0.69 minutes
	system time =      17.55 seconds =       0.29 minutes
	total time  =        113 seconds =       1.88 minutes
Total time:
	user time   =      41.46 seconds =       0.69 minutes
	system time =      17.55 seconds =       0.29 minutes
	total time  =        113 seconds =       1.88 minutes
                                     G D M A

                                 by Anthony Stone

                           version 2.2.06, 22 June 2011

               Distributed Multipoles from Gaussian wavefunctions

Starting at 13:22:26 on 28 Apr 2020

Using SCF density matrix from file ./SSI/SSI-005LEU-083HIE-1-dimer.test.15927.fchk

                         Distributed Multipole Analysis

Standard DMA

Positions and radii in angstrom
Multipole moments in atomic units, ea_0^k for rank k

C          x = -1.445340  y =  0.358393  z = -2.252289 angstrom
           Maximum rank =  0   Radius =  0.650 angstrom
                   Q00  =  -0.227503

C          x = -2.289340  y =  0.083393  z = -3.498289 angstrom
           Maximum rank =  0   Radius =  0.650 angstrom
                   Q00  =  -0.243716

H          x = -0.832340  y = -0.501607  z = -1.996289 angstrom
           Maximum rank =  0   Radius =  0.325 angstrom
                   Q00  =   0.091107

H          x = -0.783340  y =  1.198393  z = -2.451289 angstrom
           Maximum rank =  0   Radius =  0.325 angstrom
                   Q00  =   0.071560

H          x = -2.083340  y =  0.620393  z = -1.414289 angstrom
           Maximum rank =  0   Radius =  0.325 angstrom
                   Q00  =   0.078104

H          x = -1.601340  y = -0.186607  z = -4.297289 angstrom
           Maximum rank =  0   Radius =  0.325 angstrom
                   Q00  =   0.074073

H          x = -3.002660  y = -0.742367  z = -3.359350 angstrom
           Maximum rank =  0   Radius =  0.325 angstrom
                   Q00  =   0.080621

H          x = -2.838370  y =  0.981223  z = -3.818380 angstrom
           Maximum rank =  0   Radius =  0.325 angstrom
                   Q00  =   0.075049

C          x =  1.993660  y = -0.663607  z = -0.631289 angstrom
           Maximum rank =  0   Radius =  0.650 angstrom
                   Q00  =  -0.202720

C          x =  1.124660  y = -0.216607  z =  0.508711 angstrom
           Maximum rank =  0   Radius =  0.650 angstrom
                   Q00  =   0.226509

C          x =  0.993660  y =  0.993393  z =  1.116711 angstrom
           Maximum rank =  0   Radius =  0.650 angstrom
                   Q00  =   0.002262

C          x = -0.369340  y = -0.414607  z =  2.111711 angstrom
           Maximum rank =  0   Radius =  0.650 angstrom
                   Q00  =   0.459637

N          x =  0.254660  y = -1.079607  z =  1.142711 angstrom
           Maximum rank =  0   Radius =  0.650 angstrom
                   Q00  =  -0.769358

N          x =  0.057660  y =  0.842393  z =  2.110711 angstrom
           Maximum rank =  0   Radius =  0.650 angstrom
                   Q00  =  -0.480269

H          x =  1.426660  y = -1.355607  z = -1.240289 angstrom
           Maximum rank =  0   Radius =  0.325 angstrom
                   Q00  =   0.118544

H          x =  2.849660  y = -1.207607  z = -0.231289 angstrom
           Maximum rank =  0   Radius =  0.325 angstrom
                   Q00  =   0.108416

H          x =  1.502660  y =  1.904393  z =  0.867711 angstrom
           Maximum rank =  0   Radius =  0.325 angstrom
                   Q00  =   0.099625

H          x = -1.120340  y = -0.821607  z =  2.780711 angstrom
           Maximum rank =  0   Radius =  0.325 angstrom
                   Q00  =   0.123534

H          x = -0.281340  y =  1.581393  z =  2.731711 angstrom
           Maximum rank =  0   Radius =  0.325 angstrom
                   Q00  =   0.221431

H          x =  2.329850  y =  0.154323  z = -1.285484 angstrom
           Maximum rank =  0   Radius =  0.325 angstrom
                   Q00  =   0.093092

Total multipoles referred to origin at
           x =   0.000000,  y =    0.000000,  z =    0.000000 angstrom
                   Q00  =  -0.000000

Finished at 13:22:26 on 28 Apr 2020

  DMA results are available in the Python driver through the
	  variable('DMA DISTRIBUTED MULTIPOLES')
  and
	  variable('DMA TOTAL MULTIPOLES')
  commands.

    Psi4 stopped on: Tuesday, 28 April 2020 01:22PM
    Psi4 wall time for execution: 0:01:52.94

*** Psi4 exiting successfully. Buy a developer a beer!
