                               Psi4 1.3.2 release

  ==> Input File <==

--------------------------------------------------------------------------
import numpy as np
set {scf_type pk
basis cc-pvdz
d_convergence 10
gdma_switch   0
gdma_limit    0
gdma_origin   [ 0.0,  0.0,  0.0 ]
}
molecule test {
    units Angstrom
    0 1
    --
    0 1
    C                1.579358465668338    -0.802525965605011     1.093638140990840
    C                2.458358465668339    -0.605525965605011     2.317638140990840
    H                1.710358465668338    -1.809525965605011     0.719638140990840
    H                0.554358465668338    -0.742525965605011     1.457638140990839
    H                1.744358465668338    -0.043525965605011     0.328638140990839
    H                2.263358465668338    -1.424525965605011     3.009638140990840
    H                3.523286465668338    -0.625565965605011     2.042818140990839
    H                2.195621465668339     0.338734034394989     2.816984140990840
    C               -1.321641534331662     0.026474034394989    -0.859361859009161
    C               -0.830641534331662     0.087474034394989    -2.305361859009161
    C               -1.962641534331662     1.306474034394989    -0.318361859009160
    H               -2.057641534331662    -0.777525965605011    -0.779361859009160
    H               -0.490641534331662    -0.235525965605011    -0.235361859009160
    H               -0.006641534331662     0.795474034394989    -2.364361859009161
    H               -2.813641534331661     1.574474034394989    -0.943361859009160
    H               -1.651709534331662     0.415144034394989    -2.959945859009161
    H               -0.446561534331662    -0.904615965605011    -2.585087859009160
    H               -2.357322534331662     1.150186034394989     0.696429140990840
    H               -1.247883534331662     2.142036034394988    -0.349281859009160

}
e, wfn = energy('scf', return_wfn=True)
gdma(wfn)
dmavals = variable('DMA DISTRIBUTED MULTIPOLES')
charges = np.array(dmavals)
print(charges)
np.save('SSI-004VAL-053LEU-1-dimer.npy', np.array(charges))--------------------------------------------------------------------------

*** tstart() called on ds3
*** at Tue Apr 28 20:32:07 2020

   => Loading Basis Set <=

    Name: CC-PVDZ
    Role: ORBITAL
    Keyword: BASIS
    atoms 1-2, 9-11  entry C          line   138 file /theoryfs2/ds/metcalf/miniconda2/envs/tf2gpu/share/psi4/basis/cc-pvdz.gbs
    atoms 3-8, 12-19 entry H          line    22 file /theoryfs2/ds/metcalf/miniconda2/envs/tf2gpu/share/psi4/basis/cc-pvdz.gbs

         ---------------------------------------------------------
                                   SCF
               by Justin Turney, Rob Parrish, Andy Simmonett
                          and Daniel G. A. Smith
                              RHF Reference
                        1 Threads,    500 MiB Core
         ---------------------------------------------------------

  ==> Geometry <==

    Molecular point group: c1
    Full point group: C1

    Geometry (in Angstrom), charge = 0, multiplicity = 1:

       Center              X                  Y                   Z               Mass
    ------------   -----------------  -----------------  -----------------  -----------------
         C            1.579358465668    -0.802525965605     1.093638140991    12.000000000000
         C            2.458358465668    -0.605525965605     2.317638140991    12.000000000000
         H            1.710358465668    -1.809525965605     0.719638140991     1.007825032230
         H            0.554358465668    -0.742525965605     1.457638140991     1.007825032230
         H            1.744358465668    -0.043525965605     0.328638140991     1.007825032230
         H            2.263358465668    -1.424525965605     3.009638140991     1.007825032230
         H            3.523286465668    -0.625565965605     2.042818140991     1.007825032230
         H            2.195621465668     0.338734034395     2.816984140991     1.007825032230
         C           -1.321641534332     0.026474034395    -0.859361859009    12.000000000000
         C           -0.830641534332     0.087474034395    -2.305361859009    12.000000000000
         C           -1.962641534332     1.306474034395    -0.318361859009    12.000000000000
         H           -2.057641534332    -0.777525965605    -0.779361859009     1.007825032230
         H           -0.490641534332    -0.235525965605    -0.235361859009     1.007825032230
         H           -0.006641534332     0.795474034395    -2.364361859009     1.007825032230
         H           -2.813641534332     1.574474034395    -0.943361859009     1.007825032230
         H           -1.651709534332     0.415144034395    -2.959945859009     1.007825032230
         H           -0.446561534332    -0.904615965605    -2.585087859009     1.007825032230
         H           -2.357322534332     1.150186034395     0.696429140991     1.007825032230
         H           -1.247883534332     2.142036034395    -0.349281859009     1.007825032230

  Running in c1 symmetry.

  Rotational constants: A =      0.22306  B =      0.04045  C =      0.03614 [cm^-1]
  Rotational constants: A =   6687.11346  B =   1212.56716  C =   1083.43750 [MHz]
  Nuclear repulsion =  178.393234086827732

  Charge       = 0
  Multiplicity = 1
  Electrons    = 44
  Nalpha       = 22
  Nbeta        = 22

  ==> Algorithm <==

  SCF Algorithm Type is PK.
  DIIS enabled.
  MOM disabled.
  Fractional occupation disabled.
  Guess Type is SAD.
  Energy threshold   = 1.00e-06
  Density threshold  = 1.00e-10
  Integral threshold = 0.00e+00

  ==> Primary Basis <==

  Basis Set: CC-PVDZ
    Blend: CC-PVDZ
    Number of shells: 72
    Number of basis function: 140
    Number of Cartesian functions: 145
    Spherical Harmonics?: true
    Max angular momentum: 2

  ==> Pre-Iterations <==

   -------------------------------------------------------
    Irrep   Nso     Nmo     Nalpha   Nbeta   Ndocc  Nsocc
   -------------------------------------------------------
     A        140     140       0       0       0       0
   -------------------------------------------------------
    Total     140     140      22      22      22       0
   -------------------------------------------------------

  ==> Integral Setup <==

  Using integral reordering PK algorithm.
  Sizing the integral batches needed.
  Building batch lookup table.
   Calculation information:
      Number of atoms:                  19
      Number of AO shells:              72
      Number of primitives:            180
      Number of atomic orbitals:       145
      Number of basis functions:       140

      Integral cutoff                 1.00e-12
      Number of threads:                 1

	Batch   1 pq = [       0,    9405] index = [             0,44231715] size =     44231715
	Batch   2 pq = [    9405,    9870] index = [      44231715,48713385] size =      4481670
  Task number: 5
  Buffer size: 11059200
  Buffer per thread: 2
  We computed 2880335 shell quartets total.
  Whereas there are 3454506 unique shell quartets.

  ==> DiskJK: Disk-Based J/K Matrices <==

    J tasked:                  Yes
    K tasked:                  Yes
    wK tasked:                  No
    Memory [MiB]:              375
    Schwarz Cutoff:          1E-12

    OpenMP threads:              1

  Minimum eigenvalue in the overlap matrix is 5.0293135759E-03.
  Using Symmetric Orthogonalization.

  SCF Guess: Superposition of Atomic Densities via on-the-fly atomic UHF.

  ==> Iterations <==

                        Total Energy        Delta E     RMS |[F,P]|

   @RHF iter SAD:  -196.40807500878063   -1.96408e+02   0.00000e+00
   @RHF iter   1:  -197.30740347496192   -8.99328e-01   3.80385e-03 DIIS
   @RHF iter   2:  -197.46819441460161   -1.60791e-01   1.62453e-03 DIIS
   @RHF iter   3:  -197.49613643054209   -2.79420e-02   3.26497e-04 DIIS
   @RHF iter   4:  -197.49837555971527   -2.23913e-03   4.76635e-05 DIIS
   @RHF iter   5:  -197.49841444557825   -3.88859e-05   1.46080e-05 DIIS
   @RHF iter   6:  -197.49841777363036   -3.32805e-06   2.54966e-06 DIIS
   @RHF iter   7:  -197.49841788882821   -1.15198e-07   4.84861e-07 DIIS
   @RHF iter   8:  -197.49841789380471   -4.97650e-09   1.23617e-07 DIIS
   @RHF iter   9:  -197.49841789410956   -3.04851e-10   3.94654e-08 DIIS
   @RHF iter  10:  -197.49841789414350   -3.39355e-11   8.40108e-09 DIIS
   @RHF iter  11:  -197.49841789414552   -2.01794e-12   1.61060e-09 DIIS
   @RHF iter  12:  -197.49841789414663   -1.10845e-12   2.95627e-10 DIIS
   @RHF iter  13:  -197.49841789414702   -3.97904e-13   5.46306e-11 DIIS
  Energy and wave function converged.

  ==> Post-Iterations <==

    Orbital Energies [Eh]
    ---------------------

    Doubly Occupied:

       1A    -11.219222     2A    -11.216727     3A    -11.216205
       4A    -11.216161     5A    -11.212585     6A     -1.050710
       7A     -1.023543     8A     -0.923931     9A     -0.837961
      10A     -0.793542    11A     -0.625859    12A     -0.604244
      13A     -0.600575    14A     -0.592128    15A     -0.548752
      16A     -0.530801    17A     -0.504920    18A     -0.489907
      19A     -0.486916    20A     -0.471985    21A     -0.462977
      22A     -0.457975

    Virtual:

      23A      0.169854    24A      0.194316    25A      0.214483
      26A      0.226348    27A      0.237520    28A      0.254649
      29A      0.262899    30A      0.265166    31A      0.275093
      32A      0.277547    33A      0.298754    34A      0.302994
      35A      0.309588    36A      0.343238    37A      0.375471
      38A      0.419986    39A      0.432473    40A      0.573708
      41A      0.583464    42A      0.599422    43A      0.614168
      44A      0.617563    45A      0.622033    46A      0.631617
      47A      0.672191    48A      0.697125    49A      0.742333
      50A      0.794000    51A      0.809192    52A      0.850045
      53A      0.878667    54A      0.879748    55A      0.892461
      56A      0.893974    57A      0.896505    58A      0.899550
      59A      0.901914    60A      0.905575    61A      0.912112
      62A      0.916742    63A      0.926930    64A      0.945787
      65A      0.948503    66A      0.976644    67A      0.982398
      68A      1.037615    69A      1.122488    70A      1.124136
      71A      1.130744    72A      1.155937    73A      1.235690
      74A      1.363515    75A      1.378777    76A      1.465376
      77A      1.479162    78A      1.488296    79A      1.502962
      80A      1.511438    81A      1.583894    82A      1.657280
      83A      1.672615    84A      1.676891    85A      1.682672
      86A      1.689514    87A      1.694345    88A      1.838063
      89A      1.852029    90A      1.864988    91A      1.875120
      92A      1.883021    93A      1.912334    94A      1.924251
      95A      1.924750    96A      1.939306    97A      1.954158
      98A      1.956199    99A      1.961769   100A      1.967582
     101A      1.971170   102A      1.983255   103A      1.995075
     104A      2.001355   105A      2.024544   106A      2.029808
     107A      2.076147   108A      2.101494   109A      2.129059
     110A      2.133078   111A      2.171684   112A      2.278057
     113A      2.287523   114A      2.301393   115A      2.323373
     116A      2.331359   117A      2.356148   118A      2.459653
     119A      2.490144   120A      2.501819   121A      2.533058
     122A      2.571762   123A      2.583329   124A      2.599266
     125A      2.622227   126A      2.633437   127A      2.748675
     128A      2.754754   129A      2.764547   130A      2.789218
     131A      2.803943   132A      2.806164   133A      2.833052
     134A      2.860752   135A      2.938494   136A      2.952881
     137A      2.959666   138A      2.968244   139A      2.981529
     140A      3.115748

    Final Occupation by Irrep:
              A
    DOCC [    22 ]

  @RHF Final Energy:  -197.49841789414702

   => Energetics <=

    Nuclear Repulsion Energy =            178.3932340868277322
    One-Electron Energy =                -617.6080500952739385
    Two-Electron Energy =                 241.7163981142991531
    Total Energy =                       -197.4984178941470248

Computation Completed

Properties will be evaluated at   0.000000,   0.000000,   0.000000 [a0]

Properties computed using the SCF density matrix

  Nuclear Dipole Moment: [e a0]
     X:     0.8618      Y:    -0.1381      Z:     0.8016

  Electronic Dipole Moment: [e a0]
     X:    -0.8356      Y:     0.0768      Z:    -0.7422

  Dipole Moment: [e a0]
     X:     0.0262      Y:    -0.0613      Z:     0.0594     Total:     0.0893

  Dipole Moment: [D]
     X:     0.0667      Y:    -0.1558      Z:     0.1509     Total:     0.2269

*** tstop() called on ds3 at Tue Apr 28 20:32:31 2020
Module time:
	user time   =      14.72 seconds =       0.25 minutes
	system time =       5.56 seconds =       0.09 minutes
	total time  =         24 seconds =       0.40 minutes
Total time:
	user time   =      14.72 seconds =       0.25 minutes
	system time =       5.56 seconds =       0.09 minutes
	total time  =         24 seconds =       0.40 minutes
                                     G D M A

                                 by Anthony Stone

                           version 2.2.06, 22 June 2011

               Distributed Multipoles from Gaussian wavefunctions

Starting at 20:32:31 on 28 Apr 2020

Using SCF density matrix from file ./SSI/SSI-004VAL-053LEU-1-dimer.test.28707.fchk

                         Distributed Multipole Analysis

Standard DMA

Positions and radii in angstrom
Multipole moments in atomic units, ea_0^k for rank k

C          x =  1.579358  y = -0.802526  z =  1.093638 angstrom
           Maximum rank =  0   Radius =  0.650 angstrom
                   Q00  =  -0.229222

C          x =  2.458358  y = -0.605526  z =  2.317638 angstrom
           Maximum rank =  0   Radius =  0.650 angstrom
                   Q00  =  -0.231338

H          x =  1.710358  y = -1.809526  z =  0.719638 angstrom
           Maximum rank =  0   Radius =  0.325 angstrom
                   Q00  =   0.082496

H          x =  0.554358  y = -0.742526  z =  1.457638 angstrom
           Maximum rank =  0   Radius =  0.325 angstrom
                   Q00  =   0.068220

H          x =  1.744358  y = -0.043526  z =  0.328638 angstrom
           Maximum rank =  0   Radius =  0.325 angstrom
                   Q00  =   0.079710

H          x =  2.263358  y = -1.424526  z =  3.009638 angstrom
           Maximum rank =  0   Radius =  0.325 angstrom
                   Q00  =   0.079323

H          x =  3.523286  y = -0.625566  z =  2.042818 angstrom
           Maximum rank =  0   Radius =  0.325 angstrom
                   Q00  =   0.078594

H          x =  2.195621  y =  0.338734  z =  2.816984 angstrom
           Maximum rank =  0   Radius =  0.325 angstrom
                   Q00  =   0.077007

C          x = -1.321642  y =  0.026474  z = -0.859362 angstrom
           Maximum rank =  0   Radius =  0.650 angstrom
                   Q00  =  -0.083395

C          x = -0.830642  y =  0.087474  z = -2.305362 angstrom
           Maximum rank =  0   Radius =  0.650 angstrom
                   Q00  =  -0.237135

C          x = -1.962642  y =  1.306474  z = -0.318362 angstrom
           Maximum rank =  0   Radius =  0.650 angstrom
                   Q00  =  -0.252885

H          x = -2.057642  y = -0.777526  z = -0.779362 angstrom
           Maximum rank =  0   Radius =  0.325 angstrom
                   Q00  =   0.039042

H          x = -0.490642  y = -0.235526  z = -0.235362 angstrom
           Maximum rank =  0   Radius =  0.325 angstrom
                   Q00  =   0.059046

H          x = -0.006642  y =  0.795474  z = -2.364362 angstrom
           Maximum rank =  0   Radius =  0.325 angstrom
                   Q00  =   0.073929

H          x = -2.813642  y =  1.574474  z = -0.943362 angstrom
           Maximum rank =  0   Radius =  0.325 angstrom
                   Q00  =   0.076287

H          x = -1.651710  y =  0.415144  z = -2.959946 angstrom
           Maximum rank =  0   Radius =  0.325 angstrom
                   Q00  =   0.077615

H          x = -0.446562  y = -0.904616  z = -2.585088 angstrom
           Maximum rank =  0   Radius =  0.325 angstrom
                   Q00  =   0.084285

H          x = -2.357323  y =  1.150186  z =  0.696429 angstrom
           Maximum rank =  0   Radius =  0.325 angstrom
                   Q00  =   0.084292

H          x = -1.247884  y =  2.142036  z = -0.349282 angstrom
           Maximum rank =  0   Radius =  0.325 angstrom
                   Q00  =   0.074129

Total multipoles referred to origin at
           x =   0.000000,  y =    0.000000,  z =    0.000000 angstrom
                   Q00  =  -0.000000

Finished at 20:32:31 on 28 Apr 2020

  DMA results are available in the Python driver through the
	  variable('DMA DISTRIBUTED MULTIPOLES')
  and
	  variable('DMA TOTAL MULTIPOLES')
  commands.

    Psi4 stopped on: Tuesday, 28 April 2020 08:32PM
    Psi4 wall time for execution: 0:00:24.20

*** Psi4 exiting successfully. Buy a developer a beer!
