                               Psi4 1.3.2 release

  ==> Input File <==

--------------------------------------------------------------------------
import numpy as np
set {scf_type pk
basis cc-pvdz
d_convergence 10
gdma_switch   0
gdma_limit    0
gdma_origin   [ 0.0,  0.0,  0.0 ]
}
molecule test {
    units Angstrom
    0 1
    --
    0 1
    C               -0.703339584524760    -1.990498902728934    -5.243880138449414
    C                1.265660415475240     0.178501097271066    -2.872880138449413
    C                0.024660415475240    -0.215498902728934    -3.437880138449414
    C                0.300660415475240    -1.249498902728934    -4.399880138449414
    C                1.654660415475240    -1.430498902728934    -4.381880138449413
    C                0.190660415475240     1.770501097271066    -1.484880138449414
    C                1.359660415475240     1.159501097271066    -1.898880138449414
    C               -1.048339584524760     1.403501097271066    -2.019880138449413
    C               -1.144339584524759     0.413501097271066    -2.992880138449414
    N                2.233660415475241    -0.578498902728934    -3.473880138449414
    H                0.234660415475240     2.544501097271066    -0.728880138449413
    H                2.315660415475241     1.439501097271066    -1.480880138449414
    H               -1.944339584524760     1.901501097271066    -1.672880138449413
    H               -2.097339584524760     0.147501097271066    -3.419880138449413
    H                3.235660415475241    -0.545498902728934    -3.288880138449414
    H                2.191660415475240    -2.142498902728934    -4.999880138449414
    H               -1.462339584524760    -2.420498902728934    -4.589880138449414
    H               -0.181339584524760    -2.820498902728934    -5.720880138449413
    H               -1.200441584524760    -1.383647902728934    -6.014997138449413
    C               -2.383339584524759     1.948501097271066     2.048119861550587
    C               -0.584339584524760     0.228501097271066     2.851119861550587
    C               -1.572339584524760     1.238501097271066     3.091119861550587
    C               -0.086339584524760    -0.187498902728934     4.109119861550587
    C               -1.654339584524760     1.374501097271066     4.441119861550587
    C               -0.065339584524760    -0.358498902728934     1.695119861550587
    C                0.918660415475240    -1.321498902728934     1.817119861550586
    C                1.376660415475240    -1.725498902728934     3.067119861550587
    C                0.885660415475240    -1.161498902728934     4.229119861550586
    N               -0.766339584524759     0.525501097271066     5.059119861550586
    H               -0.410339584524760    -0.045498902728934     0.721119861550587
    H                1.341660415475240    -1.761498902728934     0.925119861550587
    H                2.149660415475241    -2.475498902728934     3.122119861550587
    H               -1.719339584524760     2.327501097271066     1.269119861550587
    H               -2.878339584524760     2.797501097271066     2.511119861550587
    H               -2.329339584524759     2.051501097271066     4.955119861550586
    H               -0.672339584524760     0.448501097271066     6.067119861550586
    H                1.223660415475240    -1.487498902728934     5.199119861550586
    H               -3.121116584524759     1.267753097271066     1.598378861550587

}
e, wfn = energy('scf', return_wfn=True)
gdma(wfn)
dmavals = variable('DMA DISTRIBUTED MULTIPOLES')
charges = np.array(dmavals)
print(charges)
np.save('SSI-022TRP-040TRP-1-dimer.npy', np.array(charges))--------------------------------------------------------------------------

*** tstart() called on ds3
*** at Tue Apr 28 20:20:31 2020

   => Loading Basis Set <=

    Name: CC-PVDZ
    Role: ORBITAL
    Keyword: BASIS
    atoms 1-9, 20-28   entry C          line   138 file /theoryfs2/ds/metcalf/miniconda2/envs/tf2gpu/share/psi4/basis/cc-pvdz.gbs
    atoms 10, 29       entry N          line   168 file /theoryfs2/ds/metcalf/miniconda2/envs/tf2gpu/share/psi4/basis/cc-pvdz.gbs
    atoms 11-19, 30-38 entry H          line    22 file /theoryfs2/ds/metcalf/miniconda2/envs/tf2gpu/share/psi4/basis/cc-pvdz.gbs

         ---------------------------------------------------------
                                   SCF
               by Justin Turney, Rob Parrish, Andy Simmonett
                          and Daniel G. A. Smith
                              RHF Reference
                        1 Threads,    500 MiB Core
         ---------------------------------------------------------

  ==> Geometry <==

    Molecular point group: c1
    Full point group: C1

    Geometry (in Angstrom), charge = 0, multiplicity = 1:

       Center              X                  Y                   Z               Mass
    ------------   -----------------  -----------------  -----------------  -----------------
         C           -0.703339584525    -1.990498902729    -5.243880138449    12.000000000000
         C            1.265660415475     0.178501097271    -2.872880138449    12.000000000000
         C            0.024660415475    -0.215498902729    -3.437880138449    12.000000000000
         C            0.300660415475    -1.249498902729    -4.399880138449    12.000000000000
         C            1.654660415475    -1.430498902729    -4.381880138449    12.000000000000
         C            0.190660415475     1.770501097271    -1.484880138449    12.000000000000
         C            1.359660415475     1.159501097271    -1.898880138449    12.000000000000
         C           -1.048339584525     1.403501097271    -2.019880138449    12.000000000000
         C           -1.144339584525     0.413501097271    -2.992880138449    12.000000000000
         N            2.233660415475    -0.578498902729    -3.473880138449    14.003074004430
         H            0.234660415475     2.544501097271    -0.728880138449     1.007825032230
         H            2.315660415475     1.439501097271    -1.480880138449     1.007825032230
         H           -1.944339584525     1.901501097271    -1.672880138449     1.007825032230
         H           -2.097339584525     0.147501097271    -3.419880138449     1.007825032230
         H            3.235660415475    -0.545498902729    -3.288880138449     1.007825032230
         H            2.191660415475    -2.142498902729    -4.999880138449     1.007825032230
         H           -1.462339584525    -2.420498902729    -4.589880138449     1.007825032230
         H           -0.181339584525    -2.820498902729    -5.720880138449     1.007825032230
         H           -1.200441584525    -1.383647902729    -6.014997138449     1.007825032230
         C           -2.383339584525     1.948501097271     2.048119861551    12.000000000000
         C           -0.584339584525     0.228501097271     2.851119861551    12.000000000000
         C           -1.572339584525     1.238501097271     3.091119861551    12.000000000000
         C           -0.086339584525    -0.187498902729     4.109119861551    12.000000000000
         C           -1.654339584525     1.374501097271     4.441119861551    12.000000000000
         C           -0.065339584525    -0.358498902729     1.695119861551    12.000000000000
         C            0.918660415475    -1.321498902729     1.817119861551    12.000000000000
         C            1.376660415475    -1.725498902729     3.067119861551    12.000000000000
         C            0.885660415475    -1.161498902729     4.229119861551    12.000000000000
         N           -0.766339584525     0.525501097271     5.059119861551    14.003074004430
         H           -0.410339584525    -0.045498902729     0.721119861551     1.007825032230
         H            1.341660415475    -1.761498902729     0.925119861551     1.007825032230
         H            2.149660415475    -2.475498902729     3.122119861551     1.007825032230
         H           -1.719339584525     2.327501097271     1.269119861551     1.007825032230
         H           -2.878339584525     2.797501097271     2.511119861551     1.007825032230
         H           -2.329339584525     2.051501097271     4.955119861551     1.007825032230
         H           -0.672339584525     0.448501097271     6.067119861551     1.007825032230
         H            1.223660415475    -1.487498902729     5.199119861551     1.007825032230
         H           -3.121116584525     1.267753097271     1.598378861551     1.007825032230

  Running in c1 symmetry.

  Rotational constants: A =      0.02227  B =      0.00494  C =      0.00444 [cm^-1]
  Rotational constants: A =    667.64181  B =    147.99273  C =    133.03750 [MHz]
  Nuclear repulsion = 1362.507250203653939

  Charge       = 0
  Multiplicity = 1
  Electrons    = 140
  Nalpha       = 70
  Nbeta        = 70

  ==> Algorithm <==

  SCF Algorithm Type is PK.
  DIIS enabled.
  MOM disabled.
  Fractional occupation disabled.
  Guess Type is SAD.
  Energy threshold   = 1.00e-06
  Density threshold  = 1.00e-10
  Integral threshold = 0.00e+00

  ==> Primary Basis <==

  Basis Set: CC-PVDZ
    Blend: CC-PVDZ
    Number of shells: 174
    Number of basis function: 370
    Number of Cartesian functions: 390
    Spherical Harmonics?: true
    Max angular momentum: 2

  ==> Pre-Iterations <==

   -------------------------------------------------------
    Irrep   Nso     Nmo     Nalpha   Nbeta   Ndocc  Nsocc
   -------------------------------------------------------
     A        370     370       0       0       0       0
   -------------------------------------------------------
    Total     370     370      70      70      70       0
   -------------------------------------------------------

  ==> Integral Setup <==

  Using Yoshimine PK algorithm.
  Sizing the integral batches needed.
  Building batch lookup table.
   Calculation information:
      Number of atoms:                  38
      Number of AO shells:             174
      Number of primitives:            530
      Number of atomic orbitals:       390
      Number of basis functions:       370

      Integral cutoff                 1.00e-12
      Number of threads:                 1

	Batch   1 pq = [       0,    9405] index = [             0,44231715] size =     44231715
	Batch   2 pq = [    9405,   13301] index = [      44231715,88464951] size =     44233236
	Batch   3 pq = [   13301,   16290] index = [      88464951,132690195] size =     44225244
	Batch   4 pq = [   16290,   18810] index = [     132690195,176917455] size =     44227260
	Batch   5 pq = [   18810,   21030] index = [     176917455,221140965] size =     44223510
	Batch   6 pq = [   21030,   23037] index = [     221140965,265363203] size =     44222238
	Batch   7 pq = [   23037,   24883] index = [     265363203,309594286] size =     44231083
	Batch   8 pq = [   24883,   26601] index = [     309594286,353819901] size =     44225615
	Batch   9 pq = [   26601,   28214] index = [     353819901,398029005] size =     44209104
	Batch  10 pq = [   28214,   29740] index = [     398029005,442248670] size =     44219665
	Batch  11 pq = [   29740,   31191] index = [     442248670,486454836] size =     44206166
	Batch  12 pq = [   31191,   32578] index = [     486454836,530679331] size =     44224495
	Batch  13 pq = [   32578,   33908] index = [     530679331,574893186] size =     44213855
	Batch  14 pq = [   33908,   35188] index = [     574893186,619115266] size =     44222080
	Batch  15 pq = [   35188,   36423] index = [     619115266,663335676] size =     44220410
	Batch  16 pq = [   36423,   37617] index = [     663335676,707538153] size =     44202477
	Batch  17 pq = [   37617,   38775] index = [     707538153,751769700] size =     44231547
	Batch  18 pq = [   38775,   39899] index = [     751769700,795985050] size =     44215350
	Batch  19 pq = [   39899,   40992] index = [     795985050,840192528] size =     44207478
	Batch  20 pq = [   40992,   42057] index = [     840192528,884416653] size =     44224125
	Batch  21 pq = [   42057,   43095] index = [     884416653,928611060] size =     44194407
	Batch  22 pq = [   43095,   44109] index = [     928611060,972823995] size =     44212935
	Batch  23 pq = [   44109,   45100] index = [     972823995,1017027550] size =     44203555
	Batch  24 pq = [   45100,   46070] index = [    1017027550,1061245485] size =     44217935
	Batch  25 pq = [   46070,   47020] index = [    1061245485,1105463710] size =     44218225
	Batch  26 pq = [   47020,   47951] index = [    1105463710,1149673176] size =     44209466
	Batch  27 pq = [   47951,   48864] index = [    1149673176,1193869680] size =     44196504
	Batch  28 pq = [   48864,   49761] index = [    1193869680,1238103441] size =     44233761
	Batch  29 pq = [   49761,   50642] index = [    1238103441,1282331403] size =     44227962
	Batch  30 pq = [   50642,   51508] index = [    1282331403,1326562786] size =     44231383
	Batch  31 pq = [   51508,   52359] index = [    1326562786,1370758620] size =     44195834
	Batch  32 pq = [   52359,   53197] index = [    1370758620,1414987003] size =     44228383
	Batch  33 pq = [   53197,   54022] index = [    1414987003,1459215253] size =     44228250
	Batch  34 pq = [   54022,   54834] index = [    1459215253,1503411195] size =     44195942
	Batch  35 pq = [   54834,   55634] index = [    1503411195,1547598795] size =     44187600
	Batch  36 pq = [   55634,   56423] index = [    1547598795,1591805676] size =     44206881
	Batch  37 pq = [   56423,   57201] index = [    1591805676,1636005801] size =     44200125
	Batch  38 pq = [   57201,   57969] index = [    1636005801,1680231465] size =     44225664
	Batch  39 pq = [   57969,   58727] index = [    1680231465,1724459628] size =     44228163
	Batch  40 pq = [   58727,   59475] index = [    1724459628,1768667550] size =     44207922
	Batch  41 pq = [   59475,   60214] index = [    1768667550,1812893005] size =     44225455
	Batch  42 pq = [   60214,   60944] index = [    1812893005,1857116040] size =     44223035
	Batch  43 pq = [   60944,   61665] index = [    1857116040,1901316945] size =     44200905
	Batch  44 pq = [   61665,   62378] index = [    1901316945,1945538631] size =     44221686
	Batch  45 pq = [   62378,   63083] index = [    1945538631,1989763986] size =     44225355
	Batch  46 pq = [   63083,   63780] index = [    1989763986,2033976090] size =     44212104
	Batch  47 pq = [   63780,   64469] index = [    2033976090,2078158215] size =     44182125
	Batch  48 pq = [   64469,   65151] index = [    2078158215,2122358976] size =     44200761
	Batch  49 pq = [   65151,   65826] index = [    2122358976,2166564051] size =     44205075
	Batch  50 pq = [   65826,   66494] index = [    2166564051,2210759265] size =     44195214
	Batch  51 pq = [   66494,   67155] index = [    2210759265,2254930590] size =     44171325
	Batch  52 pq = [   67155,   67810] index = [    2254930590,2299131955] size =     44201365
	Batch  53 pq = [   67810,   68459] index = [    2299131955,2343351570] size =     44219615
	Batch  54 pq = [   68459,   68635] index = [    2343351570,2355415930] size =     12064360
  ==> DiskJK: Disk-Based J/K Matrices <==

    J tasked:                  Yes
    K tasked:                  Yes
    wK tasked:                  No
    Memory [MiB]:              375
    Schwarz Cutoff:          1E-12

    OpenMP threads:              1

  Minimum eigenvalue in the overlap matrix is 2.2199104877E-04.
  Using Symmetric Orthogonalization.

  SCF Guess: Superposition of Atomic Densities via on-the-fly atomic UHF.

  ==> Iterations <==

                        Total Energy        Delta E     RMS |[F,P]|

   @RHF iter SAD:  -800.79260745800605   -8.00793e+02   0.00000e+00
   @RHF iter   1:  -800.67057966946527    1.22028e-01   2.03869e-03 DIIS
   @RHF iter   2:  -801.00358294846569   -3.33003e-01   9.32984e-04 DIIS
   @RHF iter   3:  -801.06582979574046   -6.22468e-02   2.65766e-04 DIIS
   @RHF iter   4:  -801.07216586770005   -6.33607e-03   1.12963e-04 DIIS
   @RHF iter   5:  -801.07317343241266   -1.00756e-03   1.66361e-05 DIIS
   @RHF iter   6:  -801.07322423009703   -5.07977e-05   8.54449e-06 DIIS
   @RHF iter   7:  -801.07323694529941   -1.27152e-05   3.54696e-06 DIIS
   @RHF iter   8:  -801.07324056412995   -3.61883e-06   1.34391e-06 DIIS
   @RHF iter   9:  -801.07324114151106   -5.77381e-07   6.28772e-07 DIIS
   @RHF iter  10:  -801.07324127017694   -1.28666e-07   2.90992e-07 DIIS
   @RHF iter  11:  -801.07324130515190   -3.49750e-08   1.13417e-07 DIIS
   @RHF iter  12:  -801.07324130907182   -3.91992e-09   4.39034e-08 DIIS
   @RHF iter  13:  -801.07324130945017   -3.78350e-10   1.22138e-08 DIIS
   @RHF iter  14:  -801.07324130948768   -3.75167e-11   4.51931e-09 DIIS
   @RHF iter  15:  -801.07324130949166   -3.97904e-12   2.22491e-09 DIIS
   @RHF iter  16:  -801.07324130949621   -4.54747e-12   1.16201e-09 DIIS
   @RHF iter  17:  -801.07324130948120    1.50067e-11   5.11839e-10 DIIS
   @RHF iter  18:  -801.07324130949439   -1.31877e-11   1.61808e-10 DIIS
   @RHF iter  19:  -801.07324130949394    4.54747e-13   7.84992e-11 DIIS
  Energy and wave function converged.

  ==> Post-Iterations <==

    Orbital Energies [Eh]
    ---------------------

    Doubly Occupied:

       1A    -15.601353     2A    -15.595257     3A    -11.264671
       4A    -11.263026     5A    -11.258076     6A    -11.256354
       7A    -11.229828     8A    -11.228687     9A    -11.227332
      10A    -11.227020    11A    -11.222373    12A    -11.222050
      13A    -11.220519    14A    -11.220515    15A    -11.219878
      16A    -11.218482    17A    -11.218245    18A    -11.211591
      19A    -11.210643    20A    -11.210122    21A     -1.295273
      22A     -1.290290    23A     -1.128979    24A     -1.125147
      25A     -1.070979    26A     -1.068617    27A     -0.997128
      28A     -0.992589    29A     -0.987284    30A     -0.982423
      31A     -0.929573    32A     -0.926502    33A     -0.839919
      34A     -0.834308    35A     -0.802787    36A     -0.798494
      37A     -0.752350    38A     -0.746985    39A     -0.718954
      40A     -0.713446    41A     -0.662332    42A     -0.656424
      43A     -0.641809    44A     -0.636561    45A     -0.601211
      46A     -0.596554    47A     -0.591021    48A     -0.590132
      49A     -0.587626    50A     -0.584885    51A     -0.565953
      52A     -0.562660    53A     -0.552009    54A     -0.548439
      55A     -0.536946    56A     -0.531879    57A     -0.526837
      58A     -0.522419    59A     -0.494427    60A     -0.488124
      61A     -0.469426    62A     -0.467522    63A     -0.458797
      64A     -0.456700    65A     -0.372220    66A     -0.366990
      67A     -0.295337    68A     -0.290393    69A     -0.275100
      70A     -0.268846

    Virtual:

      71A      0.125292    72A      0.133503    73A      0.169072
      74A      0.176856    75A      0.178907    76A      0.183485
      77A      0.184927    78A      0.192588    79A      0.207862
      80A      0.214250    81A      0.222293    82A      0.228905
      83A      0.230950    84A      0.235202    85A      0.244749
      86A      0.254125    87A      0.257935    88A      0.271852
      89A      0.279811    90A      0.283665    91A      0.287910
      92A      0.293676    93A      0.304078    94A      0.344599
      95A      0.375977    96A      0.382102    97A      0.384705
      98A      0.396643    99A      0.406180   100A      0.408899
     101A      0.425425   102A      0.428990   103A      0.445165
     104A      0.453688   105A      0.478297   106A      0.480834
     107A      0.483738   108A      0.489531   109A      0.503049
     110A      0.505390   111A      0.514527   112A      0.517898
     113A      0.594183   114A      0.601877   115A      0.609628
     116A      0.620787   117A      0.634211   118A      0.635635
     119A      0.643032   120A      0.649336   121A      0.666393
     122A      0.668230   123A      0.687798   124A      0.700491
     125A      0.707742   126A      0.711595   127A      0.715348
     128A      0.724338   129A      0.728311   130A      0.731138
     131A      0.734411   132A      0.738821   133A      0.743197
     134A      0.746888   135A      0.748547   136A      0.753010
     137A      0.756761   138A      0.761859   139A      0.766751
     140A      0.773300   141A      0.783993   142A      0.787190
     143A      0.791294   144A      0.793641   145A      0.798651
     146A      0.799433   147A      0.810627   148A      0.827889
     149A      0.832774   150A      0.839543   151A      0.859244
     152A      0.870723   153A      0.880094   154A      0.881219
     155A      0.884568   156A      0.889994   157A      0.895592
     158A      0.897277   159A      0.902838   160A      0.908369
     161A      0.912634   162A      0.915915   163A      0.927378
     164A      0.937105   165A      0.948745   166A      0.953459
     167A      0.958349   168A      0.961631   169A      0.969449
     170A      0.980032   171A      0.986358   172A      0.994609
     173A      1.009869   174A      1.012346   175A      1.025705
     176A      1.057458   177A      1.066664   178A      1.067643
     179A      1.071087   180A      1.085363   181A      1.097860
     182A      1.112650   183A      1.121366   184A      1.133568
     185A      1.137445   186A      1.142988   187A      1.149328
     188A      1.154053   189A      1.162358   190A      1.168664
     191A      1.188310   192A      1.205008   193A      1.216722
     194A      1.221757   195A      1.224688   196A      1.233024
     197A      1.236432   198A      1.240214   199A      1.245919
     200A      1.253349   201A      1.256115   202A      1.261057
     203A      1.280463   204A      1.282034   205A      1.294840
     206A      1.301805   207A      1.305772   208A      1.315686
     209A      1.330458   210A      1.334877   211A      1.340503
     212A      1.347626   213A      1.363785   214A      1.370056
     215A      1.371588   216A      1.380823   217A      1.398293
     218A      1.423253   219A      1.446953   220A      1.463695
     221A      1.519653   222A      1.538621   223A      1.552872
     224A      1.571873   225A      1.575912   226A      1.589093
     227A      1.599953   228A      1.605213   229A      1.629877
     230A      1.640292   231A      1.645103   232A      1.650927
     233A      1.659744   234A      1.664468   235A      1.682752
     236A      1.690592   237A      1.696893   238A      1.705075
     239A      1.743803   240A      1.749296   241A      1.762542
     242A      1.773135   243A      1.780856   244A      1.788074
     245A      1.789463   246A      1.797224   247A      1.807595
     248A      1.820165   249A      1.827228   250A      1.830498
     251A      1.838363   252A      1.841061   253A      1.882945
     254A      1.886805   255A      1.890299   256A      1.897976
     257A      1.902068   258A      1.908407   259A      1.915551
     260A      1.918504   261A      1.933389   262A      1.938906
     263A      1.942026   264A      1.943427   265A      1.949858
     266A      1.955959   267A      1.963743   268A      1.969320
     269A      1.979200   270A      1.984074   271A      2.002968
     272A      2.011320   273A      2.014612   274A      2.017635
     275A      2.024012   276A      2.035718   277A      2.046983
     278A      2.057047   279A      2.080164   280A      2.081752
     281A      2.088663   282A      2.089574   283A      2.095530
     284A      2.103545   285A      2.107089   286A      2.108743
     287A      2.116330   288A      2.119999   289A      2.124323
     290A      2.136577   291A      2.142665   292A      2.148791
     293A      2.159962   294A      2.164046   295A      2.178874
     296A      2.186751   297A      2.191199   298A      2.195245
     299A      2.224992   300A      2.240418   301A      2.241276
     302A      2.258764   303A      2.289490   304A      2.291298
     305A      2.300323   306A      2.309415   307A      2.324381
     308A      2.327799   309A      2.336353   310A      2.346987
     311A      2.356074   312A      2.367440   313A      2.395366
     314A      2.405441   315A      2.419658   316A      2.441175
     317A      2.454339   318A      2.465955   319A      2.470359
     320A      2.481185   321A      2.530204   322A      2.546605
     323A      2.580339   324A      2.590465   325A      2.608231
     326A      2.619577   327A      2.639948   328A      2.653474
     329A      2.660439   330A      2.673707   331A      2.679809
     332A      2.695063   333A      2.696510   334A      2.710768
     335A      2.772811   336A      2.778498   337A      2.783939
     338A      2.788945   339A      2.792884   340A      2.800874
     341A      2.808195   342A      2.820000   343A      2.825865
     344A      2.841108   345A      2.878326   346A      2.879709
     347A      2.884902   348A      2.889580   349A      2.916701
     350A      2.921574   351A      2.962774   352A      2.975666
     353A      3.034690   354A      3.042202   355A      3.057630
     356A      3.067622   357A      3.078636   358A      3.096749
     359A      3.124412   360A      3.139297   361A      3.205346
     362A      3.227218   363A      3.309876   364A      3.331307
     365A      3.379492   366A      3.392357   367A      3.738577
     368A      3.750970   369A      3.958680   370A      3.984539

    Final Occupation by Irrep:
              A
    DOCC [    70 ]

  @RHF Final Energy:  -801.07324130949394

   => Energetics <=

    Nuclear Repulsion Energy =           1362.5072502036539390
    One-Electron Energy =               -3792.1057277450136098
    Two-Electron Energy =                1628.5252362318658470
    Total Energy =                       -801.0732413094940512

Computation Completed

Properties will be evaluated at   0.000000,   0.000000,   0.000000 [a0]

Properties computed using the SCF density matrix

  Nuclear Dipole Moment: [e a0]
     X:    -4.9953      Y:    -0.1469      Z:    -5.2063

  Electronic Dipole Moment: [e a0]
     X:     5.5229      Y:     0.1003      Z:     5.6034

  Dipole Moment: [e a0]
     X:     0.5276      Y:    -0.0466      Z:     0.3970     Total:     0.6619

  Dipole Moment: [D]
     X:     1.3410      Y:    -0.1185      Z:     1.0091     Total:     1.6825

*** tstop() called on ds3 at Wed Apr 29 00:39:51 2020
Module time:
	user time   =     582.00 seconds =       9.70 minutes
	system time =     686.20 seconds =      11.44 minutes
	total time  =      15560 seconds =     259.33 minutes
Total time:
	user time   =     582.00 seconds =       9.70 minutes
	system time =     686.20 seconds =      11.44 minutes
	total time  =      15560 seconds =     259.33 minutes
                                     G D M A

                                 by Anthony Stone

                           version 2.2.06, 22 June 2011

               Distributed Multipoles from Gaussian wavefunctions

Starting at 0:39:51 on 29 Apr 2020

Using SCF density matrix from file ./SSI/SSI-022TRP-040TRP-1-dimer.test.23329.fchk

                         Distributed Multipole Analysis

Standard DMA

Positions and radii in angstrom
Multipole moments in atomic units, ea_0^k for rank k

C          x = -0.703340  y = -1.990499  z = -5.243880 angstrom
           Maximum rank =  0   Radius =  0.650 angstrom
                   Q00  =  -0.205056

C          x =  1.265660  y =  0.178501  z = -2.872880 angstrom
           Maximum rank =  0   Radius =  0.650 angstrom
                   Q00  =   0.275630

C          x =  0.024660  y = -0.215499  z = -3.437880 angstrom
           Maximum rank =  0   Radius =  0.650 angstrom
                   Q00  =  -0.053277

C          x =  0.300660  y = -1.249499  z = -4.399880 angstrom
           Maximum rank =  0   Radius =  0.650 angstrom
                   Q00  =  -0.128978

C          x =  1.654660  y = -1.430499  z = -4.381880 angstrom
           Maximum rank =  0   Radius =  0.650 angstrom
                   Q00  =   0.073005

C          x =  0.190660  y =  1.770501  z = -1.484880 angstrom
           Maximum rank =  0   Radius =  0.650 angstrom
                   Q00  =  -0.031498

C          x =  1.359660  y =  1.159501  z = -1.898880 angstrom
           Maximum rank =  0   Radius =  0.650 angstrom
                   Q00  =  -0.116963

C          x = -1.048340  y =  1.403501  z = -2.019880 angstrom
           Maximum rank =  0   Radius =  0.650 angstrom
                   Q00  =  -0.114319

C          x = -1.144340  y =  0.413501  z = -2.992880 angstrom
           Maximum rank =  0   Radius =  0.650 angstrom
                   Q00  =  -0.092875

N          x =  2.233660  y = -0.578499  z = -3.473880 angstrom
           Maximum rank =  0   Radius =  0.650 angstrom
                   Q00  =  -0.496780

H          x =  0.234660  y =  2.544501  z = -0.728880 angstrom
           Maximum rank =  0   Radius =  0.325 angstrom
                   Q00  =   0.065563

H          x =  2.315660  y =  1.439501  z = -1.480880 angstrom
           Maximum rank =  0   Radius =  0.325 angstrom
                   Q00  =   0.075756

H          x = -1.944340  y =  1.901501  z = -1.672880 angstrom
           Maximum rank =  0   Radius =  0.325 angstrom
                   Q00  =   0.060007

H          x = -2.097340  y =  0.147501  z = -3.419880 angstrom
           Maximum rank =  0   Radius =  0.325 angstrom
                   Q00  =   0.070742

H          x =  3.235660  y = -0.545499  z = -3.288880 angstrom
           Maximum rank =  0   Radius =  0.325 angstrom
                   Q00  =   0.219072

H          x =  2.191660  y = -2.142499  z = -4.999880 angstrom
           Maximum rank =  0   Radius =  0.325 angstrom
                   Q00  =   0.101635

H          x = -1.462340  y = -2.420499  z = -4.589880 angstrom
           Maximum rank =  0   Radius =  0.325 angstrom
                   Q00  =   0.099277

H          x = -0.181340  y = -2.820499  z = -5.720880 angstrom
           Maximum rank =  0   Radius =  0.325 angstrom
                   Q00  =   0.102241

H          x = -1.200442  y = -1.383648  z = -6.014997 angstrom
           Maximum rank =  0   Radius =  0.325 angstrom
                   Q00  =   0.098836

C          x = -2.383340  y =  1.948501  z =  2.048120 angstrom
           Maximum rank =  0   Radius =  0.650 angstrom
                   Q00  =  -0.203841

C          x = -0.584340  y =  0.228501  z =  2.851120 angstrom
           Maximum rank =  0   Radius =  0.650 angstrom
                   Q00  =  -0.060093

C          x = -1.572340  y =  1.238501  z =  3.091120 angstrom
           Maximum rank =  0   Radius =  0.650 angstrom
                   Q00  =  -0.124937

C          x = -0.086340  y = -0.187499  z =  4.109120 angstrom
           Maximum rank =  0   Radius =  0.650 angstrom
                   Q00  =   0.249692

C          x = -1.654340  y =  1.374501  z =  4.441120 angstrom
           Maximum rank =  0   Radius =  0.650 angstrom
                   Q00  =   0.066640

C          x = -0.065340  y = -0.358499  z =  1.695120 angstrom
           Maximum rank =  0   Radius =  0.650 angstrom
                   Q00  =  -0.089778

C          x =  0.918660  y = -1.321499  z =  1.817120 angstrom
           Maximum rank =  0   Radius =  0.650 angstrom
                   Q00  =  -0.094870

C          x =  1.376660  y = -1.725499  z =  3.067120 angstrom
           Maximum rank =  0   Radius =  0.650 angstrom
                   Q00  =  -0.002652

C          x =  0.885660  y = -1.161499  z =  4.229120 angstrom
           Maximum rank =  0   Radius =  0.650 angstrom
                   Q00  =  -0.125563

N          x = -0.766340  y =  0.525501  z =  5.059120 angstrom
           Maximum rank =  0   Radius =  0.650 angstrom
                   Q00  =  -0.499156

H          x = -0.410340  y = -0.045499  z =  0.721120 angstrom
           Maximum rank =  0   Radius =  0.325 angstrom
                   Q00  =   0.082080

H          x =  1.341660  y = -1.761499  z =  0.925120 angstrom
           Maximum rank =  0   Radius =  0.325 angstrom
                   Q00  =   0.056034

H          x =  2.149660  y = -2.475499  z =  3.122120 angstrom
           Maximum rank =  0   Radius =  0.325 angstrom
                   Q00  =   0.058437

H          x = -1.719340  y =  2.327501  z =  1.269120 angstrom
           Maximum rank =  0   Radius =  0.325 angstrom
                   Q00  =   0.099254

H          x = -2.878340  y =  2.797501  z =  2.511120 angstrom
           Maximum rank =  0   Radius =  0.325 angstrom
                   Q00  =   0.103050

H          x = -2.329340  y =  2.051501  z =  4.955120 angstrom
           Maximum rank =  0   Radius =  0.325 angstrom
                   Q00  =   0.098684

H          x = -0.672340  y =  0.448501  z =  6.067120 angstrom
           Maximum rank =  0   Radius =  0.325 angstrom
                   Q00  =   0.215622

H          x =  1.223660  y = -1.487499  z =  5.199120 angstrom
           Maximum rank =  0   Radius =  0.325 angstrom
                   Q00  =   0.069991

H          x = -3.121117  y =  1.267753  z =  1.598379 angstrom
           Maximum rank =  0   Radius =  0.325 angstrom
                   Q00  =   0.099390

Total multipoles referred to origin at
           x =   0.000000,  y =    0.000000,  z =    0.000000 angstrom
                   Q00  =  -0.000000

Finished at 0:39:51 on 29 Apr 2020

  DMA results are available in the Python driver through the
	  variable('DMA DISTRIBUTED MULTIPOLES')
  and
	  variable('DMA TOTAL MULTIPOLES')
  commands.

    Psi4 stopped on: Wednesday, 29 April 2020 12:39AM
    Psi4 wall time for execution: 4:19:20.13

*** Psi4 exiting successfully. Buy a developer a beer!
