                               Psi4 1.3.2 release

  ==> Input File <==

--------------------------------------------------------------------------
import numpy as np
set {scf_type pk
basis cc-pvdz
d_convergence 10
gdma_switch   0
gdma_limit    0
gdma_origin   [ 0.0,  0.0,  0.0 ]
}
molecule test {
    units Angstrom
    0 1
    --
    0 1
    C                2.415110320352147    -1.289907263191884     1.739633044347101
    C                2.224110320352147    -2.681907263191884     1.139633044347100
    H                3.438110320352147    -0.960907263191884     1.557633044347101
    H                1.745110320352147    -0.582907263191884     1.262633044347101
    H                2.251110320352147    -1.301907263191884     2.815633044347101
    H                2.911110320352147    -3.370907263191884     1.628633044347100
    H                1.195710320352146    -3.048423263191884     1.274022144347100
    H                2.483580320352147    -2.668213263191884     0.070761044347100
    C               -2.245889679647853    -0.880907263191884    -1.095366955652900
    C               -0.578889679647854     0.319092736808116     0.469633044347100
    C               -1.263889679647854     0.170092736808116    -0.693366955652900
    C               -0.140889679647853     2.050092736808116    -0.802366955652900
    N                0.129110320352147     1.494092736808116     0.372633044347100
    N               -0.984889679647853     1.271092736808116    -1.468366955652900
    H               -0.607889679647853    -0.363907263191884     1.307633044347100
    H                0.761110320352147     1.890092736808116     1.059633044347100
    H               -1.861889679647853    -1.847907263191884    -0.776366955652900
    H               -2.325889679647853    -0.888907263191884    -2.180366955652899
    H                0.266110320352147     2.989092736808116    -1.157366955652900
    H               -3.243559679647853    -0.719877263191884    -0.660943955652900

}
e, wfn = energy('scf', return_wfn=True)
gdma(wfn)
dmavals = variable('DMA DISTRIBUTED MULTIPOLES')
charges = np.array(dmavals)
print(charges)
np.save('SSI-121LEU-125HIE-2-dimer.npy', np.array(charges))--------------------------------------------------------------------------

*** tstart() called on ds3
*** at Mon Apr 27 23:22:02 2020

   => Loading Basis Set <=

    Name: CC-PVDZ
    Role: ORBITAL
    Keyword: BASIS
    atoms 1-2, 9-12  entry C          line   138 file /theoryfs2/ds/metcalf/miniconda2/envs/tf2gpu/share/psi4/basis/cc-pvdz.gbs
    atoms 3-8, 15-20 entry H          line    22 file /theoryfs2/ds/metcalf/miniconda2/envs/tf2gpu/share/psi4/basis/cc-pvdz.gbs
    atoms 13-14      entry N          line   168 file /theoryfs2/ds/metcalf/miniconda2/envs/tf2gpu/share/psi4/basis/cc-pvdz.gbs

         ---------------------------------------------------------
                                   SCF
               by Justin Turney, Rob Parrish, Andy Simmonett
                          and Daniel G. A. Smith
                              RHF Reference
                        1 Threads,    500 MiB Core
         ---------------------------------------------------------

  ==> Geometry <==

    Molecular point group: c1
    Full point group: C1

    Geometry (in Angstrom), charge = 0, multiplicity = 1:

       Center              X                  Y                   Z               Mass
    ------------   -----------------  -----------------  -----------------  -----------------
         C            2.415110320352    -1.289907263192     1.739633044347    12.000000000000
         C            2.224110320352    -2.681907263192     1.139633044347    12.000000000000
         H            3.438110320352    -0.960907263192     1.557633044347     1.007825032230
         H            1.745110320352    -0.582907263192     1.262633044347     1.007825032230
         H            2.251110320352    -1.301907263192     2.815633044347     1.007825032230
         H            2.911110320352    -3.370907263192     1.628633044347     1.007825032230
         H            1.195710320352    -3.048423263192     1.274022144347     1.007825032230
         H            2.483580320352    -2.668213263192     0.070761044347     1.007825032230
         C           -2.245889679648    -0.880907263192    -1.095366955653    12.000000000000
         C           -0.578889679648     0.319092736808     0.469633044347    12.000000000000
         C           -1.263889679648     0.170092736808    -0.693366955653    12.000000000000
         C           -0.140889679648     2.050092736808    -0.802366955653    12.000000000000
         N            0.129110320352     1.494092736808     0.372633044347    14.003074004430
         N           -0.984889679648     1.271092736808    -1.468366955653    14.003074004430
         H           -0.607889679648    -0.363907263192     1.307633044347     1.007825032230
         H            0.761110320352     1.890092736808     1.059633044347     1.007825032230
         H           -1.861889679648    -1.847907263192    -0.776366955653     1.007825032230
         H           -2.325889679648    -0.888907263192    -2.180366955653     1.007825032230
         H            0.266110320352     2.989092736808    -1.157366955653     1.007825032230
         H           -3.243559679648    -0.719877263192    -0.660943955653     1.007825032230

  Running in c1 symmetry.

  Rotational constants: A =      0.08951  B =      0.03156  C =      0.02526 [cm^-1]
  Rotational constants: A =   2683.52482  B =    946.26675  C =    757.20198 [MHz]
  Nuclear repulsion =  355.127003819011691

  Charge       = 0
  Multiplicity = 1
  Electrons    = 62
  Nalpha       = 31
  Nbeta        = 31

  ==> Algorithm <==

  SCF Algorithm Type is PK.
  DIIS enabled.
  MOM disabled.
  Fractional occupation disabled.
  Guess Type is SAD.
  Energy threshold   = 1.00e-06
  Density threshold  = 1.00e-10
  Integral threshold = 0.00e+00

  ==> Primary Basis <==

  Basis Set: CC-PVDZ
    Blend: CC-PVDZ
    Number of shells: 84
    Number of basis function: 172
    Number of Cartesian functions: 180
    Spherical Harmonics?: true
    Max angular momentum: 2

  ==> Pre-Iterations <==

   -------------------------------------------------------
    Irrep   Nso     Nmo     Nalpha   Nbeta   Ndocc  Nsocc
   -------------------------------------------------------
     A        172     172       0       0       0       0
   -------------------------------------------------------
    Total     172     172      31      31      31       0
   -------------------------------------------------------

  ==> Integral Setup <==

  Using integral reordering PK algorithm.
  Sizing the integral batches needed.
  Building batch lookup table.
   Calculation information:
      Number of atoms:                  20
      Number of AO shells:              84
      Number of primitives:            236
      Number of atomic orbitals:       180
      Number of basis functions:       172

      Integral cutoff                 1.00e-12
      Number of threads:                 1

	Batch   1 pq = [       0,    9405] index = [             0,44231715] size =     44231715
	Batch   2 pq = [    9405,   13301] index = [      44231715,88464951] size =     44233236
	Batch   3 pq = [   13301,   14878] index = [      88464951,110684881] size =     22219930
  Task number: 11
  Buffer size: 11059200
  Buffer per thread: 2
  We computed 5431517 shell quartets total.
  Whereas there are 6374235 unique shell quartets.

  ==> DiskJK: Disk-Based J/K Matrices <==

    J tasked:                  Yes
    K tasked:                  Yes
    wK tasked:                  No
    Memory [MiB]:              375
    Schwarz Cutoff:          1E-12

    OpenMP threads:              1

  Minimum eigenvalue in the overlap matrix is 1.2017613809E-03.
  Using Symmetric Orthogonalization.

  SCF Guess: Superposition of Atomic Densities via on-the-fly atomic UHF.

  ==> Iterations <==

                        Total Energy        Delta E     RMS |[F,P]|

   @RHF iter SAD:  -342.25399078626037   -3.42254e+02   0.00000e+00
   @RHF iter   1:  -342.88629197485727   -6.32301e-01   3.37153e-03 DIIS
   @RHF iter   2:  -343.05866593628821   -1.72374e-01   1.71581e-03 DIIS
   @RHF iter   3:  -343.09988771355574   -4.12218e-02   4.35457e-04 DIIS
   @RHF iter   4:  -343.10338126939331   -3.49356e-03   1.82295e-04 DIIS
   @RHF iter   5:  -343.10394625354888   -5.64984e-04   2.67297e-05 DIIS
   @RHF iter   6:  -343.10396741945266   -2.11659e-05   1.15884e-05 DIIS
   @RHF iter   7:  -343.10397095819150   -3.53874e-06   4.17367e-06 DIIS
   @RHF iter   8:  -343.10397175015504   -7.91964e-07   1.66515e-06 DIIS
   @RHF iter   9:  -343.10397192277463   -1.72620e-07   6.09406e-07 DIIS
   @RHF iter  10:  -343.10397194000376   -1.72291e-08   1.88317e-07 DIIS
   @RHF iter  11:  -343.10397194190972   -1.90596e-09   8.21618e-08 DIIS
   @RHF iter  12:  -343.10397194217995   -2.70234e-10   3.25987e-08 DIIS
   @RHF iter  13:  -343.10397194222702   -4.70664e-11   8.64199e-09 DIIS
   @RHF iter  14:  -343.10397194223185   -4.83169e-12   3.23588e-09 DIIS
   @RHF iter  15:  -343.10397194223214   -2.84217e-13   1.32366e-09 DIIS
   @RHF iter  16:  -343.10397194223117    9.66338e-13   4.16077e-10 DIIS
   @RHF iter  17:  -343.10397194223304   -1.87583e-12   1.23368e-10 DIIS
   @RHF iter  18:  -343.10397194223356   -5.11591e-13   4.55788e-11 DIIS
  Energy and wave function converged.

  ==> Post-Iterations <==

    Orbital Energies [Eh]
    ---------------------

    Doubly Occupied:

       1A    -15.621993     2A    -15.527907     3A    -11.291411
       4A    -11.248671     5A    -11.239738     6A    -11.221804
       7A    -11.221801     8A    -11.219875     9A     -1.342900
      10A     -1.155342    11A     -1.031454    12A     -1.021933
      13A     -0.941504    14A     -0.841810    15A     -0.818442
      16A     -0.761625    17A     -0.742242    18A     -0.611054
      19A     -0.609862    20A     -0.602445    21A     -0.600005
      22A     -0.591016    23A     -0.554160    24A     -0.539871
      25A     -0.520141    26A     -0.505210    27A     -0.489508
      28A     -0.489115    29A     -0.410606    30A     -0.379155
      31A     -0.308071

    Virtual:

      32A      0.163960    33A      0.174736    34A      0.188683
      35A      0.208829    36A      0.224451    37A      0.228668
      38A      0.235076    39A      0.243342    40A      0.258487
      41A      0.272749    42A      0.279670    43A      0.297703
      44A      0.305886    45A      0.323894    46A      0.382191
      47A      0.389595    48A      0.401756    49A      0.420925
      50A      0.474038    51A      0.490070    52A      0.592750
      53A      0.597522    54A      0.604510    55A      0.608627
      56A      0.633703    57A      0.663795    58A      0.672292
      59A      0.677407    60A      0.697920    61A      0.706270
      62A      0.713476    63A      0.739338    64A      0.768882
      65A      0.806773    66A      0.812274    67A      0.838661
      68A      0.849318    69A      0.872580    70A      0.887229
      71A      0.890058    72A      0.892786    73A      0.898838
      74A      0.911053    75A      0.919735    76A      0.933398
      77A      0.934797    78A      0.954474    79A      0.963841
      80A      0.978499    81A      0.990330    82A      1.031496
      83A      1.070525    84A      1.096448    85A      1.115632
      86A      1.117653    87A      1.129054    88A      1.143399
      89A      1.159093    90A      1.174262    91A      1.247980
      92A      1.278267    93A      1.295210    94A      1.317328
      95A      1.336781    96A      1.364547    97A      1.423085
      98A      1.446883    99A      1.466526   100A      1.475190
     101A      1.487626   102A      1.531423   103A      1.565494
     104A      1.587611   105A      1.622998   106A      1.639197
     107A      1.683145   108A      1.691782   109A      1.697694
     110A      1.718314   111A      1.777215   112A      1.806765
     113A      1.837006   114A      1.858861   115A      1.869116
     116A      1.879877   117A      1.889972   118A      1.901812
     119A      1.917458   120A      1.936764   121A      1.941086
     122A      1.945957   123A      1.950255   124A      1.953759
     125A      1.957552   126A      1.971699   127A      1.983891
     128A      1.997027   129A      2.037014   130A      2.066661
     131A      2.089479   132A      2.099382   133A      2.114940
     134A      2.156510   135A      2.208388   136A      2.239023
     137A      2.257659   138A      2.279513   139A      2.308371
     140A      2.312427   141A      2.347494   142A      2.372435
     143A      2.429053   144A      2.450173   145A      2.460847
     146A      2.472924   147A      2.494516   148A      2.558580
     149A      2.570471   150A      2.580308   151A      2.614439
     152A      2.687098   153A      2.734843   154A      2.758897
     155A      2.760558   156A      2.786572   157A      2.794180
     158A      2.799218   159A      2.840897   160A      2.856217
     161A      2.865763   162A      2.866210   163A      2.892100
     164A      2.931042   165A      2.949908   166A      2.969403
     167A      2.983457   168A      3.068526   169A      3.161027
     170A      3.237356   171A      3.473890   172A      3.801210

    Final Occupation by Irrep:
              A
    DOCC [    31 ]

  @RHF Final Energy:  -343.10397194223356

   => Energetics <=

    Nuclear Repulsion Energy =            355.1270038190116907
    One-Electron Energy =               -1167.5406060072223227
    Two-Electron Energy =                 469.3096302459771323
    Total Energy =                       -343.1039719422335565

Computation Completed

Properties will be evaluated at   0.000000,   0.000000,   0.000000 [a0]

Properties computed using the SCF density matrix

  Nuclear Dipole Moment: [e a0]
     X:     6.5767      Y:   -10.2027      Z:     5.8169

  Electronic Dipole Moment: [e a0]
     X:    -5.8884      Y:    10.3972      Z:    -4.7119

  Dipole Moment: [e a0]
     X:     0.6883      Y:     0.1945      Z:     1.1050     Total:     1.3163

  Dipole Moment: [D]
     X:     1.7496      Y:     0.4943      Z:     2.8086     Total:     3.3457

*** tstop() called on ds3 at Mon Apr 27 23:23:18 2020
Module time:
	user time   =      45.21 seconds =       0.75 minutes
	system time =      21.85 seconds =       0.36 minutes
	total time  =         76 seconds =       1.27 minutes
Total time:
	user time   =      45.21 seconds =       0.75 minutes
	system time =      21.85 seconds =       0.36 minutes
	total time  =         76 seconds =       1.27 minutes
                                     G D M A

                                 by Anthony Stone

                           version 2.2.06, 22 June 2011

               Distributed Multipoles from Gaussian wavefunctions

Starting at 23:23:18 on 27 Apr 2020

Using SCF density matrix from file ./SSI/SSI-121LEU-125HIE-2-dimer.test.2521.fchk

                         Distributed Multipole Analysis

Standard DMA

Positions and radii in angstrom
Multipole moments in atomic units, ea_0^k for rank k

C          x =  2.415110  y = -1.289907  z =  1.739633 angstrom
           Maximum rank =  0   Radius =  0.650 angstrom
                   Q00  =  -0.253618

C          x =  2.224110  y = -2.681907  z =  1.139633 angstrom
           Maximum rank =  0   Radius =  0.650 angstrom
                   Q00  =  -0.225041

H          x =  3.438110  y = -0.960907  z =  1.557633 angstrom
           Maximum rank =  0   Radius =  0.325 angstrom
                   Q00  =   0.078121

H          x =  1.745110  y = -0.582907  z =  1.262633 angstrom
           Maximum rank =  0   Radius =  0.325 angstrom
                   Q00  =   0.082342

H          x =  2.251110  y = -1.301907  z =  2.815633 angstrom
           Maximum rank =  0   Radius =  0.325 angstrom
                   Q00  =   0.075381

H          x =  2.911110  y = -3.370907  z =  1.628633 angstrom
           Maximum rank =  0   Radius =  0.325 angstrom
                   Q00  =   0.078051

H          x =  1.195710  y = -3.048423  z =  1.274022 angstrom
           Maximum rank =  0   Radius =  0.325 angstrom
                   Q00  =   0.078301

H          x =  2.483580  y = -2.668213  z =  0.070761 angstrom
           Maximum rank =  0   Radius =  0.325 angstrom
                   Q00  =   0.083281

C          x = -2.245890  y = -0.880907  z = -1.095367 angstrom
           Maximum rank =  0   Radius =  0.650 angstrom
                   Q00  =  -0.199937

C          x = -0.578890  y =  0.319093  z =  0.469633 angstrom
           Maximum rank =  0   Radius =  0.650 angstrom
                   Q00  =  -0.009656

C          x = -1.263890  y =  0.170093  z = -0.693367 angstrom
           Maximum rank =  0   Radius =  0.650 angstrom
                   Q00  =   0.233396

C          x = -0.140890  y =  2.050093  z = -0.802367 angstrom
           Maximum rank =  0   Radius =  0.650 angstrom
                   Q00  =   0.459793

N          x =  0.129110  y =  1.494093  z =  0.372633 angstrom
           Maximum rank =  0   Radius =  0.650 angstrom
                   Q00  =  -0.474926

N          x = -0.984890  y =  1.271093  z = -1.468367 angstrom
           Maximum rank =  0   Radius =  0.650 angstrom
                   Q00  =  -0.770136

H          x = -0.607890  y = -0.363907  z =  1.307633 angstrom
           Maximum rank =  0   Radius =  0.325 angstrom
                   Q00  =   0.100150

H          x =  0.761110  y =  1.890093  z =  1.059633 angstrom
           Maximum rank =  0   Radius =  0.325 angstrom
                   Q00  =   0.224257

H          x = -1.861890  y = -1.847907  z = -0.776367 angstrom
           Maximum rank =  0   Radius =  0.325 angstrom
                   Q00  =   0.094253

H          x = -2.325890  y = -0.888907  z = -2.180367 angstrom
           Maximum rank =  0   Radius =  0.325 angstrom
                   Q00  =   0.121276

H          x =  0.266110  y =  2.989093  z = -1.157367 angstrom
           Maximum rank =  0   Radius =  0.325 angstrom
                   Q00  =   0.122477

H          x = -3.243560  y = -0.719877  z = -0.660944 angstrom
           Maximum rank =  0   Radius =  0.325 angstrom
                   Q00  =   0.102236

Total multipoles referred to origin at
           x =   0.000000,  y =    0.000000,  z =    0.000000 angstrom
                   Q00  =  -0.000000

Finished at 23:23:18 on 27 Apr 2020

  DMA results are available in the Python driver through the
	  variable('DMA DISTRIBUTED MULTIPOLES')
  and
	  variable('DMA TOTAL MULTIPOLES')
  commands.

    Psi4 stopped on: Monday, 27 April 2020 11:23PM
    Psi4 wall time for execution: 0:01:15.86

*** Psi4 exiting successfully. Buy a developer a beer!
