                               Psi4 1.3.2 release

  ==> Input File <==

--------------------------------------------------------------------------
import numpy as np
set {scf_type pk
basis cc-pvdz
d_convergence 10
gdma_switch   0
gdma_limit    0
gdma_origin   [ 0.0,  0.0,  0.0 ]
}
molecule test {
    units Angstrom
    0 1
    --
    0 1
    C               -1.824634784347049     0.565880035326915     0.060475301834746
    C               -2.176634784347049     1.613880035326915    -0.938524698165254
    H               -1.028634784347049    -0.095119964673085    -0.252524698165254
    H               -1.512634784347049     1.051880035326915     0.982475301834746
    H               -2.703634784347049     0.010880035326915     0.299475301834746
    H               -1.322634784347049     2.272880035326915    -0.993524698165254
    H               -3.034634784347049     2.183880035326915    -0.576524698165254
    H               -2.416554784347049     1.155070035326915    -1.909054698165254
    C                1.689365215652951    -0.753119964673085    -0.164524698165254
    C                2.312365215652951    -1.428119964673085     1.038475301834746
    H                1.439365215652951     0.280880035326915     0.077475301834746
    H                2.403365215652951    -0.757119964673085    -0.989524698165254
    H                0.794365215652951    -1.288119964673085    -0.481524698165254
    H                3.291365215652950    -0.997119964673085     1.241475301834746
    H                1.660955215652951    -1.321659964673085     1.918435301834746
    H                2.423825215652951    -2.478709964673085     0.732145301834746

}
e, wfn = energy('scf', return_wfn=True)
gdma(wfn)
dmavals = variable('DMA DISTRIBUTED MULTIPOLES')
charges = np.array(dmavals)
print(charges)
np.save('SSI-012ILE-028LEU-1-dimer.npy', np.array(charges))--------------------------------------------------------------------------

*** tstart() called on ds3
*** at Mon Apr 27 19:24:56 2020

   => Loading Basis Set <=

    Name: CC-PVDZ
    Role: ORBITAL
    Keyword: BASIS
    atoms 1-2, 9-10  entry C          line   138 file /theoryfs2/ds/metcalf/miniconda2/envs/tf2gpu/share/psi4/basis/cc-pvdz.gbs
    atoms 3-8, 11-16 entry H          line    22 file /theoryfs2/ds/metcalf/miniconda2/envs/tf2gpu/share/psi4/basis/cc-pvdz.gbs

         ---------------------------------------------------------
                                   SCF
               by Justin Turney, Rob Parrish, Andy Simmonett
                          and Daniel G. A. Smith
                              RHF Reference
                        1 Threads,    500 MiB Core
         ---------------------------------------------------------

  ==> Geometry <==

    Molecular point group: c1
    Full point group: C1

    Geometry (in Angstrom), charge = 0, multiplicity = 1:

       Center              X                  Y                   Z               Mass
    ------------   -----------------  -----------------  -----------------  -----------------
         C           -1.824634784347     0.565880035327     0.060475301835    12.000000000000
         C           -2.176634784347     1.613880035327    -0.938524698165    12.000000000000
         H           -1.028634784347    -0.095119964673    -0.252524698165     1.007825032230
         H           -1.512634784347     1.051880035327     0.982475301835     1.007825032230
         H           -2.703634784347     0.010880035327     0.299475301835     1.007825032230
         H           -1.322634784347     2.272880035327    -0.993524698165     1.007825032230
         H           -3.034634784347     2.183880035327    -0.576524698165     1.007825032230
         H           -2.416554784347     1.155070035327    -1.909054698165     1.007825032230
         C            1.689365215653    -0.753119964673    -0.164524698165    12.000000000000
         C            2.312365215653    -1.428119964673     1.038475301835    12.000000000000
         H            1.439365215653     0.280880035327     0.077475301835     1.007825032230
         H            2.403365215653    -0.757119964673    -0.989524698165     1.007825032230
         H            0.794365215653    -1.288119964673    -0.481524698165     1.007825032230
         H            3.291365215653    -0.997119964673     1.241475301835     1.007825032230
         H            1.660955215653    -1.321659964673     1.918435301835     1.007825032230
         H            2.423825215653    -2.478709964673     0.732145301835     1.007825032230

  Running in c1 symmetry.

  Rotational constants: A =      0.55093  B =      0.04749  C =      0.04545 [cm^-1]
  Rotational constants: A =  16516.43560  B =   1423.71301  C =   1362.59083 [MHz]
  Nuclear repulsion =  122.809777548889784

  Charge       = 0
  Multiplicity = 1
  Electrons    = 36
  Nalpha       = 18
  Nbeta        = 18

  ==> Algorithm <==

  SCF Algorithm Type is PK.
  DIIS enabled.
  MOM disabled.
  Fractional occupation disabled.
  Guess Type is SAD.
  Energy threshold   = 1.00e-06
  Density threshold  = 1.00e-10
  Integral threshold = 0.00e+00

  ==> Primary Basis <==

  Basis Set: CC-PVDZ
    Blend: CC-PVDZ
    Number of shells: 60
    Number of basis function: 116
    Number of Cartesian functions: 120
    Spherical Harmonics?: true
    Max angular momentum: 2

  ==> Pre-Iterations <==

   -------------------------------------------------------
    Irrep   Nso     Nmo     Nalpha   Nbeta   Ndocc  Nsocc
   -------------------------------------------------------
     A        116     116       0       0       0       0
   -------------------------------------------------------
    Total     116     116      18      18      18       0
   -------------------------------------------------------

  ==> Integral Setup <==

  Using integral reordering PK algorithm.
  Sizing the integral batches needed.
  Building batch lookup table.
   Calculation information:
      Number of atoms:                  16
      Number of AO shells:              60
      Number of primitives:            148
      Number of atomic orbitals:       120
      Number of basis functions:       116

      Integral cutoff                 1.00e-12
      Number of threads:                 1

	Batch   1 pq = [       0,    6786] index = [             0,23028291] size =     23028291
  Task number: 3
  Buffer size: 11059200
  Buffer per thread: 2
  We computed 1426365 shell quartets total.
  Whereas there are 1675365 unique shell quartets.

  ==> DiskJK: Disk-Based J/K Matrices <==

    J tasked:                  Yes
    K tasked:                  Yes
    wK tasked:                  No
    Memory [MiB]:              375
    Schwarz Cutoff:          1E-12

    OpenMP threads:              1

  Minimum eigenvalue in the overlap matrix is 6.9161294285E-03.
  Using Symmetric Orthogonalization.

  SCF Guess: Superposition of Atomic Densities via on-the-fly atomic UHF.

  ==> Iterations <==

                        Total Energy        Delta E     RMS |[F,P]|

   @RHF iter SAD:  -157.48370607327180   -1.57484e+02   0.00000e+00
   @RHF iter   1:  -158.29500010874690   -8.11294e-01   4.32561e-03 DIIS
   @RHF iter   2:  -158.43359288019047   -1.38593e-01   1.84770e-03 DIIS
   @RHF iter   3:  -158.45821361422335   -2.46207e-02   3.54342e-04 DIIS
   @RHF iter   4:  -158.46008523536329   -1.87162e-03   3.91243e-05 DIIS
   @RHF iter   5:  -158.46010969828788   -2.44629e-05   6.41723e-06 DIIS
   @RHF iter   6:  -158.46011033733126   -6.39043e-07   8.93978e-07 DIIS
   @RHF iter   7:  -158.46011034677144   -9.44019e-09   2.78837e-07 DIIS
   @RHF iter   8:  -158.46011034747661   -7.05171e-10   4.85528e-08 DIIS
   @RHF iter   9:  -158.46011034751851   -4.18936e-11   9.71370e-09 DIIS
   @RHF iter  10:  -158.46011034752024   -1.73372e-12   2.31031e-09 DIIS
   @RHF iter  11:  -158.46011034752013    1.13687e-13   4.41606e-10 DIIS
   @RHF iter  12:  -158.46011034752007    5.68434e-14   1.38554e-10 DIIS
   @RHF iter  13:  -158.46011034752041   -3.41061e-13   3.00042e-11 DIIS
  Energy and wave function converged.

  ==> Post-Iterations <==

    Orbital Energies [Eh]
    ---------------------

    Doubly Occupied:

       1A    -11.218596     2A    -11.215714     3A    -11.213216
       4A    -11.206455     5A     -1.029979     6A     -1.023921
       7A     -0.836882     8A     -0.831258     9A     -0.610749
      10A     -0.605285    11A     -0.603237    12A     -0.597047
      13A     -0.510477    14A     -0.501304    15A     -0.488840
      16A     -0.482791    17A     -0.479871    18A     -0.475897

    Virtual:

      19A      0.173214    20A      0.196251    21A      0.230861
      22A      0.238344    23A      0.241241    24A      0.253615
      25A      0.263416    26A      0.277313    27A      0.283527
      28A      0.287108    29A      0.306087    30A      0.366011
      31A      0.392926    32A      0.412819    33A      0.576588
      34A      0.600747    35A      0.602463    36A      0.608997
      37A      0.616957    38A      0.628536    39A      0.650230
      40A      0.674641    41A      0.690059    42A      0.816338
      43A      0.852233    44A      0.870662    45A      0.877537
      46A      0.889383    47A      0.894833    48A      0.896160
      49A      0.903216    50A      0.907147    51A      0.911217
      52A      0.921687    53A      0.948457    54A      0.960592
      55A      0.974152    56A      1.007804    57A      1.118864
      58A      1.126462    59A      1.137951    60A      1.173885
      61A      1.233442    62A      1.301089    63A      1.473732
      64A      1.483453    65A      1.493192    66A      1.515276
      67A      1.563202    68A      1.576009    69A      1.671315
      70A      1.677346    71A      1.697847    72A      1.712366
      73A      1.845134    74A      1.846131    75A      1.861497
      76A      1.889284    77A      1.905657    78A      1.921408
      79A      1.939367    80A      1.943051    81A      1.950319
      82A      1.957433    83A      1.962360    84A      1.979194
      85A      1.984323    86A      1.999142    87A      2.000816
      88A      2.026807    89A      2.093210    90A      2.108361
      91A      2.141729    92A      2.172453    93A      2.275760
      94A      2.297005    95A      2.314857    96A      2.341055
      97A      2.449388    98A      2.468967    99A      2.481389
     100A      2.491636   101A      2.569288   102A      2.576704
     103A      2.595097   104A      2.614521   105A      2.764892
     106A      2.783882   107A      2.793449   108A      2.815929
     109A      2.829060   110A      2.847463   111A      2.863281
     112A      2.886161   113A      2.943359   114A      2.968982
     115A      2.999296   116A      3.012139

    Final Occupation by Irrep:
              A
    DOCC [    18 ]

  @RHF Final Energy:  -158.46011034752041

   => Energetics <=

    Nuclear Repulsion Energy =            122.8097775488897838
    One-Electron Energy =                -454.6767373875123326
    Two-Electron Energy =                 173.4068494911021503
    Total Energy =                       -158.4601103475204127

Computation Completed

Properties will be evaluated at   0.000000,   0.000000,   0.000000 [a0]

Properties computed using the SCF density matrix

  Nuclear Dipole Moment: [e a0]
     X:    -0.0051      Y:     0.0165      Z:     0.0458

  Electronic Dipole Moment: [e a0]
     X:     0.0322      Y:    -0.0284      Z:    -0.0382

  Dipole Moment: [e a0]
     X:     0.0271      Y:    -0.0119      Z:     0.0075     Total:     0.0305

  Dipole Moment: [D]
     X:     0.0689      Y:    -0.0303      Z:     0.0191     Total:     0.0776

*** tstop() called on ds3 at Mon Apr 27 19:25:08 2020
Module time:
	user time   =       7.85 seconds =       0.13 minutes
	system time =       3.04 seconds =       0.05 minutes
	total time  =         12 seconds =       0.20 minutes
Total time:
	user time   =       7.85 seconds =       0.13 minutes
	system time =       3.04 seconds =       0.05 minutes
	total time  =         12 seconds =       0.20 minutes
                                     G D M A

                                 by Anthony Stone

                           version 2.2.06, 22 June 2011

               Distributed Multipoles from Gaussian wavefunctions

Starting at 19:25:8 on 27 Apr 2020

Using SCF density matrix from file ./SSI/SSI-012ILE-028LEU-1-dimer.test.6048.fchk

                         Distributed Multipole Analysis

Standard DMA

Positions and radii in angstrom
Multipole moments in atomic units, ea_0^k for rank k

C          x = -1.824635  y =  0.565880  z =  0.060475 angstrom
           Maximum rank =  0   Radius =  0.650 angstrom
                   Q00  =  -0.237852

C          x = -2.176635  y =  1.613880  z = -0.938525 angstrom
           Maximum rank =  0   Radius =  0.650 angstrom
                   Q00  =  -0.214037

H          x = -1.028635  y = -0.095120  z = -0.252525 angstrom
           Maximum rank =  0   Radius =  0.325 angstrom
                   Q00  =   0.086755

H          x = -1.512635  y =  1.051880  z =  0.982475 angstrom
           Maximum rank =  0   Radius =  0.325 angstrom
                   Q00  =   0.067664

H          x = -2.703635  y =  0.010880  z =  0.299475 angstrom
           Maximum rank =  0   Radius =  0.325 angstrom
                   Q00  =   0.072868

H          x = -1.322635  y =  2.272880  z = -0.993525 angstrom
           Maximum rank =  0   Radius =  0.325 angstrom
                   Q00  =   0.072715

H          x = -3.034635  y =  2.183880  z = -0.576525 angstrom
           Maximum rank =  0   Radius =  0.325 angstrom
                   Q00  =   0.076059

H          x = -2.416555  y =  1.155070  z = -1.909055 angstrom
           Maximum rank =  0   Radius =  0.325 angstrom
                   Q00  =   0.075199

C          x =  1.689365  y = -0.753120  z = -0.164525 angstrom
           Maximum rank =  0   Radius =  0.650 angstrom
                   Q00  =  -0.245633

C          x =  2.312365  y = -1.428120  z =  1.038475 angstrom
           Maximum rank =  0   Radius =  0.650 angstrom
                   Q00  =  -0.211791

H          x =  1.439365  y =  0.280880  z =  0.077475 angstrom
           Maximum rank =  0   Radius =  0.325 angstrom
                   Q00  =   0.074857

H          x =  2.403365  y = -0.757120  z = -0.989525 angstrom
           Maximum rank =  0   Radius =  0.325 angstrom
                   Q00  =   0.076155

H          x =  0.794365  y = -1.288120  z = -0.481525 angstrom
           Maximum rank =  0   Radius =  0.325 angstrom
                   Q00  =   0.076262

H          x =  3.291365  y = -0.997120  z =  1.241475 angstrom
           Maximum rank =  0   Radius =  0.325 angstrom
                   Q00  =   0.080030

H          x =  1.660955  y = -1.321660  z =  1.918435 angstrom
           Maximum rank =  0   Radius =  0.325 angstrom
                   Q00  =   0.079370

H          x =  2.423825  y = -2.478710  z =  0.732145 angstrom
           Maximum rank =  0   Radius =  0.325 angstrom
                   Q00  =   0.071380

Total multipoles referred to origin at
           x =   0.000000,  y =    0.000000,  z =    0.000000 angstrom
                   Q00  =  -0.000000

Finished at 19:25:8 on 27 Apr 2020

  DMA results are available in the Python driver through the
	  variable('DMA DISTRIBUTED MULTIPOLES')
  and
	  variable('DMA TOTAL MULTIPOLES')
  commands.

    Psi4 stopped on: Monday, 27 April 2020 07:25PM
    Psi4 wall time for execution: 0:00:11.38

*** Psi4 exiting successfully. Buy a developer a beer!
