                               Psi4 1.3.2 release

  ==> Input File <==

--------------------------------------------------------------------------
import numpy as np
set {scf_type pk
basis cc-pvdz
d_convergence 10
gdma_switch   0
gdma_limit    0
gdma_origin   [ 0.0,  0.0,  0.0 ]
}
molecule test {
    units Angstrom
    0 1
    --
    0 1
    C                0.245702209072446     0.937168045851906     1.049229444330093
    C                1.617702209072446     0.833168045851906     0.424229444330093
    C                0.208702209072446     2.310168045851905     1.707229444330093
    H                0.129702209072446     0.137168045851906     1.782229444330093
    H               -0.539297790927554     0.868168045851906     0.300229444330093
    H                1.967702209072446    -0.197831954148094     0.373229444330093
    H                1.561702209072446     1.264168045851906    -0.572770555669907
    H               -0.303297790927554     2.991168045851906     1.033229444330093
    H                2.277972209072446     1.461128045851906     1.040439444330093
    H                1.265212209072446     2.606958045851906     1.782749444330093
    H               -0.251977790927554     2.244148045851905     2.703929444330093
    C               -1.070297790927554    -1.565831954148094    -0.941770555669907
    C               -0.996297790927554    -2.454831954148094    -2.167770555669907
    H               -1.884297790927554    -1.876831954148094    -0.288770555669907
    H               -0.139297790927554    -1.638831954148094    -0.378770555669907
    H               -1.231297790927554    -0.534831954148094    -1.256770555669907
    H               -0.917297790927554    -3.488831954148094    -1.832770555669907
    H               -1.903237790927554    -2.335101954148094    -2.778610555669907
    H               -0.097907790927554    -2.213151954148094    -2.754710555669907

}
e, wfn = energy('scf', return_wfn=True)
gdma(wfn)
dmavals = variable('DMA DISTRIBUTED MULTIPOLES')
charges = np.array(dmavals)
print(charges)
np.save('SSI-166PRO-172VAL-1-dimer.npy', np.array(charges))--------------------------------------------------------------------------

*** tstart() called on ds3
*** at Sun Apr 26 23:20:37 2020

   => Loading Basis Set <=

    Name: CC-PVDZ
    Role: ORBITAL
    Keyword: BASIS
    atoms 1-3, 12-13  entry C          line   138 file /theoryfs2/ds/metcalf/miniconda2/envs/tf2gpu/share/psi4/basis/cc-pvdz.gbs
    atoms 4-11, 14-19 entry H          line    22 file /theoryfs2/ds/metcalf/miniconda2/envs/tf2gpu/share/psi4/basis/cc-pvdz.gbs

         ---------------------------------------------------------
                                   SCF
               by Justin Turney, Rob Parrish, Andy Simmonett
                          and Daniel G. A. Smith
                              RHF Reference
                        1 Threads,    500 MiB Core
         ---------------------------------------------------------

  ==> Geometry <==

    Molecular point group: c1
    Full point group: C1

    Geometry (in Angstrom), charge = 0, multiplicity = 1:

       Center              X                  Y                   Z               Mass
    ------------   -----------------  -----------------  -----------------  -----------------
         C            0.245702209072     0.937168045852     1.049229444330    12.000000000000
         C            1.617702209072     0.833168045852     0.424229444330    12.000000000000
         C            0.208702209072     2.310168045852     1.707229444330    12.000000000000
         H            0.129702209072     0.137168045852     1.782229444330     1.007825032230
         H           -0.539297790928     0.868168045852     0.300229444330     1.007825032230
         H            1.967702209072    -0.197831954148     0.373229444330     1.007825032230
         H            1.561702209072     1.264168045852    -0.572770555670     1.007825032230
         H           -0.303297790928     2.991168045852     1.033229444330     1.007825032230
         H            2.277972209072     1.461128045852     1.040439444330     1.007825032230
         H            1.265212209072     2.606958045852     1.782749444330     1.007825032230
         H           -0.251977790928     2.244148045852     2.703929444330     1.007825032230
         C           -1.070297790928    -1.565831954148    -0.941770555670    12.000000000000
         C           -0.996297790928    -2.454831954148    -2.167770555670    12.000000000000
         H           -1.884297790928    -1.876831954148    -0.288770555670     1.007825032230
         H           -0.139297790928    -1.638831954148    -0.378770555670     1.007825032230
         H           -1.231297790928    -0.534831954148    -1.256770555670     1.007825032230
         H           -0.917297790928    -3.488831954148    -1.832770555670     1.007825032230
         H           -1.903237790928    -2.335101954148    -2.778610555670     1.007825032230
         H           -0.097907790928    -2.213151954148    -2.754710555670     1.007825032230

  Running in c1 symmetry.

  Rotational constants: A =      0.31092  B =      0.03907  C =      0.03622 [cm^-1]
  Rotational constants: A =   9321.17005  B =   1171.20238  C =   1085.98727 [MHz]
  Nuclear repulsion =  180.809079120920273

  Charge       = 0
  Multiplicity = 1
  Electrons    = 44
  Nalpha       = 22
  Nbeta        = 22

  ==> Algorithm <==

  SCF Algorithm Type is PK.
  DIIS enabled.
  MOM disabled.
  Fractional occupation disabled.
  Guess Type is SAD.
  Energy threshold   = 1.00e-06
  Density threshold  = 1.00e-10
  Integral threshold = 0.00e+00

  ==> Primary Basis <==

  Basis Set: CC-PVDZ
    Blend: CC-PVDZ
    Number of shells: 72
    Number of basis function: 140
    Number of Cartesian functions: 145
    Spherical Harmonics?: true
    Max angular momentum: 2

  ==> Pre-Iterations <==

   -------------------------------------------------------
    Irrep   Nso     Nmo     Nalpha   Nbeta   Ndocc  Nsocc
   -------------------------------------------------------
     A        140     140       0       0       0       0
   -------------------------------------------------------
    Total     140     140      22      22      22       0
   -------------------------------------------------------

  ==> Integral Setup <==

  Using integral reordering PK algorithm.
  Sizing the integral batches needed.
  Building batch lookup table.
   Calculation information:
      Number of atoms:                  19
      Number of AO shells:              72
      Number of primitives:            180
      Number of atomic orbitals:       145
      Number of basis functions:       140

      Integral cutoff                 1.00e-12
      Number of threads:                 1

	Batch   1 pq = [       0,    9405] index = [             0,44231715] size =     44231715
	Batch   2 pq = [    9405,    9870] index = [      44231715,48713385] size =      4481670
  Task number: 5
  Buffer size: 11059200
  Buffer per thread: 2
  We computed 2873290 shell quartets total.
  Whereas there are 3454506 unique shell quartets.

  ==> DiskJK: Disk-Based J/K Matrices <==

    J tasked:                  Yes
    K tasked:                  Yes
    wK tasked:                  No
    Memory [MiB]:              375
    Schwarz Cutoff:          1E-12

    OpenMP threads:              1

  Minimum eigenvalue in the overlap matrix is 4.6342055598E-03.
  Using Symmetric Orthogonalization.

  SCF Guess: Superposition of Atomic Densities via on-the-fly atomic UHF.

  ==> Iterations <==

                        Total Energy        Delta E     RMS |[F,P]|

   @RHF iter SAD:  -196.54484878496942   -1.96545e+02   0.00000e+00
   @RHF iter   1:  -197.28517447376322   -7.40326e-01   3.87706e-03 DIIS
   @RHF iter   2:  -197.44910399687387   -1.63930e-01   1.68278e-03 DIIS
   @RHF iter   3:  -197.47884450874432   -2.97405e-02   3.30240e-04 DIIS
   @RHF iter   4:  -197.48108015883474   -2.23565e-03   4.95731e-05 DIIS
   @RHF iter   5:  -197.48112075505367   -4.05962e-05   1.52437e-05 DIIS
   @RHF iter   6:  -197.48112435885614   -3.60380e-06   2.66808e-06 DIIS
   @RHF iter   7:  -197.48112448866183   -1.29806e-07   5.04818e-07 DIIS
   @RHF iter   8:  -197.48112449406733   -5.40550e-09   1.19961e-07 DIIS
   @RHF iter   9:  -197.48112449436968   -3.02350e-10   3.83914e-08 DIIS
   @RHF iter  10:  -197.48112449440151   -3.18323e-11   8.18730e-09 DIIS
   @RHF iter  11:  -197.48112449440339   -1.87583e-12   1.56065e-09 DIIS
   @RHF iter  12:  -197.48112449440390   -5.11591e-13   3.18490e-10 DIIS
   @RHF iter  13:  -197.48112449440328    6.25278e-13   6.71092e-11 DIIS
  Energy and wave function converged.

  ==> Post-Iterations <==

    Orbital Energies [Eh]
    ---------------------

    Doubly Occupied:

       1A    -11.217880     2A    -11.215134     3A    -11.211739
       4A    -11.211349     5A    -11.210704     6A     -1.064626
       7A     -1.021650     8A     -0.914606     9A     -0.835601
      10A     -0.796280    11A     -0.633945    12A     -0.613011
      13A     -0.601093    14A     -0.598083    15A     -0.543056
      16A     -0.516892    17A     -0.504084    18A     -0.488355
      19A     -0.484910    20A     -0.474003    21A     -0.463622
      22A     -0.453856

    Virtual:

      23A      0.171907    24A      0.198685    25A      0.210077
      26A      0.224011    27A      0.231171    28A      0.245691
      29A      0.263328    30A      0.273471    31A      0.275849
      32A      0.284444    33A      0.297218    34A      0.324177
      35A      0.332323    36A      0.350871    37A      0.400539
      38A      0.402624    39A      0.448478    40A      0.566434
      41A      0.569350    42A      0.586316    43A      0.606120
      44A      0.611813    45A      0.645992    46A      0.649243
      47A      0.687076    48A      0.714391    49A      0.760855
      50A      0.773633    51A      0.811915    52A      0.846520
      53A      0.860939    54A      0.880927    55A      0.886620
      56A      0.891589    57A      0.898156    58A      0.902595
      59A      0.910826    60A      0.913617    61A      0.916806
      62A      0.924323    63A      0.929593    64A      0.946186
      65A      0.960869    66A      0.970740    67A      0.985505
      68A      1.009759    69A      1.068693    70A      1.099126
      71A      1.125938    72A      1.167763    73A      1.189981
      74A      1.256251    75A      1.417886    76A      1.482916
      77A      1.489133    78A      1.496911    79A      1.515442
      80A      1.575279    81A      1.603753    82A      1.632373
      83A      1.643695    84A      1.678194    85A      1.693066
      86A      1.715278    87A      1.729990    88A      1.798156
      89A      1.854087    90A      1.862315    91A      1.868241
      92A      1.887570    93A      1.915548    94A      1.925325
      95A      1.927514    96A      1.933633    97A      1.942387
      98A      1.949131    99A      1.962994   100A      1.971995
     101A      1.978735   102A      1.993264   103A      2.011153
     104A      2.024822   105A      2.046379   106A      2.061540
     107A      2.098088   108A      2.122520   109A      2.125559
     110A      2.166095   111A      2.237621   112A      2.276934
     113A      2.306319   114A      2.312784   115A      2.336239
     116A      2.364624   117A      2.420541   118A      2.440283
     119A      2.461933   120A      2.482837   121A      2.504731
     122A      2.560754   123A      2.568441   124A      2.582922
     125A      2.646315   126A      2.721671   127A      2.760589
     128A      2.764581   129A      2.775746   130A      2.796080
     131A      2.804956   132A      2.838025   133A      2.846618
     134A      2.849478   135A      2.859388   136A      2.904298
     137A      2.930943   138A      2.957116   139A      2.976642
     140A      3.064709

    Final Occupation by Irrep:
              A
    DOCC [    22 ]

  @RHF Final Energy:  -197.48112449440328

   => Energetics <=

    Nuclear Repulsion Energy =            180.8090791209202735
    One-Electron Energy =                -622.4314528648118312
    Two-Electron Energy =                 244.1412492494882827
    Total Energy =                       -197.4811244944032751

Computation Completed

Properties will be evaluated at   0.000000,   0.000000,   0.000000 [a0]

Properties computed using the SCF density matrix

  Nuclear Dipole Moment: [e a0]
     X:    -0.0615      Y:    -0.6680      Z:    -0.7942

  Electronic Dipole Moment: [e a0]
     X:     0.0286      Y:     0.6331      Z:     0.7862

  Dipole Moment: [e a0]
     X:    -0.0329      Y:    -0.0349      Z:    -0.0079     Total:     0.0486

  Dipole Moment: [D]
     X:    -0.0837      Y:    -0.0887      Z:    -0.0201     Total:     0.1236

*** tstop() called on ds3 at Sun Apr 26 23:20:57 2020
Module time:
	user time   =      14.83 seconds =       0.25 minutes
	system time =       5.91 seconds =       0.10 minutes
	total time  =         20 seconds =       0.33 minutes
Total time:
	user time   =      14.83 seconds =       0.25 minutes
	system time =       5.91 seconds =       0.10 minutes
	total time  =         20 seconds =       0.33 minutes
                                     G D M A

                                 by Anthony Stone

                           version 2.2.06, 22 June 2011

               Distributed Multipoles from Gaussian wavefunctions

Starting at 23:20:57 on 26 Apr 2020

Using SCF density matrix from file ./SSI/SSI-166PRO-172VAL-1-dimer.test.29229.fchk

                         Distributed Multipole Analysis

Standard DMA

Positions and radii in angstrom
Multipole moments in atomic units, ea_0^k for rank k

C          x =  0.245702  y =  0.937168  z =  1.049229 angstrom
           Maximum rank =  0   Radius =  0.650 angstrom
                   Q00  =  -0.115860

C          x =  1.617702  y =  0.833168  z =  0.424229 angstrom
           Maximum rank =  0   Radius =  0.650 angstrom
                   Q00  =  -0.213254

C          x =  0.208702  y =  2.310168  z =  1.707229 angstrom
           Maximum rank =  0   Radius =  0.650 angstrom
                   Q00  =  -0.228375

H          x =  0.129702  y =  0.137168  z =  1.782229 angstrom
           Maximum rank =  0   Radius =  0.325 angstrom
                   Q00  =   0.055157

H          x = -0.539298  y =  0.868168  z =  0.300229 angstrom
           Maximum rank =  0   Radius =  0.325 angstrom
                   Q00  =   0.060963

H          x =  1.967702  y = -0.197832  z =  0.373229 angstrom
           Maximum rank =  0   Radius =  0.325 angstrom
                   Q00  =   0.080007

H          x =  1.561702  y =  1.264168  z = -0.572771 angstrom
           Maximum rank =  0   Radius =  0.325 angstrom
                   Q00  =   0.079159

H          x = -0.303298  y =  2.991168  z =  1.033229 angstrom
           Maximum rank =  0   Radius =  0.325 angstrom
                   Q00  =   0.073209

H          x =  2.277972  y =  1.461128  z =  1.040439 angstrom
           Maximum rank =  0   Radius =  0.325 angstrom
                   Q00  =   0.053412

H          x =  1.265212  y =  2.606958  z =  1.782749 angstrom
           Maximum rank =  0   Radius =  0.325 angstrom
                   Q00  =   0.065634

H          x = -0.251978  y =  2.244148  z =  2.703929 angstrom
           Maximum rank =  0   Radius =  0.325 angstrom
                   Q00  =   0.088449

C          x = -1.070298  y = -1.565832  z = -0.941771 angstrom
           Maximum rank =  0   Radius =  0.650 angstrom
                   Q00  =  -0.238833

C          x = -0.996298  y = -2.454832  z = -2.167771 angstrom
           Maximum rank =  0   Radius =  0.650 angstrom
                   Q00  =  -0.223778

H          x = -1.884298  y = -1.876832  z = -0.288771 angstrom
           Maximum rank =  0   Radius =  0.325 angstrom
                   Q00  =   0.079474

H          x = -0.139298  y = -1.638832  z = -0.378771 angstrom
           Maximum rank =  0   Radius =  0.325 angstrom
                   Q00  =   0.078744

H          x = -1.231298  y = -0.534832  z = -1.256771 angstrom
           Maximum rank =  0   Radius =  0.325 angstrom
                   Q00  =   0.072528

H          x = -0.917298  y = -3.488832  z = -1.832771 angstrom
           Maximum rank =  0   Radius =  0.325 angstrom
                   Q00  =   0.076987

H          x = -1.903238  y = -2.335102  z = -2.778611 angstrom
           Maximum rank =  0   Radius =  0.325 angstrom
                   Q00  =   0.078655

H          x = -0.097908  y = -2.213152  z = -2.754711 angstrom
           Maximum rank =  0   Radius =  0.325 angstrom
                   Q00  =   0.077720

Total multipoles referred to origin at
           x =   0.000000,  y =    0.000000,  z =    0.000000 angstrom
                   Q00  =  -0.000000

Finished at 23:20:57 on 26 Apr 2020

  DMA results are available in the Python driver through the
	  variable('DMA DISTRIBUTED MULTIPOLES')
  and
	  variable('DMA TOTAL MULTIPOLES')
  commands.

    Psi4 stopped on: Sunday, 26 April 2020 11:20PM
    Psi4 wall time for execution: 0:00:20.38

*** Psi4 exiting successfully. Buy a developer a beer!
