                               Psi4 1.3.2 release

  ==> Input File <==

--------------------------------------------------------------------------
import numpy as np
set {scf_type pk
basis cc-pvdz
d_convergence 10
gdma_switch   0
gdma_limit    0
gdma_origin   [ 0.0,  0.0,  0.0 ]
}
molecule test {
    units Angstrom
    0 1
    --
    0 1
    C               -2.336631324462663     2.295433623562501     0.130946910766954
    C               -1.935631324462662     3.779433623562501     0.345946910766954
    C               -3.841631324462663     1.962433623562501     0.026946910766954
    H               -1.884631324462662     1.960433623562501    -0.803053089233046
    H               -1.903631324462662     1.691433623562501     0.927946910766954
    H               -2.516631324462662     4.396433623562502    -0.344053089233046
    H               -4.281631324462662     2.576433623562501    -0.758053089233046
    H               -0.863821324462662     3.926933623562501     0.147296910766954
    H               -2.143861324462662     4.114913623562501     1.372636910766954
    H               -3.981041324462662     0.907913623562501    -0.253303089233046
    H               -4.371091324462661     2.175633623562501     0.967276910766954
    C                0.352368675537338     0.061433623562501     0.304946910766954
    C                1.147368675537338     1.039433623562501     1.175946910766954
    C                2.561368675537338    -0.872566376437499     0.774946910766954
    C               -0.202631324462662    -2.251566376437499    -1.457053089233046
    C                1.097368675537338    -2.140566376437499    -0.672053089233046
    O                1.960368675537338    -3.021566376437499    -0.784053089233046
    N                1.275368675537338    -1.062566376437499     0.113946910766954
    H               -0.539631324462662    -0.274566376437499     0.834946910766954
    H                0.094368675537338     0.531433623562501    -0.644053089233046
    H                0.557368675537338     1.356433623562501     2.034946910766954
    H                1.400368675537337     1.911433623562501     0.576946910766954
    H                3.324368675537337    -0.700566376437499     0.013946910766954
    H               -0.808631324462662    -1.350566376437499    -1.366053089233046
    H                2.078618675537338     0.548023623562501     1.494216910766954
    H                2.451768675537338     0.037123623562501     1.383596910766954
    H                2.832138675537338    -1.741506376437499     1.392706910766954
    H                0.135758675537338    -2.362856376437499    -2.497783089233046
    H               -0.810681324462662    -3.107126376437499    -1.127993089233046

}
e, wfn = energy('scf', return_wfn=True)
gdma(wfn)
dmavals = variable('DMA DISTRIBUTED MULTIPOLES')
charges = np.array(dmavals)
print(charges)
np.save('SSI-074LEU-102PRO-1-dimer.npy', np.array(charges))--------------------------------------------------------------------------

*** tstart() called on ds3
*** at Mon Apr 27 01:32:17 2020

   => Loading Basis Set <=

    Name: CC-PVDZ
    Role: ORBITAL
    Keyword: BASIS
    atoms 1-3, 12-16  entry C          line   138 file /theoryfs2/ds/metcalf/miniconda2/envs/tf2gpu/share/psi4/basis/cc-pvdz.gbs
    atoms 4-11, 19-29 entry H          line    22 file /theoryfs2/ds/metcalf/miniconda2/envs/tf2gpu/share/psi4/basis/cc-pvdz.gbs
    atoms 17          entry O          line   198 file /theoryfs2/ds/metcalf/miniconda2/envs/tf2gpu/share/psi4/basis/cc-pvdz.gbs
    atoms 18          entry N          line   168 file /theoryfs2/ds/metcalf/miniconda2/envs/tf2gpu/share/psi4/basis/cc-pvdz.gbs

         ---------------------------------------------------------
                                   SCF
               by Justin Turney, Rob Parrish, Andy Simmonett
                          and Daniel G. A. Smith
                              RHF Reference
                        1 Threads,    500 MiB Core
         ---------------------------------------------------------

  ==> Geometry <==

    Molecular point group: c1
    Full point group: C1

    Geometry (in Angstrom), charge = 0, multiplicity = 1:

       Center              X                  Y                   Z               Mass
    ------------   -----------------  -----------------  -----------------  -----------------
         C           -2.336631324463     2.295433623563     0.130946910767    12.000000000000
         C           -1.935631324463     3.779433623563     0.345946910767    12.000000000000
         C           -3.841631324463     1.962433623563     0.026946910767    12.000000000000
         H           -1.884631324463     1.960433623563    -0.803053089233     1.007825032230
         H           -1.903631324463     1.691433623563     0.927946910767     1.007825032230
         H           -2.516631324463     4.396433623563    -0.344053089233     1.007825032230
         H           -4.281631324463     2.576433623563    -0.758053089233     1.007825032230
         H           -0.863821324463     3.926933623563     0.147296910767     1.007825032230
         H           -2.143861324463     4.114913623563     1.372636910767     1.007825032230
         H           -3.981041324463     0.907913623563    -0.253303089233     1.007825032230
         H           -4.371091324463     2.175633623563     0.967276910767     1.007825032230
         C            0.352368675537     0.061433623563     0.304946910767    12.000000000000
         C            1.147368675537     1.039433623563     1.175946910767    12.000000000000
         C            2.561368675537    -0.872566376437     0.774946910767    12.000000000000
         C           -0.202631324463    -2.251566376437    -1.457053089233    12.000000000000
         C            1.097368675537    -2.140566376437    -0.672053089233    12.000000000000
         O            1.960368675537    -3.021566376437    -0.784053089233    15.994914619570
         N            1.275368675537    -1.062566376437     0.113946910767    14.003074004430
         H           -0.539631324463    -0.274566376437     0.834946910767     1.007825032230
         H            0.094368675537     0.531433623563    -0.644053089233     1.007825032230
         H            0.557368675537     1.356433623563     2.034946910767     1.007825032230
         H            1.400368675537     1.911433623563     0.576946910767     1.007825032230
         H            3.324368675537    -0.700566376437     0.013946910767     1.007825032230
         H           -0.808631324463    -1.350566376437    -1.366053089233     1.007825032230
         H            2.078618675537     0.548023623563     1.494216910767     1.007825032230
         H            2.451768675537     0.037123623563     1.383596910767     1.007825032230
         H            2.832138675537    -1.741506376437     1.392706910767     1.007825032230
         H            0.135758675537    -2.362856376437    -2.497783089233     1.007825032230
         H           -0.810681324463    -3.107126376437    -1.127993089233     1.007825032230

  Running in c1 symmetry.

  Rotational constants: A =      0.06213  B =      0.01514  C =      0.01260 [cm^-1]
  Rotational constants: A =   1862.49544  B =    453.85303  C =    377.60561 [MHz]
  Nuclear repulsion =  549.579142619663571

  Charge       = 0
  Multiplicity = 1
  Electrons    = 82
  Nalpha       = 41
  Nbeta        = 41

  ==> Algorithm <==

  SCF Algorithm Type is PK.
  DIIS enabled.
  MOM disabled.
  Fractional occupation disabled.
  Guess Type is SAD.
  Energy threshold   = 1.00e-06
  Density threshold  = 1.00e-10
  Integral threshold = 0.00e+00

  ==> Primary Basis <==

  Basis Set: CC-PVDZ
    Blend: CC-PVDZ
    Number of shells: 117
    Number of basis function: 235
    Number of Cartesian functions: 245
    Spherical Harmonics?: true
    Max angular momentum: 2

  ==> Pre-Iterations <==

   -------------------------------------------------------
    Irrep   Nso     Nmo     Nalpha   Nbeta   Ndocc  Nsocc
   -------------------------------------------------------
     A        235     235       0       0       0       0
   -------------------------------------------------------
    Total     235     235      41      41      41       0
   -------------------------------------------------------

  ==> Integral Setup <==

  Using integral reordering PK algorithm.
  Sizing the integral batches needed.
  Building batch lookup table.
   Calculation information:
      Number of atoms:                  29
      Number of AO shells:             117
      Number of primitives:            315
      Number of atomic orbitals:       245
      Number of basis functions:       235

      Integral cutoff                 1.00e-12
      Number of threads:                 1

	Batch   1 pq = [       0,    9405] index = [             0,44231715] size =     44231715
	Batch   2 pq = [    9405,   13301] index = [      44231715,88464951] size =     44233236
	Batch   3 pq = [   13301,   16290] index = [      88464951,132690195] size =     44225244
	Batch   4 pq = [   16290,   18810] index = [     132690195,176917455] size =     44227260
	Batch   5 pq = [   18810,   21030] index = [     176917455,221140965] size =     44223510
	Batch   6 pq = [   21030,   23037] index = [     221140965,265363203] size =     44222238
	Batch   7 pq = [   23037,   24883] index = [     265363203,309594286] size =     44231083
	Batch   8 pq = [   24883,   26601] index = [     309594286,353819901] size =     44225615
	Batch   9 pq = [   26601,   27730] index = [     353819901,384490315] size =     30670414
  Task number: 35
  Buffer size: 11059200
  Buffer per thread: 2
  We computed 20797998 shell quartets total.
  Whereas there are 23829156 unique shell quartets.

  ==> DiskJK: Disk-Based J/K Matrices <==

    J tasked:                  Yes
    K tasked:                  Yes
    wK tasked:                  No
    Memory [MiB]:              375
    Schwarz Cutoff:          1E-12

    OpenMP threads:              1

  Minimum eigenvalue in the overlap matrix is 1.1773255633E-03.
  Using Symmetric Orthogonalization.

  SCF Guess: Superposition of Atomic Densities via on-the-fly atomic UHF.

  ==> Iterations <==

                        Total Energy        Delta E     RMS |[F,P]|

   @RHF iter SAD:  -442.27201015831082   -4.42272e+02   0.00000e+00
   @RHF iter   1:  -442.81799529579479   -5.45985e-01   3.09443e-03 DIIS
   @RHF iter   2:  -443.06765649580183   -2.49661e-01   1.70159e-03 DIIS
   @RHF iter   3:  -443.13165393336243   -6.39974e-02   4.16709e-04 DIIS
   @RHF iter   4:  -443.13740962416045   -5.75569e-03   1.62541e-04 DIIS
   @RHF iter   5:  -443.13832116535332   -9.11541e-04   2.79970e-05 DIIS
   @RHF iter   6:  -443.13837524262379   -5.40773e-05   1.39724e-05 DIIS
   @RHF iter   7:  -443.13838612152915   -1.08789e-05   5.08224e-06 DIIS
   @RHF iter   8:  -443.13838834357028   -2.22204e-06   2.09471e-06 DIIS
   @RHF iter   9:  -443.13838870441373   -3.60843e-07   5.88464e-07 DIIS
   @RHF iter  10:  -443.13838872786226   -2.34485e-08   1.66334e-07 DIIS
   @RHF iter  11:  -443.13838872985207   -1.98980e-09   4.87160e-08 DIIS
   @RHF iter  12:  -443.13838873000202   -1.49953e-10   1.45594e-08 DIIS
   @RHF iter  13:  -443.13838873001589   -1.38698e-11   4.82243e-09 DIIS
   @RHF iter  14:  -443.13838873001725   -1.36424e-12   1.38550e-09 DIIS
   @RHF iter  15:  -443.13838873001879   -1.53477e-12   4.01274e-10 DIIS
   @RHF iter  16:  -443.13838873001703    1.76215e-12   1.71007e-10 DIIS
   @RHF iter  17:  -443.13838873001839   -1.36424e-12   7.55500e-11 DIIS
  Energy and wave function converged.

  ==> Post-Iterations <==

    Orbital Energies [Eh]
    ---------------------

    Doubly Occupied:

       1A    -20.495591     2A    -15.581516     3A    -11.339882
       4A    -11.279511     5A    -11.242375     6A    -11.236907
       7A    -11.233084     8A    -11.229602     9A    -11.228377
      10A    -11.220592    11A     -1.356521    12A     -1.250394
      13A     -1.067126    14A     -1.054333    15A     -1.005815
      16A     -0.973174    17A     -0.934115    18A     -0.854812
      19A     -0.807570    20A     -0.756499    21A     -0.726852
      22A     -0.672601    23A     -0.654059    24A     -0.629927
      25A     -0.610383    26A     -0.601555    27A     -0.599587
      28A     -0.575342    29A     -0.557279    30A     -0.545808
      31A     -0.540886    32A     -0.531331    33A     -0.527357
      34A     -0.523660    35A     -0.486160    36A     -0.480319
      37A     -0.476193    38A     -0.471589    39A     -0.401736
      40A     -0.389463    41A     -0.359973

    Virtual:

      42A      0.150935    43A      0.172275    44A      0.181272
      45A      0.191995    46A      0.208964    47A      0.216991
      48A      0.225461    49A      0.241363    50A      0.242887
      51A      0.250231    52A      0.259459    53A      0.271248
      54A      0.278266    55A      0.283106    56A      0.291926
      57A      0.297672    58A      0.310619    59A      0.312354
      60A      0.337009    61A      0.344782    62A      0.352550
      63A      0.362897    64A      0.406616    65A      0.413855
      66A      0.421416    67A      0.453306    68A      0.507536
      69A      0.535613    70A      0.544969    71A      0.553395
      72A      0.571560    73A      0.590654    74A      0.593590
      75A      0.619697    76A      0.636831    77A      0.644138
      78A      0.676130    79A      0.682060    80A      0.693610
      81A      0.720207    82A      0.735743    83A      0.743133
      84A      0.769536    85A      0.779366    86A      0.789529
      87A      0.801681    88A      0.826004    89A      0.840046
      90A      0.846333    91A      0.857386    92A      0.859974
      93A      0.865187    94A      0.879946    95A      0.884827
      96A      0.887563    97A      0.892507    98A      0.895759
      99A      0.898430   100A      0.900898   101A      0.904777
     102A      0.917195   103A      0.921737   104A      0.931120
     105A      0.942059   106A      0.949868   107A      0.960928
     108A      0.976186   109A      0.981701   110A      0.986006
     111A      1.001297   112A      1.053339   113A      1.061497
     114A      1.080943   115A      1.104243   116A      1.112965
     117A      1.137146   118A      1.173642   119A      1.190443
     120A      1.204896   121A      1.228771   122A      1.271524
     123A      1.358169   124A      1.359442   125A      1.388359
     126A      1.408734   127A      1.430910   128A      1.437894
     129A      1.450924   130A      1.473795   131A      1.483476
     132A      1.506964   133A      1.513645   134A      1.532963
     135A      1.552666   136A      1.574979   137A      1.601368
     138A      1.616979   139A      1.633569   140A      1.653136
     141A      1.658275   142A      1.665847   143A      1.680127
     144A      1.689574   145A      1.695200   146A      1.772306
     147A      1.793343   148A      1.815011   149A      1.824448
     150A      1.837947   151A      1.848598   152A      1.862070
     153A      1.868371   154A      1.875952   155A      1.889394
     156A      1.894457   157A      1.906084   158A      1.913425
     159A      1.918409   160A      1.922825   161A      1.936685
     162A      1.938326   163A      1.950394   164A      1.955897
     165A      1.971905   166A      1.972599   167A      1.981587
     168A      1.992659   169A      2.012002   170A      2.016667
     171A      2.032894   172A      2.043029   173A      2.053944
     174A      2.061678   175A      2.080650   176A      2.102135
     177A      2.121083   178A      2.129479   179A      2.148531
     180A      2.161976   181A      2.201616   182A      2.226237
     183A      2.238424   184A      2.253613   185A      2.265568
     186A      2.288801   187A      2.305354   188A      2.308738
     189A      2.326587   190A      2.349339   191A      2.368177
     192A      2.385645   193A      2.401160   194A      2.443167
     195A      2.470336   196A      2.484847   197A      2.498176
     198A      2.517402   199A      2.532775   200A      2.577261
     201A      2.582113   202A      2.598362   203A      2.612409
     204A      2.617432   205A      2.637960   206A      2.671633
     207A      2.732279   208A      2.754905   209A      2.758504
     210A      2.766274   211A      2.771374   212A      2.776409
     213A      2.793890   214A      2.805186   215A      2.817161
     216A      2.818505   217A      2.833772   218A      2.870526
     219A      2.914356   220A      2.922291   221A      2.947471
     222A      2.961301   223A      2.993887   224A      3.020942
     225A      3.067274   226A      3.091401   227A      3.096325
     228A      3.167467   229A      3.232655   230A      3.334077
     231A      3.397906   232A      3.514242   233A      3.825858
     234A      3.900934   235A      5.276578

    Final Occupation by Irrep:
              A
    DOCC [    41 ]

  @RHF Final Energy:  -443.13838873001839

   => Energetics <=

    Nuclear Repulsion Energy =            549.5791426196635712
    One-Electron Energy =               -1690.4153484930791365
    Two-Electron Energy =                 697.6978171433971738
    Total Energy =                       -443.1383887300183915

Computation Completed

Properties will be evaluated at   0.000000,   0.000000,   0.000000 [a0]

Properties computed using the SCF density matrix

  Nuclear Dipole Moment: [e a0]
     X:   -10.5226      Y:    15.5481      Z:     3.1384

  Electronic Dipole Moment: [e a0]
     X:     9.6762      Y:   -14.0445      Z:    -2.7036

  Dipole Moment: [e a0]
     X:    -0.8463      Y:     1.5036      Z:     0.4348     Total:     1.7794

  Dipole Moment: [D]
     X:    -2.1512      Y:     3.8219      Z:     1.1051     Total:     4.5228

*** tstop() called on ds3 at Mon Apr 27 01:35:09 2020
Module time:
	user time   =     124.32 seconds =       2.07 minutes
	system time =      54.50 seconds =       0.91 minutes
	total time  =        172 seconds =       2.87 minutes
Total time:
	user time   =     124.32 seconds =       2.07 minutes
	system time =      54.50 seconds =       0.91 minutes
	total time  =        172 seconds =       2.87 minutes
                                     G D M A

                                 by Anthony Stone

                           version 2.2.06, 22 June 2011

               Distributed Multipoles from Gaussian wavefunctions

Starting at 1:35:9 on 27 Apr 2020

Using SCF density matrix from file ./SSI/SSI-074LEU-102PRO-1-dimer.test.12655.fchk

                         Distributed Multipole Analysis

Standard DMA

Positions and radii in angstrom
Multipole moments in atomic units, ea_0^k for rank k

C          x = -2.336631  y =  2.295434  z =  0.130947 angstrom
           Maximum rank =  0   Radius =  0.650 angstrom
                   Q00  =  -0.098071

C          x = -1.935631  y =  3.779434  z =  0.345947 angstrom
           Maximum rank =  0   Radius =  0.650 angstrom
                   Q00  =  -0.237089

C          x = -3.841631  y =  1.962434  z =  0.026947 angstrom
           Maximum rank =  0   Radius =  0.650 angstrom
                   Q00  =  -0.249110

H          x = -1.884631  y =  1.960434  z = -0.803053 angstrom
           Maximum rank =  0   Radius =  0.325 angstrom
                   Q00  =   0.038289

H          x = -1.903631  y =  1.691434  z =  0.927947 angstrom
           Maximum rank =  0   Radius =  0.325 angstrom
                   Q00  =   0.042646

H          x = -2.516631  y =  4.396434  z = -0.344053 angstrom
           Maximum rank =  0   Radius =  0.325 angstrom
                   Q00  =   0.080559

H          x = -4.281631  y =  2.576434  z = -0.758053 angstrom
           Maximum rank =  0   Radius =  0.325 angstrom
                   Q00  =   0.080660

H          x = -0.863821  y =  3.926934  z =  0.147297 angstrom
           Maximum rank =  0   Radius =  0.325 angstrom
                   Q00  =   0.087938

H          x = -2.143861  y =  4.114914  z =  1.372637 angstrom
           Maximum rank =  0   Radius =  0.325 angstrom
                   Q00  =   0.082744

H          x = -3.981041  y =  0.907914  z = -0.253303 angstrom
           Maximum rank =  0   Radius =  0.325 angstrom
                   Q00  =   0.086758

H          x = -4.371091  y =  2.175634  z =  0.967277 angstrom
           Maximum rank =  0   Radius =  0.325 angstrom
                   Q00  =   0.081398

C          x =  0.352369  y =  0.061434  z =  0.304947 angstrom
           Maximum rank =  0   Radius =  0.650 angstrom
                   Q00  =   0.014473

C          x =  1.147369  y =  1.039434  z =  1.175947 angstrom
           Maximum rank =  0   Radius =  0.650 angstrom
                   Q00  =  -0.280054

C          x =  2.561369  y = -0.872566  z =  0.774947 angstrom
           Maximum rank =  0   Radius =  0.650 angstrom
                   Q00  =  -0.091167

C          x = -0.202631  y = -2.251566  z = -1.457053 angstrom
           Maximum rank =  0   Radius =  0.650 angstrom
                   Q00  =  -0.258806

C          x =  1.097369  y = -2.140566  z = -0.672053 angstrom
           Maximum rank =  0   Radius =  0.650 angstrom
                   Q00  =   0.730923

O          x =  1.960369  y = -3.021566  z = -0.784053 angstrom
           Maximum rank =  0   Radius =  0.650 angstrom
                   Q00  =  -0.785497

N          x =  1.275369  y = -1.062566  z =  0.113947 angstrom
           Maximum rank =  0   Radius =  0.650 angstrom
                   Q00  =  -0.446503

H          x = -0.539631  y = -0.274566  z =  0.834947 angstrom
           Maximum rank =  0   Radius =  0.325 angstrom
                   Q00  =   0.074937

H          x =  0.094369  y =  0.531434  z = -0.644053 angstrom
           Maximum rank =  0   Radius =  0.325 angstrom
                   Q00  =   0.080150

H          x =  0.557369  y =  1.356434  z =  2.034947 angstrom
           Maximum rank =  0   Radius =  0.325 angstrom
                   Q00  =   0.097287

H          x =  1.400369  y =  1.911434  z =  0.576947 angstrom
           Maximum rank =  0   Radius =  0.325 angstrom
                   Q00  =   0.099405

H          x =  3.324369  y = -0.700566  z =  0.013947 angstrom
           Maximum rank =  0   Radius =  0.325 angstrom
                   Q00  =   0.095613

H          x = -0.808631  y = -1.350566  z = -1.366053 angstrom
           Maximum rank =  0   Radius =  0.325 angstrom
                   Q00  =   0.082721

H          x =  2.078619  y =  0.548024  z =  1.494217 angstrom
           Maximum rank =  0   Radius =  0.325 angstrom
                   Q00  =   0.122987

H          x =  2.451769  y =  0.037124  z =  1.383597 angstrom
           Maximum rank =  0   Radius =  0.325 angstrom
                   Q00  =   0.095201

H          x =  2.832139  y = -1.741506  z =  1.392707 angstrom
           Maximum rank =  0   Radius =  0.325 angstrom
                   Q00  =   0.110995

H          x =  0.135759  y = -2.362856  z = -2.497783 angstrom
           Maximum rank =  0   Radius =  0.325 angstrom
                   Q00  =   0.127701

H          x = -0.810681  y = -3.107126  z = -1.127993 angstrom
           Maximum rank =  0   Radius =  0.325 angstrom
                   Q00  =   0.132913

Total multipoles referred to origin at
           x =   0.000000,  y =    0.000000,  z =    0.000000 angstrom
                   Q00  =  -0.000000

Finished at 1:35:9 on 27 Apr 2020

  DMA results are available in the Python driver through the
	  variable('DMA DISTRIBUTED MULTIPOLES')
  and
	  variable('DMA TOTAL MULTIPOLES')
  commands.

    Psi4 stopped on: Monday, 27 April 2020 01:35AM
    Psi4 wall time for execution: 0:02:52.18

*** Psi4 exiting successfully. Buy a developer a beer!
