                               Psi4 1.3.2 release

  ==> Input File <==

--------------------------------------------------------------------------
import numpy as np
set {scf_type pk
basis cc-pvdz
d_convergence 10
gdma_switch   0
gdma_limit    0
gdma_origin   [ 0.0,  0.0,  0.0 ]
}
molecule test {
    units Angstrom
    0 1
    --
    0 1
    C                2.552523192271319    -2.459999167459224    -2.252299101654491
    C               -0.169476807728681    -0.936999167459224    -0.407299101654491
    C                1.547523192271319    -2.027999167459224    -1.228299101654491
    C                1.364523192271319    -2.445999167459224     0.051700898345509
    N                0.573523192271319    -1.089999167459223    -1.496299101654491
    N                0.285523192271319    -1.745999167459223     0.545700898345509
    H               -1.014476807728681    -0.268999167459224    -0.324299101654491
    H               -0.101476807728681    -1.819999167459224     1.479700898345509
    H                1.959523192271319    -3.184999167459223     0.574700898345509
    H                3.459523192271320    -2.772999167459223    -1.734299101654491
    H                2.808523192271319    -1.605999167459223    -2.881299101654491
    H                2.198356192271320    -3.284949167459223    -2.887927801654491
    C               -2.243476807728680     3.052000832540777     0.030700898345509
    C               -1.426476807728681     2.424000832540777     1.139700898345509
    O               -1.573476807728681     1.240000832540776     1.434700898345509
    N               -0.566476807728681     3.208000832540777     1.773700898345509
    H               -1.842476807728681     2.716000832540777    -0.926299101654491
    H               -2.148476807728680     4.138000832540777     0.077700898345509
    H               -0.032476807728681     2.803000832540776     2.534700898345509
    H               -0.425476807728681     4.180000832540776     1.520700898345509
    H               -3.304163807728681     2.769290832540777     0.101557898345509

}
e, wfn = energy('scf', return_wfn=True)
gdma(wfn)
dmavals = variable('DMA DISTRIBUTED MULTIPOLES')
charges = np.array(dmavals)
print(charges)
np.save('SSI-058HIE-115GLN-1-dimer.npy', np.array(charges))--------------------------------------------------------------------------

*** tstart() called on ds3
*** at Sun Apr 26 19:59:36 2020

   => Loading Basis Set <=

    Name: CC-PVDZ
    Role: ORBITAL
    Keyword: BASIS
    atoms 1-4, 13-14  entry C          line   138 file /theoryfs2/ds/metcalf/miniconda2/envs/tf2gpu/share/psi4/basis/cc-pvdz.gbs
    atoms 5-6, 16     entry N          line   168 file /theoryfs2/ds/metcalf/miniconda2/envs/tf2gpu/share/psi4/basis/cc-pvdz.gbs
    atoms 7-12, 17-21 entry H          line    22 file /theoryfs2/ds/metcalf/miniconda2/envs/tf2gpu/share/psi4/basis/cc-pvdz.gbs
    atoms 15          entry O          line   198 file /theoryfs2/ds/metcalf/miniconda2/envs/tf2gpu/share/psi4/basis/cc-pvdz.gbs

         ---------------------------------------------------------
                                   SCF
               by Justin Turney, Rob Parrish, Andy Simmonett
                          and Daniel G. A. Smith
                              RHF Reference
                        1 Threads,    500 MiB Core
         ---------------------------------------------------------

  ==> Geometry <==

    Molecular point group: c1
    Full point group: C1

    Geometry (in Angstrom), charge = 0, multiplicity = 1:

       Center              X                  Y                   Z               Mass
    ------------   -----------------  -----------------  -----------------  -----------------
         C            2.552523192271    -2.459999167459    -2.252299101654    12.000000000000
         C           -0.169476807729    -0.936999167459    -0.407299101654    12.000000000000
         C            1.547523192271    -2.027999167459    -1.228299101654    12.000000000000
         C            1.364523192271    -2.445999167459     0.051700898346    12.000000000000
         N            0.573523192271    -1.089999167459    -1.496299101654    14.003074004430
         N            0.285523192271    -1.745999167459     0.545700898346    14.003074004430
         H           -1.014476807729    -0.268999167459    -0.324299101654     1.007825032230
         H           -0.101476807729    -1.819999167459     1.479700898346     1.007825032230
         H            1.959523192271    -3.184999167459     0.574700898346     1.007825032230
         H            3.459523192271    -2.772999167459    -1.734299101654     1.007825032230
         H            2.808523192271    -1.605999167459    -2.881299101654     1.007825032230
         H            2.198356192271    -3.284949167459    -2.887927801654     1.007825032230
         C           -2.243476807729     3.052000832541     0.030700898346    12.000000000000
         C           -1.426476807729     2.424000832541     1.139700898346    12.000000000000
         O           -1.573476807729     1.240000832541     1.434700898346    15.994914619570
         N           -0.566476807729     3.208000832541     1.773700898346    14.003074004430
         H           -1.842476807729     2.716000832541    -0.926299101654     1.007825032230
         H           -2.148476807729     4.138000832541     0.077700898346     1.007825032230
         H           -0.032476807729     2.803000832541     2.534700898346     1.007825032230
         H           -0.425476807729     4.180000832541     1.520700898346     1.007825032230
         H           -3.304163807729     2.769290832541     0.101557898346     1.007825032230

  Running in c1 symmetry.

  Rotational constants: A =      0.09740  B =      0.01466  C =      0.01404 [cm^-1]
  Rotational constants: A =   2919.97233  B =    439.45137  C =    420.84232 [MHz]
  Nuclear repulsion =  487.570827599491508

  Charge       = 0
  Multiplicity = 1
  Electrons    = 76
  Nalpha       = 38
  Nbeta        = 38

  ==> Algorithm <==

  SCF Algorithm Type is PK.
  DIIS enabled.
  MOM disabled.
  Fractional occupation disabled.
  Guess Type is SAD.
  Energy threshold   = 1.00e-06
  Density threshold  = 1.00e-10
  Integral threshold = 0.00e+00

  ==> Primary Basis <==

  Basis Set: CC-PVDZ
    Blend: CC-PVDZ
    Number of shells: 93
    Number of basis function: 195
    Number of Cartesian functions: 205
    Spherical Harmonics?: true
    Max angular momentum: 2

  ==> Pre-Iterations <==

   -------------------------------------------------------
    Irrep   Nso     Nmo     Nalpha   Nbeta   Ndocc  Nsocc
   -------------------------------------------------------
     A        195     195       0       0       0       0
   -------------------------------------------------------
    Total     195     195      38      38      38       0
   -------------------------------------------------------

  ==> Integral Setup <==

  Using integral reordering PK algorithm.
  Sizing the integral batches needed.
  Building batch lookup table.
   Calculation information:
      Number of atoms:                  21
      Number of AO shells:              93
      Number of primitives:            275
      Number of atomic orbitals:       205
      Number of basis functions:       195

      Integral cutoff                 1.00e-12
      Number of threads:                 1

	Batch   1 pq = [       0,    9405] index = [             0,44231715] size =     44231715
	Batch   2 pq = [    9405,   13301] index = [      44231715,88464951] size =     44233236
	Batch   3 pq = [   13301,   16290] index = [      88464951,132690195] size =     44225244
	Batch   4 pq = [   16290,   18810] index = [     132690195,176917455] size =     44227260
	Batch   5 pq = [   18810,   19110] index = [     176917455,182605605] size =      5688150
  Task number: 17
  Buffer size: 11059200
  Buffer per thread: 2
  We computed 6415380 shell quartets total.
  Whereas there are 9555006 unique shell quartets.

  ==> DiskJK: Disk-Based J/K Matrices <==

    J tasked:                  Yes
    K tasked:                  Yes
    wK tasked:                  No
    Memory [MiB]:              375
    Schwarz Cutoff:          1E-12

    OpenMP threads:              1

  Minimum eigenvalue in the overlap matrix is 1.2244174237E-03.
  Using Symmetric Orthogonalization.

  SCF Guess: Superposition of Atomic Densities via on-the-fly atomic UHF.

  ==> Iterations <==

                        Total Energy        Delta E     RMS |[F,P]|

   @RHF iter SAD:  -470.78828160686567   -4.70788e+02   0.00000e+00
   @RHF iter   1:  -471.59493406560910   -8.06652e-01   3.59799e-03 DIIS
   @RHF iter   2:  -471.80719769698931   -2.12264e-01   2.01141e-03 DIIS
   @RHF iter   3:  -471.86784260609392   -6.06449e-02   4.29143e-04 DIIS
   @RHF iter   4:  -471.87209878708148   -4.25618e-03   1.59883e-04 DIIS
   @RHF iter   5:  -471.87272116200000   -6.22375e-04   2.91229e-05 DIIS
   @RHF iter   6:  -471.87275919989213   -3.80379e-05   1.41714e-05 DIIS
   @RHF iter   7:  -471.87276677409477   -7.57420e-06   5.13946e-06 DIIS
   @RHF iter   8:  -471.87276829412144   -1.52003e-06   1.86237e-06 DIIS
   @RHF iter   9:  -471.87276849997750   -2.05856e-07   8.78546e-07 DIIS
   @RHF iter  10:  -471.87276852644737   -2.64699e-08   2.27651e-07 DIIS
   @RHF iter  11:  -471.87276852960923   -3.16186e-09   8.13477e-08 DIIS
   @RHF iter  12:  -471.87276852993773   -3.28498e-10   3.92732e-08 DIIS
   @RHF iter  13:  -471.87276853000594   -6.82121e-11   1.27963e-08 DIIS
   @RHF iter  14:  -471.87276853001777   -1.18234e-11   5.35474e-09 DIIS
   @RHF iter  15:  -471.87276853002254   -4.77485e-12   2.18746e-09 DIIS
   @RHF iter  16:  -471.87276853002271   -1.70530e-13   6.33489e-10 DIIS
   @RHF iter  17:  -471.87276853002027    2.44427e-12   2.58756e-10 DIIS
   @RHF iter  18:  -471.87276853001742    2.84217e-12   6.60369e-11 DIIS
  Energy and wave function converged.

  ==> Post-Iterations <==

    Orbital Energies [Eh]
    ---------------------

    Doubly Occupied:

       1A    -20.514842     2A    -15.600165     3A    -15.600003
       4A    -15.508216     5A    -11.359148     6A    -11.268108
       7A    -11.248655     8A    -11.233359     9A    -11.224779
      10A    -11.212465    11A     -1.379622    12A     -1.320832
      13A     -1.225732    14A     -1.134639    15A     -1.014096
      16A     -1.007166    17A     -0.925125    18A     -0.809737
      19A     -0.797443    20A     -0.743507    21A     -0.734334
      22A     -0.720721    23A     -0.665307    24A     -0.620365
      25A     -0.592070    26A     -0.585586    27A     -0.581927
      28A     -0.574477    29A     -0.565247    30A     -0.539341
      31A     -0.530298    32A     -0.525443    33A     -0.505292
      34A     -0.421732    35A     -0.415073    36A     -0.393615
      37A     -0.360997    38A     -0.291293

    Virtual:

      39A      0.157963    40A      0.188618    41A      0.202439
      42A      0.205098    43A      0.207983    44A      0.213437
      45A      0.218525    46A      0.241465    47A      0.252655
      48A      0.267120    49A      0.271347    50A      0.288689
      51A      0.309140    52A      0.312229    53A      0.378225
      54A      0.393476    55A      0.419503    56A      0.427397
      57A      0.475335    58A      0.489488    59A      0.508244
      60A      0.557813    61A      0.620080    62A      0.627734
      63A      0.636095    64A      0.659159    65A      0.661719
      66A      0.681791    67A      0.687106    68A      0.694762
      69A      0.704134    70A      0.731697    71A      0.733838
      72A      0.749046    73A      0.760284    74A      0.785706
      75A      0.802323    76A      0.825267    77A      0.844840
      78A      0.853878    79A      0.859918    80A      0.865626
      81A      0.889765    82A      0.898595    83A      0.902760
      84A      0.916480    85A      0.927516    86A      0.933955
      87A      0.969841    88A      0.986495    89A      0.991974
      90A      1.004188    91A      1.018922    92A      1.038932
      93A      1.047592    94A      1.073941    95A      1.102097
      96A      1.109403    97A      1.114878    98A      1.140320
      99A      1.152784   100A      1.180192   101A      1.200492
     102A      1.261511   103A      1.290187   104A      1.311899
     105A      1.325404   106A      1.337971   107A      1.343666
     108A      1.367246   109A      1.398622   110A      1.405309
     111A      1.426871   112A      1.443539   113A      1.466211
     114A      1.480323   115A      1.491826   116A      1.528335
     117A      1.546338   118A      1.595406   119A      1.624883
     120A      1.630092   121A      1.646658   122A      1.652598
     123A      1.700027   124A      1.706338   125A      1.727095
     126A      1.807475   127A      1.818187   128A      1.823063
     129A      1.844084   130A      1.851465   131A      1.865219
     132A      1.880368   133A      1.890186   134A      1.903569
     135A      1.913287   136A      1.929274   137A      1.939221
     138A      1.955479   139A      1.969116   140A      1.975742
     141A      1.984110   142A      1.998482   143A      2.043496
     144A      2.055718   145A      2.058693   146A      2.082566
     147A      2.118854   148A      2.148642   149A      2.163622
     150A      2.216545   151A      2.219559   152A      2.248196
     153A      2.249757   154A      2.288279   155A      2.314353
     156A      2.346913   157A      2.386511   158A      2.391276
     159A      2.431683   160A      2.451684   161A      2.456601
     162A      2.468545   163A      2.513474   164A      2.536052
     165A      2.551413   166A      2.578414   167A      2.626844
     168A      2.632483   169A      2.710378   170A      2.727125
     171A      2.737007   172A      2.760169   173A      2.768462
     174A      2.796009   175A      2.803124   176A      2.815043
     177A      2.836224   178A      2.858637   179A      2.864944
     180A      2.901259   181A      2.951480   182A      2.970295
     183A      2.985531   184A      3.075355   185A      3.085602
     186A      3.122771   187A      3.178822   188A      3.250870
     189A      3.262691   190A      3.485996   191A      3.493838
     192A      3.516795   193A      3.816815   194A      3.862822
     195A      3.908350

    Final Occupation by Irrep:
              A
    DOCC [    38 ]

  @RHF Final Energy:  -471.87276853001742

   => Energetics <=

    Nuclear Repulsion Energy =            487.5708275994915084
    One-Electron Energy =               -1609.3856725019566056
    Two-Electron Energy =                 649.9420763724477865
    Total Energy =                       -471.8727685300174244

Computation Completed

Properties will be evaluated at   0.000000,   0.000000,   0.000000 [a0]

Properties computed using the SCF density matrix

  Nuclear Dipole Moment: [e a0]
     X:     1.4511      Y:     3.4438      Z:    -2.3064

  Electronic Dipole Moment: [e a0]
     X:    -1.4108      Y:    -1.9263      Z:     3.5460

  Dipole Moment: [e a0]
     X:     0.0403      Y:     1.5176      Z:     1.2396     Total:     1.9599

  Dipole Moment: [D]
     X:     0.1025      Y:     3.8573      Z:     3.1507     Total:     4.9816

*** tstop() called on ds3 at Sun Apr 26 20:00:50 2020
Module time:
	user time   =      49.23 seconds =       0.82 minutes
	system time =      27.00 seconds =       0.45 minutes
	total time  =         74 seconds =       1.23 minutes
Total time:
	user time   =      49.23 seconds =       0.82 minutes
	system time =      27.00 seconds =       0.45 minutes
	total time  =         74 seconds =       1.23 minutes
                                     G D M A

                                 by Anthony Stone

                           version 2.2.06, 22 June 2011

               Distributed Multipoles from Gaussian wavefunctions

Starting at 20:0:50 on 26 Apr 2020

Using SCF density matrix from file ./SSI/SSI-058HIE-115GLN-1-dimer.test.10314.fchk

                         Distributed Multipole Analysis

Standard DMA

Positions and radii in angstrom
Multipole moments in atomic units, ea_0^k for rank k

C          x =  2.552523  y = -2.459999  z = -2.252299 angstrom
           Maximum rank =  0   Radius =  0.650 angstrom
                   Q00  =  -0.195613

C          x = -0.169477  y = -0.936999  z = -0.407299 angstrom
           Maximum rank =  0   Radius =  0.650 angstrom
                   Q00  =   0.475510

C          x =  1.547523  y = -2.027999  z = -1.228299 angstrom
           Maximum rank =  0   Radius =  0.650 angstrom
                   Q00  =   0.227447

C          x =  1.364523  y = -2.445999  z =  0.051701 angstrom
           Maximum rank =  0   Radius =  0.650 angstrom
                   Q00  =  -0.006638

N          x =  0.573523  y = -1.089999  z = -1.496299 angstrom
           Maximum rank =  0   Radius =  0.650 angstrom
                   Q00  =  -0.775202

N          x =  0.285523  y = -1.745999  z =  0.545701 angstrom
           Maximum rank =  0   Radius =  0.650 angstrom
                   Q00  =  -0.484790

H          x = -1.014477  y = -0.268999  z = -0.324299 angstrom
           Maximum rank =  0   Radius =  0.325 angstrom
                   Q00  =   0.127711

H          x = -0.101477  y = -1.819999  z =  1.479701 angstrom
           Maximum rank =  0   Radius =  0.325 angstrom
                   Q00  =   0.225127

H          x =  1.959523  y = -3.184999  z =  0.574701 angstrom
           Maximum rank =  0   Radius =  0.325 angstrom
                   Q00  =   0.094511

H          x =  3.459523  y = -2.772999  z = -1.734299 angstrom
           Maximum rank =  0   Radius =  0.325 angstrom
                   Q00  =   0.088040

H          x =  2.808523  y = -1.605999  z = -2.881299 angstrom
           Maximum rank =  0   Radius =  0.325 angstrom
                   Q00  =   0.112515

H          x =  2.198356  y = -3.284949  z = -2.887928 angstrom
           Maximum rank =  0   Radius =  0.325 angstrom
                   Q00  =   0.101176

C          x = -2.243477  y =  3.052001  z =  0.030701 angstrom
           Maximum rank =  0   Radius =  0.650 angstrom
                   Q00  =  -0.265388

C          x = -1.426477  y =  2.424001  z =  1.139701 angstrom
           Maximum rank =  0   Radius =  0.650 angstrom
                   Q00  =   0.815807

O          x = -1.573477  y =  1.240001  z =  1.434701 angstrom
           Maximum rank =  0   Radius =  0.650 angstrom
                   Q00  =  -0.794722

N          x = -0.566477  y =  3.208001  z =  1.773701 angstrom
           Maximum rank =  0   Radius =  0.650 angstrom
                   Q00  =  -0.530971

H          x = -1.842477  y =  2.716001  z = -0.926299 angstrom
           Maximum rank =  0   Radius =  0.325 angstrom
                   Q00  =   0.139416

H          x = -2.148477  y =  4.138001  z =  0.077701 angstrom
           Maximum rank =  0   Radius =  0.325 angstrom
                   Q00  =   0.076692

H          x = -0.032477  y =  2.803001  z =  2.534701 angstrom
           Maximum rank =  0   Radius =  0.325 angstrom
                   Q00  =   0.220608

H          x = -0.425477  y =  4.180001  z =  1.520701 angstrom
           Maximum rank =  0   Radius =  0.325 angstrom
                   Q00  =   0.215264

H          x = -3.304164  y =  2.769291  z =  0.101558 angstrom
           Maximum rank =  0   Radius =  0.325 angstrom
                   Q00  =   0.133499

Total multipoles referred to origin at
           x =   0.000000,  y =    0.000000,  z =    0.000000 angstrom
                   Q00  =  -0.000000

Finished at 20:0:50 on 26 Apr 2020

  DMA results are available in the Python driver through the
	  variable('DMA DISTRIBUTED MULTIPOLES')
  and
	  variable('DMA TOTAL MULTIPOLES')
  commands.

    Psi4 stopped on: Sunday, 26 April 2020 08:00PM
    Psi4 wall time for execution: 0:01:13.72

*** Psi4 exiting successfully. Buy a developer a beer!
