                               Psi4 1.3.2 release

  ==> Input File <==

--------------------------------------------------------------------------
import numpy as np
set {scf_type pk
basis cc-pvdz
d_convergence 10
gdma_switch   0
gdma_limit    0
gdma_origin   [ 0.0,  0.0,  0.0 ]
}
molecule test {
    units Angstrom
    0 1
    --
    0 1
    C               -1.864328625780748    -2.741275035302766    -1.165959765682859
    C               -1.729328625780748    -4.290275035302765    -1.118959765682859
    C               -1.528328625780748    -2.276275035302766    -2.590959765682860
    C               -3.275328625780748    -2.251275035302766    -0.793959765682859
    H               -1.161328625780748    -2.294275035302766    -0.464959765682859
    H               -2.425328625780747    -4.707275035302766    -1.846959765682860
    H               -2.191328625780748    -2.757275035302766    -3.312959765682860
    H               -1.661328625780748    -1.195275035302766    -2.661959765682859
    H               -0.492328625780748    -2.496275035302765    -2.846959765682859
    H               -3.504328625780748    -2.514275035302766     0.240040234317141
    H               -3.324328625780748    -1.166275035302766    -0.888959765682859
    H               -4.016328625780747    -2.702275035302766    -1.454959765682859
    H               -1.949488625780748    -4.658465035302767    -0.106059765682859
    H               -0.707408625780748    -4.599313035302766    -1.383849765682859
    C                1.328671374219252    -0.874275035302766    -0.414959765682859
    C                2.732671374219252    -0.991275035302766    -0.996959765682859
    C                1.056671374219252     0.472724964697234     0.246040234317141
    C                0.833671374219252     1.633724964697234    -0.506959765682859
    C                1.009671374219252     0.526724964697234     1.633040234317141
    C                0.548671374219252     2.835724964697234     0.136040234317141
    C                0.739671374219252     1.717724964697234     2.278040234317141
    C                0.503671374219252     2.860724964697234     1.527040234317141
    O                0.198671374219252     3.997724964697234     2.202040234317141
    H                0.616671374219252    -0.993275035302766    -1.228959765682859
    H                1.164671374219252    -1.681275035302766     0.301040234317141
    H                2.836671374219252    -0.188275035302766    -1.729959765682859
    H                0.857671374219252     1.591724964697234    -1.589959765682859
    H                1.196671374219252    -0.368275035302766     2.210040234317141
    H                0.354671374219252     3.733724964697234    -0.432959765682859
    H                0.702671374219252     1.767724964697234     3.356040234317140
    H               -0.021328625780748     4.776724964697234     1.665040234317141
    H                2.860711374219252    -1.953475035302766    -1.514429765682859
    H                3.471881374219252    -0.828205035302766    -0.198849765682859

}
e, wfn = energy('scf', return_wfn=True)
gdma(wfn)
dmavals = variable('DMA DISTRIBUTED MULTIPOLES')
charges = np.array(dmavals)
print(charges)
np.save('SSI-061VAL-064TYR-1-dimer.npy', np.array(charges))--------------------------------------------------------------------------

*** tstart() called on ds3
*** at Mon Apr 27 14:03:55 2020

   => Loading Basis Set <=

    Name: CC-PVDZ
    Role: ORBITAL
    Keyword: BASIS
    atoms 1-4, 15-22  entry C          line   138 file /theoryfs2/ds/metcalf/miniconda2/envs/tf2gpu/share/psi4/basis/cc-pvdz.gbs
    atoms 5-14, 24-33 entry H          line    22 file /theoryfs2/ds/metcalf/miniconda2/envs/tf2gpu/share/psi4/basis/cc-pvdz.gbs
    atoms 23          entry O          line   198 file /theoryfs2/ds/metcalf/miniconda2/envs/tf2gpu/share/psi4/basis/cc-pvdz.gbs

         ---------------------------------------------------------
                                   SCF
               by Justin Turney, Rob Parrish, Andy Simmonett
                          and Daniel G. A. Smith
                              RHF Reference
                        1 Threads,    500 MiB Core
         ---------------------------------------------------------

  ==> Geometry <==

    Molecular point group: c1
    Full point group: C1

    Geometry (in Angstrom), charge = 0, multiplicity = 1:

       Center              X                  Y                   Z               Mass
    ------------   -----------------  -----------------  -----------------  -----------------
         C           -1.864328625781    -2.741275035303    -1.165959765683    12.000000000000
         C           -1.729328625781    -4.290275035303    -1.118959765683    12.000000000000
         C           -1.528328625781    -2.276275035303    -2.590959765683    12.000000000000
         C           -3.275328625781    -2.251275035303    -0.793959765683    12.000000000000
         H           -1.161328625781    -2.294275035303    -0.464959765683     1.007825032230
         H           -2.425328625781    -4.707275035303    -1.846959765683     1.007825032230
         H           -2.191328625781    -2.757275035303    -3.312959765683     1.007825032230
         H           -1.661328625781    -1.195275035303    -2.661959765683     1.007825032230
         H           -0.492328625781    -2.496275035303    -2.846959765683     1.007825032230
         H           -3.504328625781    -2.514275035303     0.240040234317     1.007825032230
         H           -3.324328625781    -1.166275035303    -0.888959765683     1.007825032230
         H           -4.016328625781    -2.702275035303    -1.454959765683     1.007825032230
         H           -1.949488625781    -4.658465035303    -0.106059765683     1.007825032230
         H           -0.707408625781    -4.599313035303    -1.383849765683     1.007825032230
         C            1.328671374219    -0.874275035303    -0.414959765683    12.000000000000
         C            2.732671374219    -0.991275035303    -0.996959765683    12.000000000000
         C            1.056671374219     0.472724964697     0.246040234317    12.000000000000
         C            0.833671374219     1.633724964697    -0.506959765683    12.000000000000
         C            1.009671374219     0.526724964697     1.633040234317    12.000000000000
         C            0.548671374219     2.835724964697     0.136040234317    12.000000000000
         C            0.739671374219     1.717724964697     2.278040234317    12.000000000000
         C            0.503671374219     2.860724964697     1.527040234317    12.000000000000
         O            0.198671374219     3.997724964697     2.202040234317    15.994914619570
         H            0.616671374219    -0.993275035303    -1.228959765683     1.007825032230
         H            1.164671374219    -1.681275035303     0.301040234317     1.007825032230
         H            2.836671374219    -0.188275035303    -1.729959765683     1.007825032230
         H            0.857671374219     1.591724964697    -1.589959765683     1.007825032230
         H            1.196671374219    -0.368275035303     2.210040234317     1.007825032230
         H            0.354671374219     3.733724964697    -0.432959765683     1.007825032230
         H            0.702671374219     1.767724964697     3.356040234317     1.007825032230
         H           -0.021328625781     4.776724964697     1.665040234317     1.007825032230
         H            2.860711374219    -1.953475035303    -1.514429765683     1.007825032230
         H            3.471881374219    -0.828205035303    -0.198849765683     1.007825032230

  Running in c1 symmetry.

  Rotational constants: A =      0.03594  B =      0.00998  C =      0.00898 [cm^-1]
  Rotational constants: A =   1077.52505  B =    299.27287  C =    269.13596 [MHz]
  Nuclear repulsion =  757.484594076389044

  Charge       = 0
  Multiplicity = 1
  Electrons    = 100
  Nalpha       = 50
  Nbeta        = 50

  ==> Algorithm <==

  SCF Algorithm Type is PK.
  DIIS enabled.
  MOM disabled.
  Fractional occupation disabled.
  Guess Type is SAD.
  Energy threshold   = 1.00e-06
  Density threshold  = 1.00e-10
  Integral threshold = 0.00e+00

  ==> Primary Basis <==

  Basis Set: CC-PVDZ
    Blend: CC-PVDZ
    Number of shells: 138
    Number of basis function: 282
    Number of Cartesian functions: 295
    Spherical Harmonics?: true
    Max angular momentum: 2

  ==> Pre-Iterations <==

   -------------------------------------------------------
    Irrep   Nso     Nmo     Nalpha   Nbeta   Ndocc  Nsocc
   -------------------------------------------------------
     A        282     282       0       0       0       0
   -------------------------------------------------------
    Total     282     282      50      50      50       0
   -------------------------------------------------------

  ==> Integral Setup <==

  Using integral reordering PK algorithm.
  Sizing the integral batches needed.
  Building batch lookup table.
   Calculation information:
      Number of atoms:                  33
      Number of AO shells:             138
      Number of primitives:            386
      Number of atomic orbitals:       295
      Number of basis functions:       282

      Integral cutoff                 1.00e-12
      Number of threads:                 1

	Batch   1 pq = [       0,    9405] index = [             0,44231715] size =     44231715
	Batch   2 pq = [    9405,   13301] index = [      44231715,88464951] size =     44233236
	Batch   3 pq = [   13301,   16290] index = [      88464951,132690195] size =     44225244
	Batch   4 pq = [   16290,   18810] index = [     132690195,176917455] size =     44227260
	Batch   5 pq = [   18810,   21030] index = [     176917455,221140965] size =     44223510
	Batch   6 pq = [   21030,   23037] index = [     221140965,265363203] size =     44222238
	Batch   7 pq = [   23037,   24883] index = [     265363203,309594286] size =     44231083
	Batch   8 pq = [   24883,   26601] index = [     309594286,353819901] size =     44225615
	Batch   9 pq = [   26601,   28214] index = [     353819901,398029005] size =     44209104
	Batch  10 pq = [   28214,   29740] index = [     398029005,442248670] size =     44219665
	Batch  11 pq = [   29740,   31191] index = [     442248670,486454836] size =     44206166
	Batch  12 pq = [   31191,   32578] index = [     486454836,530679331] size =     44224495
	Batch  13 pq = [   32578,   33908] index = [     530679331,574893186] size =     44213855
	Batch  14 pq = [   33908,   35188] index = [     574893186,619115266] size =     44222080
	Batch  15 pq = [   35188,   36423] index = [     619115266,663335676] size =     44220410
	Batch  16 pq = [   36423,   37617] index = [     663335676,707538153] size =     44202477
	Batch  17 pq = [   37617,   38775] index = [     707538153,751769700] size =     44231547
	Batch  18 pq = [   38775,   39903] index = [     751769700,796144656] size =     44374956
  Task number: 72
  Buffer size: 11059200
  Buffer per thread: 2
  We computed 41619042 shell quartets total.
  Whereas there are 45998436 unique shell quartets.

  ==> DiskJK: Disk-Based J/K Matrices <==

    J tasked:                  Yes
    K tasked:                  Yes
    wK tasked:                  No
    Memory [MiB]:              375
    Schwarz Cutoff:          1E-12

    OpenMP threads:              1

  Minimum eigenvalue in the overlap matrix is 3.1952228285E-04.
  Using Symmetric Orthogonalization.

  SCF Guess: Superposition of Atomic Densities via on-the-fly atomic UHF.

  ==> Iterations <==

                        Total Energy        Delta E     RMS |[F,P]|

   @RHF iter SAD:  -539.70305249714750   -5.39703e+02   0.00000e+00
   @RHF iter   1:  -540.61460258762713   -9.11550e-01   2.56815e-03 DIIS
   @RHF iter   2:  -540.91074159296022   -2.96139e-01   1.09493e-03 DIIS
   @RHF iter   3:  -540.95963006345585   -4.88885e-02   2.49881e-04 DIIS
   @RHF iter   4:  -540.96368892210444   -4.05886e-03   9.67452e-05 DIIS
   @RHF iter   5:  -540.96412192969490   -4.33008e-04   1.83585e-05 DIIS
   @RHF iter   6:  -540.96414419411406   -2.22644e-05   6.13692e-06 DIIS
   @RHF iter   7:  -540.96414661555627   -2.42144e-06   1.64833e-06 DIIS
   @RHF iter   8:  -540.96414686919491   -2.53639e-07   5.76326e-07 DIIS
   @RHF iter   9:  -540.96414689875553   -2.95606e-08   1.97721e-07 DIIS
   @RHF iter  10:  -540.96414690198571   -3.23018e-09   6.35864e-08 DIIS
   @RHF iter  11:  -540.96414690253107   -5.45356e-10   2.44301e-08 DIIS
   @RHF iter  12:  -540.96414690264612   -1.15051e-10   1.19726e-08 DIIS
   @RHF iter  13:  -540.96414690268580   -3.96767e-11   6.12918e-09 DIIS
   @RHF iter  14:  -540.96414690269535   -9.54969e-12   1.82983e-09 DIIS
   @RHF iter  15:  -540.96414690269489    4.54747e-13   5.54237e-10 DIIS
   @RHF iter  16:  -540.96414690269069    4.20641e-12   1.78161e-10 DIIS
   @RHF iter  17:  -540.96414690269194   -1.25056e-12   7.62091e-11 DIIS
  Energy and wave function converged.

  ==> Post-Iterations <==

    Orbital Energies [Eh]
    ---------------------

    Doubly Occupied:

       1A    -20.580461     2A    -11.298682     3A    -11.241210
       4A    -11.234772     5A    -11.233901     6A    -11.230062
       7A    -11.226201     8A    -11.225813     9A    -11.224614
      10A    -11.220818    11A    -11.217384    12A    -11.213671
      13A    -11.213165    14A     -1.396773    15A     -1.152061
      16A     -1.075598    17A     -1.056181    18A     -1.020265
      19A     -0.975564    20A     -0.925180    21A     -0.921694
      22A     -0.857529    23A     -0.844278    24A     -0.791359
      25A     -0.763377    26A     -0.733828    27A     -0.668661
      28A     -0.645899    29A     -0.629460    30A     -0.612934
      31A     -0.595532    32A     -0.587387    33A     -0.586441
      34A     -0.584469    35A     -0.581748    36A     -0.571139
      37A     -0.541386    38A     -0.536606    39A     -0.533434
      40A     -0.516273    41A     -0.507172    42A     -0.494848
      43A     -0.479475    44A     -0.470228    45A     -0.464679
      46A     -0.458478    47A     -0.457085    48A     -0.448648
      49A     -0.340380    50A     -0.299092

    Virtual:

      51A      0.130593    52A      0.152892    53A      0.170993
      54A      0.178721    55A      0.192713    56A      0.202567
      57A      0.207743    58A      0.225136    59A      0.233320
      60A      0.235481    61A      0.243594    62A      0.252495
      63A      0.260186    64A      0.266472    65A      0.277929
      66A      0.289589    67A      0.303017    68A      0.307288
      69A      0.309464    70A      0.315585    71A      0.324502
      72A      0.333479    73A      0.358286    74A      0.367524
      75A      0.384817    76A      0.400795    77A      0.409278
      78A      0.417793    79A      0.427922    80A      0.473303
      81A      0.486787    82A      0.502122    83A      0.525425
      84A      0.567122    85A      0.574386    86A      0.602932
      87A      0.607514    88A      0.617278    89A      0.625833
      90A      0.637132    91A      0.647203    92A      0.656265
      93A      0.671124    94A      0.690149    95A      0.708715
      96A      0.712982    97A      0.724883    98A      0.731627
      99A      0.736050   100A      0.753960   101A      0.762992
     102A      0.764058   103A      0.784103   104A      0.786312
     105A      0.799014   106A      0.813466   107A      0.819473
     108A      0.832459   109A      0.842328   110A      0.847888
     111A      0.859949   112A      0.871693   113A      0.873837
     114A      0.879161   115A      0.882976   116A      0.893837
     117A      0.895890   118A      0.898931   119A      0.901404
     120A      0.906448   121A      0.912048   122A      0.920111
     123A      0.927263   124A      0.934090   125A      0.935659
     126A      0.948107   127A      0.949867   128A      0.955400
     129A      0.957040   130A      0.960180   131A      0.982107
     132A      0.986518   133A      1.002167   134A      1.015534
     135A      1.021217   136A      1.031419   137A      1.099175
     138A      1.112745   139A      1.125392   140A      1.129110
     141A      1.145996   142A      1.148080   143A      1.156627
     144A      1.166032   145A      1.190044   146A      1.220385
     147A      1.238617   148A      1.251310   149A      1.258941
     150A      1.280947   151A      1.293799   152A      1.302551
     153A      1.308881   154A      1.346572   155A      1.363100
     156A      1.367497   157A      1.380959   158A      1.393842
     159A      1.414260   160A      1.434666   161A      1.445728
     162A      1.486328   163A      1.511220   164A      1.542375
     165A      1.559871   166A      1.569129   167A      1.607289
     168A      1.633274   169A      1.642218   170A      1.660131
     171A      1.673541   172A      1.678901   173A      1.680791
     174A      1.689201   175A      1.697870   176A      1.700058
     177A      1.706152   178A      1.721860   179A      1.732618
     180A      1.751805   181A      1.774828   182A      1.796834
     183A      1.832059   184A      1.841438   185A      1.844126
     186A      1.854731   187A      1.864897   188A      1.881147
     189A      1.889197   190A      1.890491   191A      1.894138
     192A      1.905735   193A      1.910936   194A      1.924494
     195A      1.929279   196A      1.935294   197A      1.945159
     198A      1.945724   199A      1.960786   200A      1.970705
     201A      1.973852   202A      1.974805   203A      1.982690
     204A      1.987546   205A      1.996755   206A      2.004619
     207A      2.012833   208A      2.029146   209A      2.036531
     210A      2.041690   211A      2.059825   212A      2.062517
     213A      2.072969   214A      2.075160   215A      2.097022
     216A      2.100572   217A      2.109925   218A      2.134196
     219A      2.142933   220A      2.146890   221A      2.156037
     222A      2.172631   223A      2.184114   224A      2.236128
     225A      2.248879   226A      2.249379   227A      2.263803
     228A      2.273914   229A      2.296722   230A      2.305386
     231A      2.306798   232A      2.313829   233A      2.337617
     234A      2.349311   235A      2.367694   236A      2.368240
     237A      2.383849   238A      2.438051   239A      2.456692
     240A      2.459808   241A      2.479329   242A      2.482443
     243A      2.517853   244A      2.534987   245A      2.549331
     246A      2.569474   247A      2.592222   248A      2.602810
     249A      2.626624   250A      2.638746   251A      2.649375
     252A      2.698676   253A      2.714167   254A      2.756234
     255A      2.759921   256A      2.770419   257A      2.785910
     258A      2.794594   259A      2.795355   260A      2.804754
     261A      2.808655   262A      2.823468   263A      2.848584
     264A      2.853161   265A      2.856632   266A      2.874743
     267A      2.923704   268A      2.967574   269A      2.987649
     270A      3.008575   271A      3.018875   272A      3.028747
     273A      3.096344   274A      3.128829   275A      3.181585
     276A      3.225914   277A      3.288930   278A      3.362993
     279A      3.558714   280A      3.667129   281A      3.991831
     282A      4.202398

    Final Occupation by Irrep:
              A
    DOCC [    50 ]

  @RHF Final Energy:  -540.96414690269194

   => Energetics <=

    Nuclear Repulsion Energy =            757.4845940763890439
    One-Electron Energy =               -2235.9256967826959226
    Two-Electron Energy =                 937.4769558036150556
    Total Energy =                       -540.9641469026919367

Computation Completed

Properties will be evaluated at   0.000000,   0.000000,   0.000000 [a0]

Properties computed using the SCF density matrix

  Nuclear Dipole Moment: [e a0]
     X:    -6.9293      Y:   -21.7618      Z:   -13.0114

  Electronic Dipole Moment: [e a0]
     X:     6.8679      Y:    21.9921      Z:    12.5447

  Dipole Moment: [e a0]
     X:    -0.0614      Y:     0.2303      Z:    -0.4666     Total:     0.5240

  Dipole Moment: [D]
     X:    -0.1561      Y:     0.5853      Z:    -1.1861     Total:     1.3318

*** tstop() called on ds3 at Mon Apr 27 14:14:41 2020
Module time:
	user time   =     310.65 seconds =       5.18 minutes
	system time =     123.43 seconds =       2.06 minutes
	total time  =        646 seconds =      10.77 minutes
Total time:
	user time   =     310.65 seconds =       5.18 minutes
	system time =     123.43 seconds =       2.06 minutes
	total time  =        646 seconds =      10.77 minutes
                                     G D M A

                                 by Anthony Stone

                           version 2.2.06, 22 June 2011

               Distributed Multipoles from Gaussian wavefunctions

Starting at 14:14:41 on 27 Apr 2020

Using SCF density matrix from file ./SSI/SSI-061VAL-064TYR-1-dimer.test.8677.fchk

                         Distributed Multipole Analysis

Standard DMA

Positions and radii in angstrom
Multipole moments in atomic units, ea_0^k for rank k

C          x = -1.864329  y = -2.741275  z = -1.165960 angstrom
           Maximum rank =  0   Radius =  0.650 angstrom
                   Q00  =  -0.005942

C          x = -1.729329  y = -4.290275  z = -1.118960 angstrom
           Maximum rank =  0   Radius =  0.650 angstrom
                   Q00  =  -0.229747

C          x = -1.528329  y = -2.276275  z = -2.590960 angstrom
           Maximum rank =  0   Radius =  0.650 angstrom
                   Q00  =  -0.253942

C          x = -3.275329  y = -2.251275  z = -0.793960 angstrom
           Maximum rank =  0   Radius =  0.650 angstrom
                   Q00  =  -0.253987

H          x = -1.161329  y = -2.294275  z = -0.464960 angstrom
           Maximum rank =  0   Radius =  0.325 angstrom
                   Q00  =   0.024957

H          x = -2.425329  y = -4.707275  z = -1.846960 angstrom
           Maximum rank =  0   Radius =  0.325 angstrom
                   Q00  =   0.078111

H          x = -2.191329  y = -2.757275  z = -3.312960 angstrom
           Maximum rank =  0   Radius =  0.325 angstrom
                   Q00  =   0.077969

H          x = -1.661329  y = -1.195275  z = -2.661960 angstrom
           Maximum rank =  0   Radius =  0.325 angstrom
                   Q00  =   0.075884

H          x = -0.492329  y = -2.496275  z = -2.846960 angstrom
           Maximum rank =  0   Radius =  0.325 angstrom
                   Q00  =   0.078636

H          x = -3.504329  y = -2.514275  z =  0.240040 angstrom
           Maximum rank =  0   Radius =  0.325 angstrom
                   Q00  =   0.082289

H          x = -3.324329  y = -1.166275  z = -0.888960 angstrom
           Maximum rank =  0   Radius =  0.325 angstrom
                   Q00  =   0.085080

H          x = -4.016329  y = -2.702275  z = -1.454960 angstrom
           Maximum rank =  0   Radius =  0.325 angstrom
                   Q00  =   0.074754

H          x = -1.949489  y = -4.658465  z = -0.106060 angstrom
           Maximum rank =  0   Radius =  0.325 angstrom
                   Q00  =   0.081098

H          x = -0.707409  y = -4.599313  z = -1.383850 angstrom
           Maximum rank =  0   Radius =  0.325 angstrom
                   Q00  =   0.081637

C          x =  1.328671  y = -0.874275  z = -0.414960 angstrom
           Maximum rank =  0   Radius =  0.650 angstrom
                   Q00  =  -0.030155

C          x =  2.732671  y = -0.991275  z = -0.996960 angstrom
           Maximum rank =  0   Radius =  0.650 angstrom
                   Q00  =  -0.228333

C          x =  1.056671  y =  0.472725  z =  0.246040 angstrom
           Maximum rank =  0   Radius =  0.650 angstrom
                   Q00  =  -0.148966

C          x =  0.833671  y =  1.633725  z = -0.506960 angstrom
           Maximum rank =  0   Radius =  0.650 angstrom
                   Q00  =  -0.073857

C          x =  1.009671  y =  0.526725  z =  1.633040 angstrom
           Maximum rank =  0   Radius =  0.650 angstrom
                   Q00  =   0.005361

C          x =  0.548671  y =  2.835725  z =  0.136040 angstrom
           Maximum rank =  0   Radius =  0.650 angstrom
                   Q00  =  -0.196532

C          x =  0.739671  y =  1.717725  z =  2.278040 angstrom
           Maximum rank =  0   Radius =  0.650 angstrom
                   Q00  =  -0.110899

C          x =  0.503671  y =  2.860725  z =  1.527040 angstrom
           Maximum rank =  0   Radius =  0.650 angstrom
                   Q00  =   0.400166

O          x =  0.198671  y =  3.997725  z =  2.202040 angstrom
           Maximum rank =  0   Radius =  0.650 angstrom
                   Q00  =  -0.676627

H          x =  0.616671  y = -0.993275  z = -1.228960 angstrom
           Maximum rank =  0   Radius =  0.325 angstrom
                   Q00  =   0.065788

H          x =  1.164671  y = -1.681275  z =  0.301040 angstrom
           Maximum rank =  0   Radius =  0.325 angstrom
                   Q00  =   0.058698

H          x =  2.836671  y = -0.188275  z = -1.729960 angstrom
           Maximum rank =  0   Radius =  0.325 angstrom
                   Q00  =   0.076085

H          x =  0.857671  y =  1.591725  z = -1.589960 angstrom
           Maximum rank =  0   Radius =  0.325 angstrom
                   Q00  =   0.070525

H          x =  1.196671  y = -0.368275  z =  2.210040 angstrom
           Maximum rank =  0   Radius =  0.325 angstrom
                   Q00  =   0.061064

H          x =  0.354671  y =  3.733725  z = -0.432960 angstrom
           Maximum rank =  0   Radius =  0.325 angstrom
                   Q00  =   0.074645

H          x =  0.702671  y =  1.767725  z =  3.356040 angstrom
           Maximum rank =  0   Radius =  0.325 angstrom
                   Q00  =   0.079955

H          x = -0.021329  y =  4.776725  z =  1.665040 angstrom
           Maximum rank =  0   Radius =  0.325 angstrom
                   Q00  =   0.411327

H          x =  2.860711  y = -1.953475  z = -1.514430 angstrom
           Maximum rank =  0   Radius =  0.325 angstrom
                   Q00  =   0.081757

H          x =  3.471881  y = -0.828205  z = -0.198850 angstrom
           Maximum rank =  0   Radius =  0.325 angstrom
                   Q00  =   0.083204

Total multipoles referred to origin at
           x =   0.000000,  y =    0.000000,  z =    0.000000 angstrom
                   Q00  =  -0.000000

Finished at 14:14:41 on 27 Apr 2020

  DMA results are available in the Python driver through the
	  variable('DMA DISTRIBUTED MULTIPOLES')
  and
	  variable('DMA TOTAL MULTIPOLES')
  commands.

    Psi4 stopped on: Monday, 27 April 2020 02:14PM
    Psi4 wall time for execution: 0:10:46.90

*** Psi4 exiting successfully. Buy a developer a beer!
