                               Psi4 1.3.2 release

  ==> Input File <==

--------------------------------------------------------------------------
import numpy as np
set {scf_type pk
basis cc-pvdz
d_convergence 10
gdma_switch   0
gdma_limit    0
gdma_origin   [ 0.0,  0.0,  0.0 ]
}
molecule test {
    units Angstrom
    0 1
    --
    0 1
    C               -0.564357901799231     1.269677486838293     2.133347635739844
    C               -1.728357901799231     1.320677486838292     3.113347635739844
    H               -0.880357901799231     1.623677486838293     1.150347635739844
    H                0.248642098200769     1.904677486838293     2.488347635739844
    H               -0.173357901799231     0.256677486838293     2.049347635739844
    H               -1.358357901799231     0.966677486838293     4.065347635739844
    H               -2.496277901799230     0.622045486838293     2.749747635739844
    H               -2.124407901799231     2.338472486838293     3.244657635739844
    C                0.601642098200769    -0.521322513161707    -0.972652364260156
    C                2.012642098200769    -0.970322513161707    -1.453652364260156
    C               -0.008357901799231     0.674677486838293    -1.701652364260156
    O               -0.252357901799231    -1.638322513161707    -1.162652364260156
    H                0.648642098200769    -0.286322513161707     0.088347635739844
    H                1.922642098200769    -1.324322513161707    -2.483652364260156
    H                0.038642098200769     0.523677486838293    -2.780652364260156
    H               -1.049357901799231     0.792677486838293    -1.400652364260156
    H                0.529642098200769     1.582677486838293    -1.431652364260156
    H               -0.133357901799231    -2.184322513161707    -0.370652364260156
    H                2.368902098200770    -1.789871513161708    -0.812233364260156
    H                2.734122098200769    -0.140474513161707    -1.425135364260156

}
e, wfn = energy('scf', return_wfn=True)
gdma(wfn)
dmavals = variable('DMA DISTRIBUTED MULTIPOLES')
charges = np.array(dmavals)
print(charges)
np.save('SSI-012ILE-016THR-1-dimer.npy', np.array(charges))--------------------------------------------------------------------------

*** tstart() called on ds3
*** at Tue Apr 28 09:31:57 2020

   => Loading Basis Set <=

    Name: CC-PVDZ
    Role: ORBITAL
    Keyword: BASIS
    atoms 1-2, 9-11  entry C          line   138 file /theoryfs2/ds/metcalf/miniconda2/envs/tf2gpu/share/psi4/basis/cc-pvdz.gbs
    atoms 3-8, 13-20 entry H          line    22 file /theoryfs2/ds/metcalf/miniconda2/envs/tf2gpu/share/psi4/basis/cc-pvdz.gbs
    atoms 12         entry O          line   198 file /theoryfs2/ds/metcalf/miniconda2/envs/tf2gpu/share/psi4/basis/cc-pvdz.gbs

         ---------------------------------------------------------
                                   SCF
               by Justin Turney, Rob Parrish, Andy Simmonett
                          and Daniel G. A. Smith
                              RHF Reference
                        1 Threads,    500 MiB Core
         ---------------------------------------------------------

  ==> Geometry <==

    Molecular point group: c1
    Full point group: C1

    Geometry (in Angstrom), charge = 0, multiplicity = 1:

       Center              X                  Y                   Z               Mass
    ------------   -----------------  -----------------  -----------------  -----------------
         C           -0.564357901799     1.269677486838     2.133347635740    12.000000000000
         C           -1.728357901799     1.320677486838     3.113347635740    12.000000000000
         H           -0.880357901799     1.623677486838     1.150347635740     1.007825032230
         H            0.248642098201     1.904677486838     2.488347635740     1.007825032230
         H           -0.173357901799     0.256677486838     2.049347635740     1.007825032230
         H           -1.358357901799     0.966677486838     4.065347635740     1.007825032230
         H           -2.496277901799     0.622045486838     2.749747635740     1.007825032230
         H           -2.124407901799     2.338472486838     3.244657635740     1.007825032230
         C            0.601642098201    -0.521322513162    -0.972652364260    12.000000000000
         C            2.012642098201    -0.970322513162    -1.453652364260    12.000000000000
         C           -0.008357901799     0.674677486838    -1.701652364260    12.000000000000
         O           -0.252357901799    -1.638322513162    -1.162652364260    15.994914619570
         H            0.648642098201    -0.286322513162     0.088347635740     1.007825032230
         H            1.922642098201    -1.324322513162    -2.483652364260     1.007825032230
         H            0.038642098201     0.523677486838    -2.780652364260     1.007825032230
         H           -1.049357901799     0.792677486838    -1.400652364260     1.007825032230
         H            0.529642098201     1.582677486838    -1.431652364260     1.007825032230
         H           -0.133357901799    -2.184322513162    -0.370652364260     1.007825032230
         H            2.368902098201    -1.789871513162    -0.812233364260     1.007825032230
         H            2.734122098201    -0.140474513162    -1.425135364260     1.007825032230

  Running in c1 symmetry.

  Rotational constants: A =      0.15842  B =      0.03177  C =      0.03135 [cm^-1]
  Rotational constants: A =   4749.19152  B =    952.58237  C =    939.77343 [MHz]
  Nuclear repulsion =  244.803780786093029

  Charge       = 0
  Multiplicity = 1
  Electrons    = 52
  Nalpha       = 26
  Nbeta        = 26

  ==> Algorithm <==

  SCF Algorithm Type is PK.
  DIIS enabled.
  MOM disabled.
  Fractional occupation disabled.
  Guess Type is SAD.
  Energy threshold   = 1.00e-06
  Density threshold  = 1.00e-10
  Integral threshold = 0.00e+00

  ==> Primary Basis <==

  Basis Set: CC-PVDZ
    Blend: CC-PVDZ
    Number of shells: 78
    Number of basis function: 154
    Number of Cartesian functions: 160
    Spherical Harmonics?: true
    Max angular momentum: 2

  ==> Pre-Iterations <==

   -------------------------------------------------------
    Irrep   Nso     Nmo     Nalpha   Nbeta   Ndocc  Nsocc
   -------------------------------------------------------
     A        154     154       0       0       0       0
   -------------------------------------------------------
    Total     154     154      26      26      26       0
   -------------------------------------------------------

  ==> Integral Setup <==

  Using integral reordering PK algorithm.
  Sizing the integral batches needed.
  Building batch lookup table.
   Calculation information:
      Number of atoms:                  20
      Number of AO shells:              78
      Number of primitives:            202
      Number of atomic orbitals:       160
      Number of basis functions:       154

      Integral cutoff                 1.00e-12
      Number of threads:                 1

	Batch   1 pq = [       0,    9405] index = [             0,44231715] size =     44231715
	Batch   2 pq = [    9405,   11935] index = [      44231715,71228080] size =     26996365
  Task number: 7
  Buffer size: 11059200
  Buffer per thread: 2
  We computed 3986707 shell quartets total.
  Whereas there are 4747821 unique shell quartets.

  ==> DiskJK: Disk-Based J/K Matrices <==

    J tasked:                  Yes
    K tasked:                  Yes
    wK tasked:                  No
    Memory [MiB]:              375
    Schwarz Cutoff:          1E-12

    OpenMP threads:              1

  Minimum eigenvalue in the overlap matrix is 4.6780237991E-03.
  Using Symmetric Orthogonalization.

  SCF Guess: Superposition of Atomic Densities via on-the-fly atomic UHF.

  ==> Iterations <==

                        Total Energy        Delta E     RMS |[F,P]|

   @RHF iter SAD:  -271.07001909211351   -2.71070e+02   0.00000e+00
   @RHF iter   1:  -272.14057995873287   -1.07056e+00   3.89878e-03 DIIS
   @RHF iter   2:  -272.32445865648975   -1.83879e-01   1.78998e-03 DIIS
   @RHF iter   3:  -272.35870685633967   -3.42482e-02   3.54432e-04 DIIS
   @RHF iter   4:  -272.36121350968187   -2.50665e-03   1.19830e-04 DIIS
   @RHF iter   5:  -272.36139450729820   -1.80998e-04   2.15417e-05 DIIS
   @RHF iter   6:  -272.36140339292399   -8.88563e-06   4.42908e-06 DIIS
   @RHF iter   7:  -272.36140382074711   -4.27823e-07   1.29536e-06 DIIS
   @RHF iter   8:  -272.36140385421754   -3.34704e-08   3.41179e-07 DIIS
   @RHF iter   9:  -272.36140385776150   -3.54396e-09   8.32482e-08 DIIS
   @RHF iter  10:  -272.36140385796699   -2.05489e-10   2.54623e-08 DIIS
   @RHF iter  11:  -272.36140385798416   -1.71667e-11   6.60586e-09 DIIS
   @RHF iter  12:  -272.36140385798473   -5.68434e-13   1.89712e-09 DIIS
   @RHF iter  13:  -272.36140385798541   -6.82121e-13   5.40735e-10 DIIS
   @RHF iter  14:  -272.36140385798603   -6.25278e-13   1.38930e-10 DIIS
   @RHF iter  15:  -272.36140385798575    2.84217e-13   4.84969e-11 DIIS
  Energy and wave function converged.

  ==> Post-Iterations <==

    Orbital Energies [Eh]
    ---------------------

    Doubly Occupied:

       1A    -20.544838     2A    -11.276497     3A    -11.221689
       4A    -11.220865     5A    -11.219836     6A    -11.216412
       7A     -1.353538     8A     -1.029425     9A     -1.024557
      10A     -0.934502    11A     -0.840953    12A     -0.791136
      13A     -0.699066    14A     -0.607699    15A     -0.604334
      16A     -0.601462    17A     -0.595863    18A     -0.548019
      19A     -0.539650    20A     -0.516038    21A     -0.508493
      22A     -0.505259    23A     -0.489670    24A     -0.487736
      25A     -0.462742    26A     -0.422639

    Virtual:

      27A      0.161901    28A      0.191201    29A      0.204761
      30A      0.226953    31A      0.237434    32A      0.253470
      33A      0.255890    34A      0.258850    35A      0.271112
      36A      0.279913    37A      0.288667    38A      0.298557
      39A      0.315604    40A      0.330751    41A      0.363454
      42A      0.408841    43A      0.417173    44A      0.421214
      45A      0.572825    46A      0.577753    47A      0.593996
      48A      0.602603    49A      0.635828    50A      0.663821
      51A      0.683179    52A      0.685213    53A      0.731302
      54A      0.761331    55A      0.777968    56A      0.790026
      57A      0.835923    58A      0.844427    59A      0.851860
      60A      0.884165    61A      0.888930    62A      0.889629
      63A      0.894568    64A      0.895937    65A      0.905811
      66A      0.911250    67A      0.913766    68A      0.923915
      69A      0.934792    70A      0.960588    71A      0.974055
      72A      0.986785    73A      1.017744    74A      1.123185
      75A      1.130643    76A      1.133571    77A      1.154283
      78A      1.203715    79A      1.236757    80A      1.257484
      81A      1.330366    82A      1.358919    83A      1.404696
      84A      1.473143    85A      1.481291    86A      1.501908
      87A      1.532744    88A      1.553269    89A      1.593410
      90A      1.644274    91A      1.668749    92A      1.674034
      93A      1.675377    94A      1.693814    95A      1.693903
      96A      1.709689    97A      1.822160    98A      1.839990
      99A      1.854703   100A      1.865900   101A      1.879741
     102A      1.886323   103A      1.911374   104A      1.924540
     105A      1.943259   106A      1.945385   107A      1.950673
     108A      1.962446   109A      1.969523   110A      1.976285
     111A      1.993261   112A      2.001039   113A      2.004167
     114A      2.037767   115A      2.047268   116A      2.081062
     117A      2.083689   118A      2.132104   119A      2.169307
     120A      2.214313   121A      2.256345   122A      2.283426
     123A      2.307907   124A      2.314101   125A      2.319383
     126A      2.381980   127A      2.449109   128A      2.455368
     129A      2.483661   130A      2.508172   131A      2.535406
     132A      2.548838   133A      2.556854   134A      2.583097
     135A      2.612917   136A      2.654686   137A      2.750446
     138A      2.765304   139A      2.778930   140A      2.788554
     141A      2.794427   142A      2.817344   143A      2.840086
     144A      2.866646   145A      2.882566   146A      2.904387
     147A      2.947425   148A      2.977093   149A      3.024347
     150A      3.340107   151A      3.407784   152A      3.500952
     153A      3.634382   154A      4.118624

    Final Occupation by Irrep:
              A
    DOCC [    26 ]

  @RHF Final Energy:  -272.36140385798575

   => Energetics <=

    Nuclear Repulsion Energy =            244.8037807860930286
    One-Electron Energy =                -853.8045297877947633
    Two-Electron Energy =                 336.6393451437159570
    Total Energy =                       -272.3614038579857493

Computation Completed

Properties will be evaluated at   0.000000,   0.000000,   0.000000 [a0]

Properties computed using the SCF density matrix

  Nuclear Dipole Moment: [e a0]
     X:     0.2573      Y:     4.5726      Z:     4.8051

  Electronic Dipole Moment: [e a0]
     X:     0.0857      Y:    -4.4330      Z:    -4.2247

  Dipole Moment: [e a0]
     X:     0.3430      Y:     0.1395      Z:     0.5804     Total:     0.6884

  Dipole Moment: [D]
     X:     0.8717      Y:     0.3546      Z:     1.4751     Total:     1.7498

*** tstop() called on ds3 at Tue Apr 28 09:32:36 2020
Module time:
	user time   =      23.14 seconds =       0.39 minutes
	system time =       9.50 seconds =       0.16 minutes
	total time  =         39 seconds =       0.65 minutes
Total time:
	user time   =      23.14 seconds =       0.39 minutes
	system time =       9.50 seconds =       0.16 minutes
	total time  =         39 seconds =       0.65 minutes
                                     G D M A

                                 by Anthony Stone

                           version 2.2.06, 22 June 2011

               Distributed Multipoles from Gaussian wavefunctions

Starting at 9:32:36 on 28 Apr 2020

Using SCF density matrix from file ./SSI/SSI-012ILE-016THR-1-dimer.test.10726.fchk

                         Distributed Multipole Analysis

Standard DMA

Positions and radii in angstrom
Multipole moments in atomic units, ea_0^k for rank k

C          x = -0.564358  y =  1.269677  z =  2.133348 angstrom
           Maximum rank =  0   Radius =  0.650 angstrom
                   Q00  =  -0.238908

C          x = -1.728358  y =  1.320677  z =  3.113348 angstrom
           Maximum rank =  0   Radius =  0.650 angstrom
                   Q00  =  -0.227161

H          x = -0.880358  y =  1.623677  z =  1.150348 angstrom
           Maximum rank =  0   Radius =  0.325 angstrom
                   Q00  =   0.081048

H          x =  0.248642  y =  1.904677  z =  2.488348 angstrom
           Maximum rank =  0   Radius =  0.325 angstrom
                   Q00  =   0.077453

H          x = -0.173358  y =  0.256677  z =  2.049348 angstrom
           Maximum rank =  0   Radius =  0.325 angstrom
                   Q00  =   0.070709

H          x = -1.358358  y =  0.966677  z =  4.065348 angstrom
           Maximum rank =  0   Radius =  0.325 angstrom
                   Q00  =   0.078267

H          x = -2.496278  y =  0.622045  z =  2.749748 angstrom
           Maximum rank =  0   Radius =  0.325 angstrom
                   Q00  =   0.077842

H          x = -2.124408  y =  2.338472  z =  3.244658 angstrom
           Maximum rank =  0   Radius =  0.325 angstrom
                   Q00  =   0.084557

C          x =  0.601642  y = -0.521323  z = -0.972652 angstrom
           Maximum rank =  0   Radius =  0.650 angstrom
                   Q00  =   0.114545

C          x =  2.012642  y = -0.970323  z = -1.453652 angstrom
           Maximum rank =  0   Radius =  0.650 angstrom
                   Q00  =  -0.255009

C          x = -0.008358  y =  0.674677  z = -1.701652 angstrom
           Maximum rank =  0   Radius =  0.650 angstrom
                   Q00  =  -0.242182

O          x = -0.252358  y = -1.638323  z = -1.162652 angstrom
           Maximum rank =  0   Radius =  0.650 angstrom
                   Q00  =  -0.545573

H          x =  0.648642  y = -0.286323  z =  0.088348 angstrom
           Maximum rank =  0   Radius =  0.325 angstrom
                   Q00  =   0.006881

H          x =  1.922642  y = -1.324323  z = -2.483652 angstrom
           Maximum rank =  0   Radius =  0.325 angstrom
                   Q00  =   0.096161

H          x =  0.038642  y =  0.523677  z = -2.780652 angstrom
           Maximum rank =  0   Radius =  0.325 angstrom
                   Q00  =   0.091665

H          x = -1.049358  y =  0.792677  z = -1.400652 angstrom
           Maximum rank =  0   Radius =  0.325 angstrom
                   Q00  =   0.098006

H          x =  0.529642  y =  1.582677  z = -1.431652 angstrom
           Maximum rank =  0   Radius =  0.325 angstrom
                   Q00  =   0.081165

H          x = -0.133358  y = -2.184323  z = -0.370652 angstrom
           Maximum rank =  0   Radius =  0.325 angstrom
                   Q00  =   0.392556

H          x =  2.368902  y = -1.789872  z = -0.812233 angstrom
           Maximum rank =  0   Radius =  0.325 angstrom
                   Q00  =   0.082555

H          x =  2.734122  y = -0.140475  z = -1.425135 angstrom
           Maximum rank =  0   Radius =  0.325 angstrom
                   Q00  =   0.075423

Total multipoles referred to origin at
           x =   0.000000,  y =    0.000000,  z =    0.000000 angstrom
                   Q00  =  -0.000000

Finished at 9:32:36 on 28 Apr 2020

  DMA results are available in the Python driver through the
	  variable('DMA DISTRIBUTED MULTIPOLES')
  and
	  variable('DMA TOTAL MULTIPOLES')
  commands.

    Psi4 stopped on: Tuesday, 28 April 2020 09:32AM
    Psi4 wall time for execution: 0:00:38.52

*** Psi4 exiting successfully. Buy a developer a beer!
