                               Psi4 1.3.2 release

  ==> Input File <==

--------------------------------------------------------------------------
import numpy as np
set {scf_type pk
basis cc-pvdz
d_convergence 10
gdma_switch   0
gdma_limit    0
gdma_origin   [ 0.0,  0.0,  0.0 ]
}
molecule test {
    units Angstrom
    -1 1
    --
    -1 1
    C                1.962961598974991    -0.867444642346250    -0.107069507993505
    C                0.922961598974991    -1.127444642346250    -1.164069507993505
    O               -0.220038401025009    -0.721444642346250    -0.956069507993505
    O                1.237961598974991    -1.729444642346250    -2.196069507993506
    H                1.516961598974991    -0.899444642346250     0.889930492006495
    H                2.344961598974991     0.146555357653750    -0.250069507993505
    H                2.816609598974991    -1.558804642346250    -0.164561507993505
    C               -1.160038401025009     1.773555357653750     0.993930492006495
    C               -0.819038401025009     2.098555357653750     2.446930492006495
    O               -1.770038401025009     0.498555357653750     0.890930492006495
    H               -1.831038401025009     2.536555357653750     0.595930492006495
    H               -0.242038401025009     1.775555357653750     0.407930492006495
    H               -0.372038401025009     3.088555357653750     2.453930492006495
    H               -1.261038401025009     0.011555357653750     0.203930492006495
    H               -0.102776401025009     1.370923357653750     2.856220492006495
    H               -1.730653401025009     2.161751357653750     3.059270492006495

}
e, wfn = energy('scf', return_wfn=True)
gdma(wfn)
dmavals = variable('DMA DISTRIBUTED MULTIPOLES')
charges = np.array(dmavals)
print(charges)
np.save('SSI-073GLU-119SER-1-dimer.npy', np.array(charges))--------------------------------------------------------------------------

*** tstart() called on ds3
*** at Tue Apr 28 14:16:03 2020

   => Loading Basis Set <=

    Name: CC-PVDZ
    Role: ORBITAL
    Keyword: BASIS
    atoms 1-2, 8-9   entry C          line   138 file /theoryfs2/ds/metcalf/miniconda2/envs/tf2gpu/share/psi4/basis/cc-pvdz.gbs
    atoms 3-4, 10    entry O          line   198 file /theoryfs2/ds/metcalf/miniconda2/envs/tf2gpu/share/psi4/basis/cc-pvdz.gbs
    atoms 5-7, 11-16 entry H          line    22 file /theoryfs2/ds/metcalf/miniconda2/envs/tf2gpu/share/psi4/basis/cc-pvdz.gbs

         ---------------------------------------------------------
                                   SCF
               by Justin Turney, Rob Parrish, Andy Simmonett
                          and Daniel G. A. Smith
                              RHF Reference
                        1 Threads,    500 MiB Core
         ---------------------------------------------------------

  ==> Geometry <==

    Molecular point group: c1
    Full point group: C1

    Geometry (in Angstrom), charge = -1, multiplicity = 1:

       Center              X                  Y                   Z               Mass
    ------------   -----------------  -----------------  -----------------  -----------------
         C            1.962961598975    -0.867444642346    -0.107069507994    12.000000000000
         C            0.922961598975    -1.127444642346    -1.164069507994    12.000000000000
         O           -0.220038401025    -0.721444642346    -0.956069507994    15.994914619570
         O            1.237961598975    -1.729444642346    -2.196069507994    15.994914619570
         H            1.516961598975    -0.899444642346     0.889930492006     1.007825032230
         H            2.344961598975     0.146555357654    -0.250069507994     1.007825032230
         H            2.816609598975    -1.558804642346    -0.164561507994     1.007825032230
         C           -1.160038401025     1.773555357654     0.993930492006    12.000000000000
         C           -0.819038401025     2.098555357654     2.446930492006    12.000000000000
         O           -1.770038401025     0.498555357654     0.890930492006    15.994914619570
         H           -1.831038401025     2.536555357654     0.595930492006     1.007825032230
         H           -0.242038401025     1.775555357654     0.407930492006     1.007825032230
         H           -0.372038401025     3.088555357654     2.453930492006     1.007825032230
         H           -1.261038401025     0.011555357654     0.203930492006     1.007825032230
         H           -0.102776401025     1.370923357654     2.856220492006     1.007825032230
         H           -1.730653401025     2.161751357654     3.059270492006     1.007825032230

  Running in c1 symmetry.

  Rotational constants: A =      0.17875  B =      0.03153  C =      0.02814 [cm^-1]
  Rotational constants: A =   5358.74192  B =    945.10201  C =    843.63952 [MHz]
  Nuclear repulsion =  297.297383352035524

  Charge       = -1
  Multiplicity = 1
  Electrons    = 58
  Nalpha       = 29
  Nbeta        = 29

  ==> Algorithm <==

  SCF Algorithm Type is PK.
  DIIS enabled.
  MOM disabled.
  Fractional occupation disabled.
  Guess Type is SAD.
  Energy threshold   = 1.00e-06
  Density threshold  = 1.00e-10
  Integral threshold = 0.00e+00

  ==> Primary Basis <==

  Basis Set: CC-PVDZ
    Blend: CC-PVDZ
    Number of shells: 69
    Number of basis function: 143
    Number of Cartesian functions: 150
    Spherical Harmonics?: true
    Max angular momentum: 2

  ==> Pre-Iterations <==

   -------------------------------------------------------
    Irrep   Nso     Nmo     Nalpha   Nbeta   Ndocc  Nsocc
   -------------------------------------------------------
     A        143     143       0       0       0       0
   -------------------------------------------------------
    Total     143     143      29      29      29       0
   -------------------------------------------------------

  ==> Integral Setup <==

  Using integral reordering PK algorithm.
  Sizing the integral batches needed.
  Building batch lookup table.
   Calculation information:
      Number of atoms:                  16
      Number of AO shells:              69
      Number of primitives:            199
      Number of atomic orbitals:       150
      Number of basis functions:       143

      Integral cutoff                 1.00e-12
      Number of threads:                 1

	Batch   1 pq = [       0,    9405] index = [             0,44231715] size =     44231715
	Batch   2 pq = [    9405,   10296] index = [      44231715,53008956] size =      8777241
  Task number: 5
  Buffer size: 11059200
  Buffer per thread: 2
  We computed 2429698 shell quartets total.
  Whereas there are 2917320 unique shell quartets.

  ==> DiskJK: Disk-Based J/K Matrices <==

    J tasked:                  Yes
    K tasked:                  Yes
    wK tasked:                  No
    Memory [MiB]:              375
    Schwarz Cutoff:          1E-12

    OpenMP threads:              1

  Minimum eigenvalue in the overlap matrix is 5.1907969022E-03.
  Using Symmetric Orthogonalization.

  SCF Guess: Superposition of Atomic Densities via on-the-fly atomic UHF.

  ==> Iterations <==

                        Total Energy        Delta E     RMS |[F,P]|

   @RHF iter SAD:  -379.75520897896200   -3.79755e+02   0.00000e+00
   @RHF iter   1:  -381.08829184195554   -1.33308e+00   5.21226e-03 DIIS
   @RHF iter   2:  -381.29449044969181   -2.06199e-01   2.86305e-03 DIIS
   @RHF iter   3:  -381.35429678291592   -5.98063e-02   4.25400e-04 DIIS
   @RHF iter   4:  -381.35683001233480   -2.53323e-03   1.62866e-04 DIIS
   @RHF iter   5:  -381.35718282744091   -3.52815e-04   3.15996e-05 DIIS
   @RHF iter   6:  -381.35719688568429   -1.40582e-05   1.40613e-05 DIIS
   @RHF iter   7:  -381.35719905713961   -2.17146e-06   2.97174e-06 DIIS
   @RHF iter   8:  -381.35719927038127   -2.13242e-07   1.25210e-06 DIIS
   @RHF iter   9:  -381.35719930405230   -3.36710e-08   5.33356e-07 DIIS
   @RHF iter  10:  -381.35719931179045   -7.73815e-09   1.81173e-07 DIIS
   @RHF iter  11:  -381.35719931274576   -9.55310e-10   5.69807e-08 DIIS
   @RHF iter  12:  -381.35719931281949   -7.37259e-11   1.68982e-08 DIIS
   @RHF iter  13:  -381.35719931282347   -3.97904e-12   3.85636e-09 DIIS
   @RHF iter  14:  -381.35719931282642   -2.95586e-12   9.45043e-10 DIIS
   @RHF iter  15:  -381.35719931282540    1.02318e-12   3.21365e-10 DIIS
   @RHF iter  16:  -381.35719931282358    1.81899e-12   1.07605e-10 DIIS
   @RHF iter  17:  -381.35719931282335    2.27374e-13   4.50142e-11 DIIS
  Energy and wave function converged.

  ==> Post-Iterations <==

    Orbital Energies [Eh]
    ---------------------

    Doubly Occupied:

       1A    -20.371603     2A    -20.285666     3A    -20.272784
       4A    -11.135457     5A    -11.131956     6A    -11.104863
       7A    -11.061429     8A     -1.187722     9A     -1.177547
      10A     -1.065815    11A     -0.879997    12A     -0.812695
      13A     -0.697885    14A     -0.552196    15A     -0.515026
      16A     -0.497184    17A     -0.441748    18A     -0.427463
      19A     -0.425853    20A     -0.420869    21A     -0.410787
      22A     -0.391347    23A     -0.364235    24A     -0.328232
      25A     -0.325604    26A     -0.277209    27A     -0.208521
      28A     -0.191815    29A     -0.186165

    Virtual:

      30A      0.297031    31A      0.335060    32A      0.346411
      33A      0.366408    34A      0.376765    35A      0.390155
      36A      0.424593    37A      0.435014    38A      0.471029
      39A      0.490713    40A      0.518700    41A      0.567968
      42A      0.584534    43A      0.681607    44A      0.721549
      45A      0.733739    46A      0.740395    47A      0.787170
      48A      0.803762    49A      0.856164    50A      0.882149
      51A      0.912510    52A      0.926563    53A      0.947712
      54A      0.958124    55A      0.979621    56A      0.996967
      57A      1.001764    58A      1.012835    59A      1.026868
      60A      1.035898    61A      1.040986    62A      1.057072
      63A      1.087883    64A      1.113455    65A      1.142338
      66A      1.224104    67A      1.257478    68A      1.272510
      69A      1.314511    70A      1.336984    71A      1.338833
      72A      1.391159    73A      1.469858    74A      1.511400
      75A      1.526493    76A      1.547740    77A      1.562878
      78A      1.593916    79A      1.608601    80A      1.625065
      81A      1.641438    82A      1.693122    83A      1.712733
      84A      1.743595    85A      1.789877    86A      1.802019
      87A      1.833256    88A      1.839545    89A      1.874016
      90A      1.950949    91A      1.981619    92A      1.997242
      93A      2.019436    94A      2.047490    95A      2.061047
      96A      2.077298    97A      2.084763    98A      2.098163
      99A      2.103011   100A      2.123508   101A      2.158836
     102A      2.169936   103A      2.194467   104A      2.211941
     105A      2.240239   106A      2.301357   107A      2.338126
     108A      2.394034   109A      2.420176   110A      2.422011
     111A      2.434301   112A      2.481713   113A      2.550067
     114A      2.623117   115A      2.654342   116A      2.666198
     117A      2.672880   118A      2.697569   119A      2.764544
     120A      2.870231   121A      2.897703   122A      2.911635
     123A      2.922189   124A      2.951004   125A      2.976213
     126A      3.010027   127A      3.020003   128A      3.070763
     129A      3.218418   130A      3.276977   131A      3.282736
     132A      3.371670   133A      3.491475   134A      3.570408
     135A      3.632530   136A      3.653672   137A      3.783307
     138A      3.805687   139A      3.837000   140A      4.051213
     141A      4.085488   142A      4.204287   143A      4.375511

    Final Occupation by Irrep:
              A
    DOCC [    29 ]

  @RHF Final Energy:  -381.35719931282335

   => Energetics <=

    Nuclear Repulsion Energy =            297.2973833520355242
    One-Electron Energy =               -1123.0098160827076299
    Two-Electron Energy =                 444.3552334178488081
    Total Energy =                       -381.3571993128233544

Computation Completed

Properties will be evaluated at   0.000000,   0.000000,   0.000000 [a0]

Properties computed using the SCF density matrix

  Nuclear Dipole Moment: [e a0]
     X:     1.0641      Y:     8.0840      Z:     9.4131

  Electronic Dipole Moment: [e a0]
     X:    -0.8699      Y:    -6.1209      Z:    -7.2548

  Dipole Moment: [e a0]
     X:     0.1942      Y:     1.9631      Z:     2.1583     Total:     2.9240

  Dipole Moment: [D]
     X:     0.4937      Y:     4.9896      Z:     5.4858     Total:     7.4320

*** tstop() called on ds3 at Tue Apr 28 14:16:48 2020
Module time:
	user time   =      17.80 seconds =       0.30 minutes
	system time =       7.10 seconds =       0.12 minutes
	total time  =         45 seconds =       0.75 minutes
Total time:
	user time   =      17.80 seconds =       0.30 minutes
	system time =       7.10 seconds =       0.12 minutes
	total time  =         45 seconds =       0.75 minutes
                                     G D M A

                                 by Anthony Stone

                           version 2.2.06, 22 June 2011

               Distributed Multipoles from Gaussian wavefunctions

Starting at 14:16:48 on 28 Apr 2020

Using SCF density matrix from file ./SSI/SSI-073GLU-119SER-1-dimer.test.11141.fchk

                         Distributed Multipole Analysis

Standard DMA

Positions and radii in angstrom
Multipole moments in atomic units, ea_0^k for rank k

C          x =  1.962962  y = -0.867445  z = -0.107070 angstrom
           Maximum rank =  0   Radius =  0.650 angstrom
                   Q00  =  -0.290645

C          x =  0.922962  y = -1.127445  z = -1.164070 angstrom
           Maximum rank =  0   Radius =  0.650 angstrom
                   Q00  =   0.972108

O          x = -0.220038  y = -0.721445  z = -0.956070 angstrom
           Maximum rank =  0   Radius =  0.650 angstrom
                   Q00  =  -0.956131

O          x =  1.237962  y = -1.729445  z = -2.196070 angstrom
           Maximum rank =  0   Radius =  0.650 angstrom
                   Q00  =  -0.910739

H          x =  1.516962  y = -0.899445  z =  0.889930 angstrom
           Maximum rank =  0   Radius =  0.325 angstrom
                   Q00  =   0.065680

H          x =  2.344962  y =  0.146555  z = -0.250070 angstrom
           Maximum rank =  0   Radius =  0.325 angstrom
                   Q00  =   0.079868

H          x =  2.816610  y = -1.558805  z = -0.164562 angstrom
           Maximum rank =  0   Radius =  0.325 angstrom
                   Q00  =   0.060017

C          x = -1.160038  y =  1.773555  z =  0.993930 angstrom
           Maximum rank =  0   Radius =  0.650 angstrom
                   Q00  =   0.181266

C          x = -0.819038  y =  2.098555  z =  2.446930 angstrom
           Maximum rank =  0   Radius =  0.650 angstrom
                   Q00  =  -0.258123

O          x = -1.770038  y =  0.498555  z =  0.890930 angstrom
           Maximum rank =  0   Radius =  0.650 angstrom
                   Q00  =  -0.719764

H          x = -1.831038  y =  2.536555  z =  0.595930 angstrom
           Maximum rank =  0   Radius =  0.325 angstrom
                   Q00  =   0.005861

H          x = -0.242038  y =  1.775555  z =  0.407930 angstrom
           Maximum rank =  0   Radius =  0.325 angstrom
                   Q00  =   0.032629

H          x = -0.372038  y =  3.088555  z =  2.453930 angstrom
           Maximum rank =  0   Radius =  0.325 angstrom
                   Q00  =   0.044082

H          x = -1.261038  y =  0.011555  z =  0.203930 angstrom
           Maximum rank =  0   Radius =  0.325 angstrom
                   Q00  =   0.546530

H          x = -0.102776  y =  1.370923  z =  2.856220 angstrom
           Maximum rank =  0   Radius =  0.325 angstrom
                   Q00  =   0.082837

H          x = -1.730653  y =  2.161751  z =  3.059270 angstrom
           Maximum rank =  0   Radius =  0.325 angstrom
                   Q00  =   0.064523

Total multipoles referred to origin at
           x =   0.000000,  y =    0.000000,  z =    0.000000 angstrom
                   Q00  =  -1.000000

Finished at 14:16:48 on 28 Apr 2020

  DMA results are available in the Python driver through the
	  variable('DMA DISTRIBUTED MULTIPOLES')
  and
	  variable('DMA TOTAL MULTIPOLES')
  commands.

    Psi4 stopped on: Tuesday, 28 April 2020 02:16PM
    Psi4 wall time for execution: 0:00:45.35

*** Psi4 exiting successfully. Buy a developer a beer!
