                               Psi4 1.3.2 release

  ==> Input File <==

--------------------------------------------------------------------------
import numpy as np
set {scf_type pk
basis cc-pvdz
d_convergence 10
gdma_switch   0
gdma_limit    0
gdma_origin   [ 0.0,  0.0,  0.0 ]
}
molecule test {
    units Angstrom
    0 1
    --
    0 1
    C                0.897695609301156    -0.284003845800004     1.691700472844003
    C                0.957695609301156    -1.803003845800004     1.528700472844003
    H               -0.139304390698844     0.009996154199996     1.852700472844003
    H                1.251695609301156     0.206996154199996     0.790700472844003
    H                1.499695609301156     0.025996154199996     2.544700472844003
    H                0.345695609301156    -2.075003845800004     0.665700472844003
    H                0.540795609301156    -2.290392845800004     2.422370472844003
    H                1.996875609301156    -2.119992845800004     1.356580472844003
    C               -1.382304390698844     0.536996154199996    -1.284299527155997
    C               -0.474304390698844     1.553996154199996    -1.937299527155997
    H               -0.830304390698844    -0.388003845800004    -1.119299527155997
    H               -2.228304390698844     0.323996154199996    -1.929299527155997
    H               -1.739304390698844     0.908996154199996    -0.324299527155997
    H               -0.161304390698844     1.193996154199996    -2.918299527155997
    H                0.396695609301156     1.599996154199996    -1.296299527155997
    H               -0.918434390698844     2.555976154199996    -2.030989527155997

}
e, wfn = energy('scf', return_wfn=True)
gdma(wfn)
dmavals = variable('DMA DISTRIBUTED MULTIPOLES')
charges = np.array(dmavals)
print(charges)
np.save('SSI-007ALA-011ILE-1-dimer.npy', np.array(charges))--------------------------------------------------------------------------

*** tstart() called on ds3
*** at Mon Apr 27 16:08:24 2020

   => Loading Basis Set <=

    Name: CC-PVDZ
    Role: ORBITAL
    Keyword: BASIS
    atoms 1-2, 9-10  entry C          line   138 file /theoryfs2/ds/metcalf/miniconda2/envs/tf2gpu/share/psi4/basis/cc-pvdz.gbs
    atoms 3-8, 11-16 entry H          line    22 file /theoryfs2/ds/metcalf/miniconda2/envs/tf2gpu/share/psi4/basis/cc-pvdz.gbs

         ---------------------------------------------------------
                                   SCF
               by Justin Turney, Rob Parrish, Andy Simmonett
                          and Daniel G. A. Smith
                              RHF Reference
                        1 Threads,    500 MiB Core
         ---------------------------------------------------------

  ==> Geometry <==

    Molecular point group: c1
    Full point group: C1

    Geometry (in Angstrom), charge = 0, multiplicity = 1:

       Center              X                  Y                   Z               Mass
    ------------   -----------------  -----------------  -----------------  -----------------
         C            0.897695609301    -0.284003845800     1.691700472844    12.000000000000
         C            0.957695609301    -1.803003845800     1.528700472844    12.000000000000
         H           -0.139304390699     0.009996154200     1.852700472844     1.007825032230
         H            1.251695609301     0.206996154200     0.790700472844     1.007825032230
         H            1.499695609301     0.025996154200     2.544700472844     1.007825032230
         H            0.345695609301    -2.075003845800     0.665700472844     1.007825032230
         H            0.540795609301    -2.290392845800     2.422370472844     1.007825032230
         H            1.996875609301    -2.119992845800     1.356580472844     1.007825032230
         C           -1.382304390699     0.536996154200    -1.284299527156    12.000000000000
         C           -0.474304390699     1.553996154200    -1.937299527156    12.000000000000
         H           -0.830304390699    -0.388003845800    -1.119299527156     1.007825032230
         H           -2.228304390699     0.323996154200    -1.929299527156     1.007825032230
         H           -1.739304390699     0.908996154200    -0.324299527156     1.007825032230
         H           -0.161304390699     1.193996154200    -2.918299527156     1.007825032230
         H            0.396695609301     1.599996154200    -1.296299527156     1.007825032230
         H           -0.918434390699     2.555976154200    -2.030989527156     1.007825032230

  Running in c1 symmetry.

  Rotational constants: A =      0.39430  B =      0.05633  C =      0.05359 [cm^-1]
  Rotational constants: A =  11820.79767  B =   1688.60235  C =   1606.67505 [MHz]
  Nuclear repulsion =  124.390364209302078

  Charge       = 0
  Multiplicity = 1
  Electrons    = 36
  Nalpha       = 18
  Nbeta        = 18

  ==> Algorithm <==

  SCF Algorithm Type is PK.
  DIIS enabled.
  MOM disabled.
  Fractional occupation disabled.
  Guess Type is SAD.
  Energy threshold   = 1.00e-06
  Density threshold  = 1.00e-10
  Integral threshold = 0.00e+00

  ==> Primary Basis <==

  Basis Set: CC-PVDZ
    Blend: CC-PVDZ
    Number of shells: 60
    Number of basis function: 116
    Number of Cartesian functions: 120
    Spherical Harmonics?: true
    Max angular momentum: 2

  ==> Pre-Iterations <==

   -------------------------------------------------------
    Irrep   Nso     Nmo     Nalpha   Nbeta   Ndocc  Nsocc
   -------------------------------------------------------
     A        116     116       0       0       0       0
   -------------------------------------------------------
    Total     116     116      18      18      18       0
   -------------------------------------------------------

  ==> Integral Setup <==

  Using integral reordering PK algorithm.
  Sizing the integral batches needed.
  Building batch lookup table.
   Calculation information:
      Number of atoms:                  16
      Number of AO shells:              60
      Number of primitives:            148
      Number of atomic orbitals:       120
      Number of basis functions:       116

      Integral cutoff                 1.00e-12
      Number of threads:                 1

	Batch   1 pq = [       0,    6786] index = [             0,23028291] size =     23028291
  Task number: 3
  Buffer size: 11059200
  Buffer per thread: 2
  We computed 1516301 shell quartets total.
  Whereas there are 1675365 unique shell quartets.

  ==> DiskJK: Disk-Based J/K Matrices <==

    J tasked:                  Yes
    K tasked:                  Yes
    wK tasked:                  No
    Memory [MiB]:              375
    Schwarz Cutoff:          1E-12

    OpenMP threads:              1

  Minimum eigenvalue in the overlap matrix is 7.4344318134E-03.
  Using Symmetric Orthogonalization.

  SCF Guess: Superposition of Atomic Densities via on-the-fly atomic UHF.

  ==> Iterations <==

                        Total Energy        Delta E     RMS |[F,P]|

   @RHF iter SAD:  -157.39016859285545   -1.57390e+02   0.00000e+00
   @RHF iter   1:  -158.30431740084154   -9.14149e-01   4.25412e-03 DIIS
   @RHF iter   2:  -158.43950512061670   -1.35188e-01   1.81941e-03 DIIS
   @RHF iter   3:  -158.46345468531442   -2.39496e-02   3.50786e-04 DIIS
   @RHF iter   4:  -158.46528717168275   -1.83249e-03   3.83428e-05 DIIS
   @RHF iter   5:  -158.46531030547345   -2.31338e-05   6.27740e-06 DIIS
   @RHF iter   6:  -158.46531090813107   -6.02658e-07   8.16787e-07 DIIS
   @RHF iter   7:  -158.46531091592985   -7.79877e-09   2.54858e-07 DIIS
   @RHF iter   8:  -158.46531091646992   -5.40069e-10   3.98403e-08 DIIS
   @RHF iter   9:  -158.46531091649160   -2.16858e-11   8.17422e-09 DIIS
   @RHF iter  10:  -158.46531091649263   -1.02318e-12   2.07332e-09 DIIS
   @RHF iter  11:  -158.46531091649234    2.84217e-13   5.78228e-10 DIIS
   @RHF iter  12:  -158.46531091649260   -2.55795e-13   1.75482e-10 DIIS
   @RHF iter  13:  -158.46531091649226    3.41061e-13   2.57407e-11 DIIS
  Energy and wave function converged.

  ==> Post-Iterations <==

    Orbital Energies [Eh]
    ---------------------

    Doubly Occupied:

       1A    -11.220060     2A    -11.216535     3A    -11.216208
       4A    -11.215078     5A     -1.024662     6A     -1.019054
       7A     -0.836596     8A     -0.835874     9A     -0.608374
      10A     -0.601182    11A     -0.599297    12A     -0.594660
      13A     -0.505423    14A     -0.498236    15A     -0.489333
      16A     -0.487903    17A     -0.483658    18A     -0.480866

    Virtual:

      19A      0.166118    20A      0.202216    21A      0.223965
      22A      0.224670    23A      0.240379    24A      0.255433
      25A      0.264336    26A      0.273402    27A      0.277591
      28A      0.314799    29A      0.344882    30A      0.371043
      31A      0.394914    32A      0.403283    33A      0.568171
      34A      0.592463    35A      0.598177    36A      0.605577
      37A      0.609921    38A      0.628480    39A      0.658164
      40A      0.682719    41A      0.695798    42A      0.790937
      43A      0.842571    44A      0.853789    45A      0.874109
      46A      0.891745    47A      0.893568    48A      0.900327
      49A      0.905435    50A      0.914864    51A      0.917040
      52A      0.934318    53A      0.945133    54A      0.970096
      55A      0.995392    56A      1.005455    57A      1.125619
      58A      1.131029    59A      1.137575    60A      1.138233
      61A      1.223709    62A      1.277053    63A      1.463611
      64A      1.477225    65A      1.482590    66A      1.492364
      67A      1.546791    68A      1.615575    69A      1.676538
      70A      1.684065    71A      1.695829    72A      1.701044
      73A      1.848763    74A      1.853764    75A      1.857698
      76A      1.890039    77A      1.897382    78A      1.904549
      79A      1.939113    80A      1.943618    81A      1.947477
      82A      1.952183    83A      1.956560    84A      1.962398
      85A      1.965061    86A      1.977076    87A      1.996461
      88A      2.040618    89A      2.098659    90A      2.111406
      91A      2.123746    92A      2.149481    93A      2.285357
      94A      2.299311    95A      2.311993    96A      2.321396
      97A      2.449603    98A      2.461797    99A      2.462725
     100A      2.477841   101A      2.558677   102A      2.566943
     103A      2.577034   104A      2.599916   105A      2.764747
     106A      2.777467   107A      2.798477   108A      2.802611
     109A      2.845344   110A      2.848350   111A      2.861690
     112A      2.872959   113A      2.943971   114A      2.957556
     115A      2.970908   116A      2.989275

    Final Occupation by Irrep:
              A
    DOCC [    18 ]

  @RHF Final Energy:  -158.46531091649226

   => Energetics <=

    Nuclear Repulsion Energy =            124.3903642093020778
    One-Electron Energy =                -457.8453557871997646
    Two-Electron Energy =                 174.9896806614054015
    Total Energy =                       -158.4653109164922569

Computation Completed

Properties will be evaluated at   0.000000,   0.000000,   0.000000 [a0]

Properties computed using the SCF density matrix

  Nuclear Dipole Moment: [e a0]
     X:     0.0136      Y:    -0.0445      Z:     0.0134

  Electronic Dipole Moment: [e a0]
     X:    -0.0150      Y:     0.0440      Z:    -0.0093

  Dipole Moment: [e a0]
     X:    -0.0014      Y:    -0.0005      Z:     0.0041     Total:     0.0043

  Dipole Moment: [D]
     X:    -0.0035      Y:    -0.0013      Z:     0.0104     Total:     0.0111

*** tstop() called on ds3 at Mon Apr 27 16:08:36 2020
Module time:
	user time   =       8.92 seconds =       0.15 minutes
	system time =       3.52 seconds =       0.06 minutes
	total time  =         12 seconds =       0.20 minutes
Total time:
	user time   =       8.92 seconds =       0.15 minutes
	system time =       3.52 seconds =       0.06 minutes
	total time  =         12 seconds =       0.20 minutes
                                     G D M A

                                 by Anthony Stone

                           version 2.2.06, 22 June 2011

               Distributed Multipoles from Gaussian wavefunctions

Starting at 16:8:36 on 27 Apr 2020

Using SCF density matrix from file ./SSI/SSI-007ALA-011ILE-1-dimer.test.32454.fchk

                         Distributed Multipole Analysis

Standard DMA

Positions and radii in angstrom
Multipole moments in atomic units, ea_0^k for rank k

C          x =  0.897696  y = -0.284004  z =  1.691700 angstrom
           Maximum rank =  0   Radius =  0.650 angstrom
                   Q00  =  -0.231764

C          x =  0.957696  y = -1.803004  z =  1.528700 angstrom
           Maximum rank =  0   Radius =  0.650 angstrom
                   Q00  =  -0.242487

H          x = -0.139304  y =  0.009996  z =  1.852700 angstrom
           Maximum rank =  0   Radius =  0.325 angstrom
                   Q00  =   0.078550

H          x =  1.251696  y =  0.206996  z =  0.790700 angstrom
           Maximum rank =  0   Radius =  0.325 angstrom
                   Q00  =   0.080180

H          x =  1.499696  y =  0.025996  z =  2.544700 angstrom
           Maximum rank =  0   Radius =  0.325 angstrom
                   Q00  =   0.079833

H          x =  0.345696  y = -2.075004  z =  0.665700 angstrom
           Maximum rank =  0   Radius =  0.325 angstrom
                   Q00  =   0.077657

H          x =  0.540796  y = -2.290393  z =  2.422370 angstrom
           Maximum rank =  0   Radius =  0.325 angstrom
                   Q00  =   0.079917

H          x =  1.996876  y = -2.119993  z =  1.356580 angstrom
           Maximum rank =  0   Radius =  0.325 angstrom
                   Q00  =   0.078904

C          x = -1.382304  y =  0.536996  z = -1.284300 angstrom
           Maximum rank =  0   Radius =  0.650 angstrom
                   Q00  =  -0.237645

C          x = -0.474304  y =  1.553996  z = -1.937300 angstrom
           Maximum rank =  0   Radius =  0.650 angstrom
                   Q00  =  -0.228048

H          x = -0.830304  y = -0.388004  z = -1.119300 angstrom
           Maximum rank =  0   Radius =  0.325 angstrom
                   Q00  =   0.077732

H          x = -2.228304  y =  0.323996  z = -1.929300 angstrom
           Maximum rank =  0   Radius =  0.325 angstrom
                   Q00  =   0.076193

H          x = -1.739304  y =  0.908996  z = -0.324300 angstrom
           Maximum rank =  0   Radius =  0.325 angstrom
                   Q00  =   0.079179

H          x = -0.161304  y =  1.193996  z = -2.918300 angstrom
           Maximum rank =  0   Radius =  0.325 angstrom
                   Q00  =   0.077447

H          x =  0.396696  y =  1.599996  z = -1.296300 angstrom
           Maximum rank =  0   Radius =  0.325 angstrom
                   Q00  =   0.073052

H          x = -0.918434  y =  2.555976  z = -2.030990 angstrom
           Maximum rank =  0   Radius =  0.325 angstrom
                   Q00  =   0.081301

Total multipoles referred to origin at
           x =   0.000000,  y =    0.000000,  z =    0.000000 angstrom
                   Q00  =  -0.000000

Finished at 16:8:36 on 27 Apr 2020

  DMA results are available in the Python driver through the
	  variable('DMA DISTRIBUTED MULTIPOLES')
  and
	  variable('DMA TOTAL MULTIPOLES')
  commands.

    Psi4 stopped on: Monday, 27 April 2020 04:08PM
    Psi4 wall time for execution: 0:00:12.25

*** Psi4 exiting successfully. Buy a developer a beer!
