                               Psi4 1.3.2 release

  ==> Input File <==

--------------------------------------------------------------------------
import numpy as np
set {scf_type pk
basis cc-pvdz
d_convergence 10
gdma_switch   0
gdma_limit    0
gdma_origin   [ 0.0,  0.0,  0.0 ]
}
molecule test {
    units Angstrom
    0 1
    --
    0 1
    C                3.401997032026526     2.154465850958231    -1.282869779696665
    C               -0.173002967973474    -0.079534149041769    -0.424869779696665
    C               -0.225002967973474     1.010465850958231    -1.279869779696666
    C                1.031997032026526    -0.454534149041769     0.155130220303335
    C                0.929997032026526     1.727465850958231    -1.539869779696665
    C                2.185997032026526     0.269465850958231    -0.117869779696665
    C                2.147997032026526     1.371465850958231    -0.971869779696665
    O               -1.300002967973474    -0.788534149041769    -0.163869779696665
    H               -1.991002967973474    -0.637534149041769    -0.844869779696665
    H               -1.171002967973474     1.335465850958231    -1.674869779696666
    H                1.049997032026526    -1.314534149041769     0.789130220303335
    H                0.845997032026526     2.621465850958232    -2.061869779696666
    H                3.117997032026526    -0.028534149041769     0.341130220303335
    H                4.025997032026526     2.225465850958231    -0.390869779696665
    H                3.108997032026525     3.168465850958231    -1.559869779696665
    H                3.984308032026526     1.718815850958231    -2.108169779696666
    C               -2.905002967973475    -1.821534149041769     2.278130220303335
    C               -4.014002967973474    -2.737534149041769     2.761130220303334
    H               -3.325002967973474    -0.921534149041769     1.833130220303335
    H               -2.245002967973474    -1.557534149041769     3.102130220303335
    H               -2.326002967973474    -2.341534149041768     1.531130220303335
    H               -3.558002967973475    -3.606534149041769     3.224130220303335
    H               -4.633442967973474    -3.060094149041769     1.911280220303335
    H               -4.601682967973474    -2.235364149041769     3.543730220303334

}
e, wfn = energy('scf', return_wfn=True)
gdma(wfn)
dmavals = variable('DMA DISTRIBUTED MULTIPOLES')
charges = np.array(dmavals)
print(charges)
np.save('SSI-009TYR-158ALA-1-dimer.npy', np.array(charges))--------------------------------------------------------------------------

*** tstart() called on ds3
*** at Tue Apr 28 09:32:12 2020

   => Loading Basis Set <=

    Name: CC-PVDZ
    Role: ORBITAL
    Keyword: BASIS
    atoms 1-7, 17-18  entry C          line   138 file /theoryfs2/ds/metcalf/miniconda2/envs/tf2gpu/share/psi4/basis/cc-pvdz.gbs
    atoms 8           entry O          line   198 file /theoryfs2/ds/metcalf/miniconda2/envs/tf2gpu/share/psi4/basis/cc-pvdz.gbs
    atoms 9-16, 19-24 entry H          line    22 file /theoryfs2/ds/metcalf/miniconda2/envs/tf2gpu/share/psi4/basis/cc-pvdz.gbs

         ---------------------------------------------------------
                                   SCF
               by Justin Turney, Rob Parrish, Andy Simmonett
                          and Daniel G. A. Smith
                              RHF Reference
                        1 Threads,    500 MiB Core
         ---------------------------------------------------------

  ==> Geometry <==

    Molecular point group: c1
    Full point group: C1

    Geometry (in Angstrom), charge = 0, multiplicity = 1:

       Center              X                  Y                   Z               Mass
    ------------   -----------------  -----------------  -----------------  -----------------
         C            3.401997032027     2.154465850958    -1.282869779697    12.000000000000
         C           -0.173002967973    -0.079534149042    -0.424869779697    12.000000000000
         C           -0.225002967973     1.010465850958    -1.279869779697    12.000000000000
         C            1.031997032027    -0.454534149042     0.155130220303    12.000000000000
         C            0.929997032027     1.727465850958    -1.539869779697    12.000000000000
         C            2.185997032027     0.269465850958    -0.117869779697    12.000000000000
         C            2.147997032027     1.371465850958    -0.971869779697    12.000000000000
         O           -1.300002967973    -0.788534149042    -0.163869779697    15.994914619570
         H           -1.991002967973    -0.637534149042    -0.844869779697     1.007825032230
         H           -1.171002967973     1.335465850958    -1.674869779697     1.007825032230
         H            1.049997032027    -1.314534149042     0.789130220303     1.007825032230
         H            0.845997032027     2.621465850958    -2.061869779697     1.007825032230
         H            3.117997032027    -0.028534149042     0.341130220303     1.007825032230
         H            4.025997032027     2.225465850958    -0.390869779697     1.007825032230
         H            3.108997032027     3.168465850958    -1.559869779697     1.007825032230
         H            3.984308032027     1.718815850958    -2.108169779697     1.007825032230
         C           -2.905002967973    -1.821534149042     2.278130220303    12.000000000000
         C           -4.014002967973    -2.737534149042     2.761130220303    12.000000000000
         H           -3.325002967973    -0.921534149042     1.833130220303     1.007825032230
         H           -2.245002967973    -1.557534149042     3.102130220303     1.007825032230
         H           -2.326002967973    -2.341534149042     1.531130220303     1.007825032230
         H           -3.558002967973    -3.606534149042     3.224130220303     1.007825032230
         H           -4.633442967973    -3.060094149042     1.911280220303     1.007825032230
         H           -4.601682967973    -2.235364149042     3.543730220303     1.007825032230

  Running in c1 symmetry.

  Rotational constants: A =      0.13333  B =      0.01341  C =      0.01256 [cm^-1]
  Rotational constants: A =   3997.07805  B =    402.15270  C =    376.55641 [MHz]
  Nuclear repulsion =  482.027322447075335

  Charge       = 0
  Multiplicity = 1
  Electrons    = 76
  Nalpha       = 38
  Nbeta        = 38

  ==> Algorithm <==

  SCF Algorithm Type is PK.
  DIIS enabled.
  MOM disabled.
  Fractional occupation disabled.
  Guess Type is SAD.
  Energy threshold   = 1.00e-06
  Density threshold  = 1.00e-10
  Integral threshold = 0.00e+00

  ==> Primary Basis <==

  Basis Set: CC-PVDZ
    Blend: CC-PVDZ
    Number of shells: 102
    Number of basis function: 210
    Number of Cartesian functions: 220
    Spherical Harmonics?: true
    Max angular momentum: 2

  ==> Pre-Iterations <==

   -------------------------------------------------------
    Irrep   Nso     Nmo     Nalpha   Nbeta   Ndocc  Nsocc
   -------------------------------------------------------
     A        210     210       0       0       0       0
   -------------------------------------------------------
    Total     210     210      38      38      38       0
   -------------------------------------------------------

  ==> Integral Setup <==

  Using integral reordering PK algorithm.
  Sizing the integral batches needed.
  Building batch lookup table.
   Calculation information:
      Number of atoms:                  24
      Number of AO shells:             102
      Number of primitives:            290
      Number of atomic orbitals:       220
      Number of basis functions:       210

      Integral cutoff                 1.00e-12
      Number of threads:                 1

	Batch   1 pq = [       0,    9405] index = [             0,44231715] size =     44231715
	Batch   2 pq = [    9405,   13301] index = [      44231715,88464951] size =     44233236
	Batch   3 pq = [   13301,   16290] index = [      88464951,132690195] size =     44225244
	Batch   4 pq = [   16290,   18810] index = [     132690195,176917455] size =     44227260
	Batch   5 pq = [   18810,   21030] index = [     176917455,221140965] size =     44223510
	Batch   6 pq = [   21030,   22155] index = [     221140965,245433090] size =     24292125
  Task number: 23
  Buffer size: 11059200
  Buffer per thread: 2
  We computed 9476804 shell quartets total.
  Whereas there are 13799631 unique shell quartets.

  ==> DiskJK: Disk-Based J/K Matrices <==

    J tasked:                  Yes
    K tasked:                  Yes
    wK tasked:                  No
    Memory [MiB]:              375
    Schwarz Cutoff:          1E-12

    OpenMP threads:              1

  Minimum eigenvalue in the overlap matrix is 3.2232326543E-04.
  Using Symmetric Orthogonalization.

  SCF Guess: Superposition of Atomic Densities via on-the-fly atomic UHF.

  ==> Iterations <==

                        Total Energy        Delta E     RMS |[F,P]|

   @RHF iter SAD:  -422.77130093675009   -4.22771e+02   0.00000e+00
   @RHF iter   1:  -423.59339576320446   -8.22095e-01   2.99934e-03 DIIS
   @RHF iter   2:  -423.81365458659297   -2.20259e-01   1.25833e-03 DIIS
   @RHF iter   3:  -423.84869793341790   -3.50433e-02   2.81484e-04 DIIS
   @RHF iter   4:  -423.85156724690188   -2.86931e-03   1.14948e-04 DIIS
   @RHF iter   5:  -423.85190731812577   -3.40071e-04   2.13027e-05 DIIS
   @RHF iter   6:  -423.85192547048797   -1.81524e-05   6.40875e-06 DIIS
   @RHF iter   7:  -423.85192713877007   -1.66828e-06   2.08983e-06 DIIS
   @RHF iter   8:  -423.85192735872801   -2.19958e-07   7.66600e-07 DIIS
   @RHF iter   9:  -423.85192739326777   -3.45398e-08   2.95944e-07 DIIS
   @RHF iter  10:  -423.85192739908729   -5.81952e-09   1.20180e-07 DIIS
   @RHF iter  11:  -423.85192740081686   -1.72957e-09   5.39904e-08 DIIS
   @RHF iter  12:  -423.85192740118282   -3.65958e-10   2.59251e-08 DIIS
   @RHF iter  13:  -423.85192740124995   -6.71321e-11   8.17497e-09 DIIS
   @RHF iter  14:  -423.85192740125444   -4.49063e-12   2.20362e-09 DIIS
   @RHF iter  15:  -423.85192740125802   -3.58114e-12   7.07888e-10 DIIS
   @RHF iter  16:  -423.85192740125848   -4.54747e-13   2.30819e-10 DIIS
   @RHF iter  17:  -423.85192740125660    1.87583e-12   9.73195e-11 DIIS
  Energy and wave function converged.

  ==> Post-Iterations <==

    Orbital Energies [Eh]
    ---------------------

    Doubly Occupied:

       1A    -20.584684     2A    -11.296086     3A    -11.237323
       4A    -11.233105     5A    -11.231728     6A    -11.229717
       7A    -11.228651     8A    -11.227959     9A    -11.208676
      10A    -11.199664    11A     -1.399331    12A     -1.152690
      13A     -1.036979    14A     -1.021054    15A     -1.011257
      16A     -0.926312    17A     -0.846754    18A     -0.824933
      19A     -0.803615    20A     -0.732780    21A     -0.669813
      22A     -0.643937    23A     -0.612057    24A     -0.595429
      25A     -0.591337    26A     -0.588059    27A     -0.586249
      28A     -0.570897    29A     -0.563987    30A     -0.524398
      31A     -0.499497    32A     -0.489704    33A     -0.484343
      34A     -0.476532    35A     -0.470140    36A     -0.467360
      37A     -0.339541    38A     -0.302294

    Virtual:

      39A      0.130463    40A      0.155132    41A      0.173354
      42A      0.188528    43A      0.198403    44A      0.215318
      45A      0.221145    46A      0.245650    47A      0.256967
      48A      0.261716    49A      0.267331    50A      0.280699
      51A      0.282915    52A      0.294775    53A      0.297432
      54A      0.313864    55A      0.369552    56A      0.374180
      57A      0.401884    58A      0.439640    59A      0.456621
      60A      0.481241    61A      0.501252    62A      0.507760
      63A      0.607269    64A      0.610335    65A      0.614551
      66A      0.618263    67A      0.633132    68A      0.650900
      69A      0.672525    70A      0.679421    71A      0.686725
      72A      0.691322    73A      0.705053    74A      0.708272
      75A      0.731856    76A      0.739780    77A      0.742383
      78A      0.774173    79A      0.777272    80A      0.788112
      81A      0.802927    82A      0.834771    83A      0.843287
      84A      0.861951    85A      0.867463    86A      0.879554
      87A      0.888166    88A      0.891846    89A      0.900392
      90A      0.901255    91A      0.905480    92A      0.910246
      93A      0.919117    94A      0.923144    95A      0.931580
      96A      0.938531    97A      0.940983    98A      0.956347
      99A      0.987595   100A      1.013431   101A      1.027193
     102A      1.057276   103A      1.128361   104A      1.130677
     105A      1.137309   106A      1.145093   107A      1.157144
     108A      1.170700   109A      1.205356   110A      1.231725
     111A      1.236584   112A      1.250618   113A      1.271021
     114A      1.291170   115A      1.308002   116A      1.324582
     117A      1.338671   118A      1.361616   119A      1.381624
     120A      1.398517   121A      1.475930   122A      1.490214
     123A      1.496384   124A      1.519973   125A      1.548583
     126A      1.569872   127A      1.590290   128A      1.619912
     129A      1.641038   130A      1.678027   131A      1.686653
     132A      1.701247   133A      1.717196   134A      1.733770
     135A      1.750403   136A      1.779413   137A      1.798788
     138A      1.811371   139A      1.865364   140A      1.872393
     141A      1.878751   142A      1.887111   143A      1.900764
     144A      1.908149   145A      1.918509   146A      1.922138
     147A      1.940822   148A      1.950614   149A      1.954314
     150A      1.965501   151A      1.969298   152A      1.977444
     153A      1.982324   154A      1.984951   155A      1.995838
     156A      2.029530   157A      2.047952   158A      2.050661
     159A      2.060910   160A      2.076938   161A      2.088284
     162A      2.110892   163A      2.131114   164A      2.142722
     165A      2.159125   166A      2.163286   167A      2.207731
     168A      2.230159   169A      2.264913   170A      2.286262
     171A      2.300427   172A      2.315857   173A      2.328610
     174A      2.338958   175A      2.372283   176A      2.424281
     177A      2.436567   178A      2.461773   179A      2.491891
     180A      2.494019   181A      2.503259   182A      2.531884
     183A      2.564598   184A      2.585539   185A      2.594453
     186A      2.607814   187A      2.641150   188A      2.762685
     189A      2.774327   190A      2.777174   191A      2.792779
     192A      2.817535   193A      2.840439   194A      2.849066
     195A      2.863182   196A      2.873156   197A      2.908048
     198A      2.958388   199A      2.969804   200A      2.987180
     201A      3.020589   202A      3.100198   203A      3.136903
     204A      3.261314   205A      3.320513   206A      3.352754
     207A      3.604697   208A      3.678058   209A      3.991495
     210A      4.156725

    Final Occupation by Irrep:
              A
    DOCC [    38 ]

  @RHF Final Energy:  -423.85192740125660

   => Energetics <=

    Nuclear Repulsion Energy =            482.0273224470753348
    One-Electron Energy =               -1529.9407583050433459
    Two-Electron Energy =                 624.0615084567115218
    Total Energy =                       -423.8519274012566029

Computation Completed

Properties will be evaluated at   0.000000,   0.000000,   0.000000 [a0]

Properties computed using the SCF density matrix

  Nuclear Dipole Moment: [e a0]
     X:    -7.2415      Y:    -4.3476      Z:     7.1570

  Electronic Dipole Moment: [e a0]
     X:     7.2699      Y:     4.6922      Z:    -7.6975

  Dipole Moment: [e a0]
     X:     0.0284      Y:     0.3446      Z:    -0.5404     Total:     0.6416

  Dipole Moment: [D]
     X:     0.0722      Y:     0.8760      Z:    -1.3736     Total:     1.6308

*** tstop() called on ds3 at Tue Apr 28 09:34:39 2020
Module time:
	user time   =      75.59 seconds =       1.26 minutes
	system time =      38.84 seconds =       0.65 minutes
	total time  =        147 seconds =       2.45 minutes
Total time:
	user time   =      75.59 seconds =       1.26 minutes
	system time =      38.84 seconds =       0.65 minutes
	total time  =        147 seconds =       2.45 minutes
                                     G D M A

                                 by Anthony Stone

                           version 2.2.06, 22 June 2011

               Distributed Multipoles from Gaussian wavefunctions

Starting at 9:34:39 on 28 Apr 2020

Using SCF density matrix from file ./SSI/SSI-009TYR-158ALA-1-dimer.test.10733.fchk

                         Distributed Multipole Analysis

Standard DMA

Positions and radii in angstrom
Multipole moments in atomic units, ea_0^k for rank k

C          x =  3.401997  y =  2.154466  z = -1.282870 angstrom
           Maximum rank =  0   Radius =  0.650 angstrom
                   Q00  =  -0.202266

C          x = -0.173003  y = -0.079534  z = -0.424870 angstrom
           Maximum rank =  0   Radius =  0.650 angstrom
                   Q00  =   0.294047

C          x = -0.225003  y =  1.010466  z = -1.279870 angstrom
           Maximum rank =  0   Radius =  0.650 angstrom
                   Q00  =  -0.175291

C          x =  1.031997  y = -0.454534  z =  0.155130 angstrom
           Maximum rank =  0   Radius =  0.650 angstrom
                   Q00  =  -0.096239

C          x =  0.929997  y =  1.727466  z = -1.539870 angstrom
           Maximum rank =  0   Radius =  0.650 angstrom
                   Q00  =   0.055365

C          x =  2.185997  y =  0.269466  z = -0.117870 angstrom
           Maximum rank =  0   Radius =  0.650 angstrom
                   Q00  =  -0.056344

C          x =  2.147997  y =  1.371466  z = -0.971870 angstrom
           Maximum rank =  0   Radius =  0.650 angstrom
                   Q00  =  -0.135087

O          x = -1.300003  y = -0.788534  z = -0.163870 angstrom
           Maximum rank =  0   Radius =  0.650 angstrom
                   Q00  =  -0.660301

H          x = -1.991003  y = -0.637534  z = -0.844870 angstrom
           Maximum rank =  0   Radius =  0.325 angstrom
                   Q00  =   0.409973

H          x = -1.171003  y =  1.335466  z = -1.674870 angstrom
           Maximum rank =  0   Radius =  0.325 angstrom
                   Q00  =   0.071191

H          x =  1.049997  y = -1.314534  z =  0.789130 angstrom
           Maximum rank =  0   Radius =  0.325 angstrom
                   Q00  =   0.082003

H          x =  0.845997  y =  2.621466  z = -2.061870 angstrom
           Maximum rank =  0   Radius =  0.325 angstrom
                   Q00  =   0.068196

H          x =  3.117997  y = -0.028534  z =  0.341130 angstrom
           Maximum rank =  0   Radius =  0.325 angstrom
                   Q00  =   0.062224

H          x =  4.025997  y =  2.225466  z = -0.390870 angstrom
           Maximum rank =  0   Radius =  0.325 angstrom
                   Q00  =   0.097078

H          x =  3.108997  y =  3.168466  z = -1.559870 angstrom
           Maximum rank =  0   Radius =  0.325 angstrom
                   Q00  =   0.093505

H          x =  3.984308  y =  1.718816  z = -2.108170 angstrom
           Maximum rank =  0   Radius =  0.325 angstrom
                   Q00  =   0.101178

C          x = -2.905003  y = -1.821534  z =  2.278130 angstrom
           Maximum rank =  0   Radius =  0.650 angstrom
                   Q00  =  -0.206289

C          x = -4.014003  y = -2.737534  z =  2.761130 angstrom
           Maximum rank =  0   Radius =  0.650 angstrom
                   Q00  =  -0.247893

H          x = -3.325003  y = -0.921534  z =  1.833130 angstrom
           Maximum rank =  0   Radius =  0.325 angstrom
                   Q00  =   0.066814

H          x = -2.245003  y = -1.557534  z =  3.102130 angstrom
           Maximum rank =  0   Radius =  0.325 angstrom
                   Q00  =   0.074771

H          x = -2.326003  y = -2.341534  z =  1.531130 angstrom
           Maximum rank =  0   Radius =  0.325 angstrom
                   Q00  =   0.082790

H          x = -3.558003  y = -3.606534  z =  3.224130 angstrom
           Maximum rank =  0   Radius =  0.325 angstrom
                   Q00  =   0.074612

H          x = -4.633443  y = -3.060094  z =  1.911280 angstrom
           Maximum rank =  0   Radius =  0.325 angstrom
                   Q00  =   0.073305

H          x = -4.601683  y = -2.235364  z =  3.543730 angstrom
           Maximum rank =  0   Radius =  0.325 angstrom
                   Q00  =   0.072657

Total multipoles referred to origin at
           x =   0.000000,  y =    0.000000,  z =    0.000000 angstrom
                   Q00  =  -0.000000

Finished at 9:34:39 on 28 Apr 2020

  DMA results are available in the Python driver through the
	  variable('DMA DISTRIBUTED MULTIPOLES')
  and
	  variable('DMA TOTAL MULTIPOLES')
  commands.

    Psi4 stopped on: Tuesday, 28 April 2020 09:34AM
    Psi4 wall time for execution: 0:02:26.71

*** Psi4 exiting successfully. Buy a developer a beer!
