                               Psi4 1.3.2 release

  ==> Input File <==

--------------------------------------------------------------------------
import numpy as np
set {scf_type pk
basis cc-pvdz
d_convergence 10
gdma_switch   0
gdma_limit    0
gdma_origin   [ 0.0,  0.0,  0.0 ]
}
molecule test {
    units Angstrom
    -1 1
    --
    -1 1
    C                3.363634364455022    -2.577849892626109     0.792484276233598
    C                0.283634364455022    -0.674849892626109    -0.432515723766402
    C                1.193634364455022    -1.717849892626109    -0.181515723766402
    C                0.596634364455022     0.626150107373891    -0.028515723766402
    C                2.408634364455021    -1.458849892626109     0.468484276233598
    C                1.808634364455022     0.889150107373891     0.605484276233598
    C                2.703634364455021    -0.152849892626109     0.865484276233598
    H               -0.656365635544978    -0.883849892626109    -0.925515723766402
    H                0.947634364455022    -2.724849892626108    -0.484515723766402
    H               -0.091365635544978     1.437150107373891    -0.206515723766402
    H                2.047634364455022     1.899150107373891     0.912484276233598
    H                2.799634364455022    -3.368849892626109     1.291484276233598
    H                4.117634364455022    -2.222849892626109     1.495484276233598
    H                3.627634364455022     0.062150107373891     1.378484276233598
    H                3.874421364455022    -3.016699892626108    -0.077295723766402
    C               -2.938365635544979     1.440150107373891     0.926484276233598
    C               -2.797365635544979     1.179150107373891    -0.568515723766402
    O               -2.277365635544978     2.046150107373891    -1.308515723766402
    O               -3.180365635544979     0.065150107373891    -0.987515723766402
    H               -2.053365635544978     1.035150107373891     1.420484276233598
    H               -3.810365635544978     0.912150107373891     1.321484276233598
    H               -3.040439615544979     2.507220107373891     1.173344276233598

}
e, wfn = energy('scf', return_wfn=True)
gdma(wfn)
dmavals = variable('DMA DISTRIBUTED MULTIPOLES')
charges = np.array(dmavals)
print(charges)
np.save('SSI-045PHE-057GLU-1-dimer.npy', np.array(charges))--------------------------------------------------------------------------

*** tstart() called on ds3
*** at Tue Apr 28 01:46:59 2020

   => Loading Basis Set <=

    Name: CC-PVDZ
    Role: ORBITAL
    Keyword: BASIS
    atoms 1-7, 16-17  entry C          line   138 file /theoryfs2/ds/metcalf/miniconda2/envs/tf2gpu/share/psi4/basis/cc-pvdz.gbs
    atoms 8-15, 20-22 entry H          line    22 file /theoryfs2/ds/metcalf/miniconda2/envs/tf2gpu/share/psi4/basis/cc-pvdz.gbs
    atoms 18-19       entry O          line   198 file /theoryfs2/ds/metcalf/miniconda2/envs/tf2gpu/share/psi4/basis/cc-pvdz.gbs

         ---------------------------------------------------------
                                   SCF
               by Justin Turney, Rob Parrish, Andy Simmonett
                          and Daniel G. A. Smith
                              RHF Reference
                        1 Threads,    500 MiB Core
         ---------------------------------------------------------

  ==> Geometry <==

    Molecular point group: c1
    Full point group: C1

    Geometry (in Angstrom), charge = -1, multiplicity = 1:

       Center              X                  Y                   Z               Mass
    ------------   -----------------  -----------------  -----------------  -----------------
         C            3.363634364455    -2.577849892626     0.792484276234    12.000000000000
         C            0.283634364455    -0.674849892626    -0.432515723766    12.000000000000
         C            1.193634364455    -1.717849892626    -0.181515723766    12.000000000000
         C            0.596634364455     0.626150107374    -0.028515723766    12.000000000000
         C            2.408634364455    -1.458849892626     0.468484276234    12.000000000000
         C            1.808634364455     0.889150107374     0.605484276234    12.000000000000
         C            2.703634364455    -0.152849892626     0.865484276234    12.000000000000
         H           -0.656365635545    -0.883849892626    -0.925515723766     1.007825032230
         H            0.947634364455    -2.724849892626    -0.484515723766     1.007825032230
         H           -0.091365635545     1.437150107374    -0.206515723766     1.007825032230
         H            2.047634364455     1.899150107374     0.912484276234     1.007825032230
         H            2.799634364455    -3.368849892626     1.291484276234     1.007825032230
         H            4.117634364455    -2.222849892626     1.495484276234     1.007825032230
         H            3.627634364455     0.062150107374     1.378484276234     1.007825032230
         H            3.874421364455    -3.016699892626    -0.077295723766     1.007825032230
         C           -2.938365635545     1.440150107374     0.926484276234    12.000000000000
         C           -2.797365635545     1.179150107374    -0.568515723766    12.000000000000
         O           -2.277365635545     2.046150107374    -1.308515723766    15.994914619570
         O           -3.180365635545     0.065150107374    -0.987515723766    15.994914619570
         H           -2.053365635545     1.035150107374     1.420484276234     1.007825032230
         H           -3.810365635545     0.912150107374     1.321484276234     1.007825032230
         H           -3.040439615545     2.507220107374     1.173344276234     1.007825032230

  Running in c1 symmetry.

  Rotational constants: A =      0.08289  B =      0.01465  C =      0.01358 [cm^-1]
  Rotational constants: A =   2484.91776  B =    439.23395  C =    407.18910 [MHz]
  Nuclear repulsion =  545.405917603859393

  Charge       = -1
  Multiplicity = 1
  Electrons    = 82
  Nalpha       = 41
  Nbeta        = 41

  ==> Algorithm <==

  SCF Algorithm Type is PK.
  DIIS enabled.
  MOM disabled.
  Fractional occupation disabled.
  Guess Type is SAD.
  Energy threshold   = 1.00e-06
  Density threshold  = 1.00e-10
  Integral threshold = 0.00e+00

  ==> Primary Basis <==

  Basis Set: CC-PVDZ
    Blend: CC-PVDZ
    Number of shells: 99
    Number of basis function: 209
    Number of Cartesian functions: 220
    Spherical Harmonics?: true
    Max angular momentum: 2

  ==> Pre-Iterations <==

   -------------------------------------------------------
    Irrep   Nso     Nmo     Nalpha   Nbeta   Ndocc  Nsocc
   -------------------------------------------------------
     A        209     209       0       0       0       0
   -------------------------------------------------------
    Total     209     209      41      41      41       0
   -------------------------------------------------------

  ==> Integral Setup <==

  Using integral reordering PK algorithm.
  Sizing the integral batches needed.
  Building batch lookup table.
   Calculation information:
      Number of atoms:                  22
      Number of AO shells:              99
      Number of primitives:            297
      Number of atomic orbitals:       220
      Number of basis functions:       209

      Integral cutoff                 1.00e-12
      Number of threads:                 1

	Batch   1 pq = [       0,    9405] index = [             0,44231715] size =     44231715
	Batch   2 pq = [    9405,   13301] index = [      44231715,88464951] size =     44233236
	Batch   3 pq = [   13301,   16290] index = [      88464951,132690195] size =     44225244
	Batch   4 pq = [   16290,   18810] index = [     132690195,176917455] size =     44227260
	Batch   5 pq = [   18810,   21030] index = [     176917455,221140965] size =     44223510
	Batch   6 pq = [   21030,   21945] index = [     221140965,240802485] size =     19661520
  Task number: 22
  Buffer size: 11059200
  Buffer per thread: 2
  We computed 10372707 shell quartets total.
  Whereas there are 12253725 unique shell quartets.

  ==> DiskJK: Disk-Based J/K Matrices <==

    J tasked:                  Yes
    K tasked:                  Yes
    wK tasked:                  No
    Memory [MiB]:              375
    Schwarz Cutoff:          1E-12

    OpenMP threads:              1

  Minimum eigenvalue in the overlap matrix is 3.1710008957E-04.
  Using Symmetric Orthogonalization.

  SCF Guess: Superposition of Atomic Densities via on-the-fly atomic UHF.

  ==> Iterations <==

                        Total Energy        Delta E     RMS |[F,P]|

   @RHF iter SAD:  -495.31382337802467   -4.95314e+02   0.00000e+00
   @RHF iter   1:  -496.68104319598274   -1.36722e+00   3.71661e-03 DIIS
   @RHF iter   2:  -496.94011908170194   -2.59076e-01   2.01089e-03 DIIS
   @RHF iter   3:  -497.00660738434874   -6.64883e-02   3.43350e-04 DIIS
   @RHF iter   4:  -497.01009207423033   -3.48469e-03   1.23161e-04 DIIS
   @RHF iter   5:  -497.01053225923260   -4.40185e-04   1.89210e-05 DIIS
   @RHF iter   6:  -497.01054672986641   -1.44706e-05   5.66282e-06 DIIS
   @RHF iter   7:  -497.01054819300532   -1.46314e-06   2.34855e-06 DIIS
   @RHF iter   8:  -497.01054845847312   -2.65468e-07   8.35837e-07 DIIS
   @RHF iter   9:  -497.01054852723036   -6.87572e-08   4.79973e-07 DIIS
   @RHF iter  10:  -497.01054855083623   -2.36059e-08   1.80751e-07 DIIS
   @RHF iter  11:  -497.01054855602308   -5.18685e-09   5.32421e-08 DIIS
   @RHF iter  12:  -497.01054855635653   -3.33443e-10   2.37840e-08 DIIS
   @RHF iter  13:  -497.01054855639700   -4.04725e-11   8.17241e-09 DIIS
   @RHF iter  14:  -497.01054855640007   -3.06954e-12   3.00541e-09 DIIS
   @RHF iter  15:  -497.01054855639848    1.59162e-12   1.61216e-09 DIIS
   @RHF iter  16:  -497.01054855639745    1.02318e-12   6.60467e-10 DIIS
   @RHF iter  17:  -497.01054855640035   -2.89901e-12   2.78697e-10 DIIS
   @RHF iter  18:  -497.01054855640029    5.68434e-14   1.05680e-10 DIIS
   @RHF iter  19:  -497.01054855640098   -6.82121e-13   4.40009e-11 DIIS
  Energy and wave function converged.

  ==> Post-Iterations <==

    Orbital Energies [Eh]
    ---------------------

    Doubly Occupied:

       1A    -20.269323     2A    -20.267426     3A    -11.144383
       4A    -11.138549     5A    -11.127778     6A    -11.125625
       7A    -11.124189     8A    -11.123920     9A    -11.116072
      10A    -11.108632    11A    -11.054555    12A     -1.157391
      13A     -1.043971    14A     -1.040162    15A     -0.938163
      16A     -0.898126    17A     -0.830426    18A     -0.800274
      19A     -0.713487    20A     -0.684891    21A     -0.577798
      22A     -0.522665    23A     -0.521145    24A     -0.507344
      25A     -0.487295    26A     -0.470912    27A     -0.454710
      28A     -0.442108    29A     -0.414884    30A     -0.412396
      31A     -0.409164    32A     -0.375551    33A     -0.375185
      34A     -0.369595    35A     -0.347927    36A     -0.310258
      37A     -0.221004    38A     -0.210595    39A     -0.190785
      40A     -0.180353    41A     -0.168781

    Virtual:

      42A      0.240856    43A      0.251616    44A      0.272396
      45A      0.301017    46A      0.323695    47A      0.340338
      48A      0.351813    49A      0.358576    50A      0.374816
      51A      0.394908    52A      0.412475    53A      0.433886
      54A      0.444445    55A      0.468221    56A      0.474033
      57A      0.486342    58A      0.568155    59A      0.570156
      60A      0.574077    61A      0.581997    62A      0.599627
      63A      0.658989    64A      0.702774    65A      0.715398
      66A      0.726813    67A      0.749910    68A      0.787891
      69A      0.796323    70A      0.802279    71A      0.824782
      72A      0.829886    73A      0.840851    74A      0.844623
      75A      0.849817    76A      0.857173    77A      0.865510
      78A      0.875058    79A      0.888722    80A      0.912820
      81A      0.924582    82A      0.954177    83A      0.969798
      84A      0.974015    85A      0.981168    86A      0.984165
      87A      1.001105    88A      1.014612    89A      1.017575
      90A      1.027771    91A      1.029817    92A      1.035973
      93A      1.048434    94A      1.060032    95A      1.075008
      96A      1.106470    97A      1.117142    98A      1.134475
      99A      1.140092   100A      1.170850   101A      1.223097
     102A      1.240794   103A      1.246549   104A      1.264402
     105A      1.291730   106A      1.301809   107A      1.323074
     108A      1.346442   109A      1.356473   110A      1.362885
     111A      1.365784   112A      1.370665   113A      1.400183
     114A      1.413805   115A      1.417071   116A      1.429402
     117A      1.441542   118A      1.515184   119A      1.562347
     120A      1.581300   121A      1.589152   122A      1.612720
     123A      1.633778   124A      1.653722   125A      1.664882
     126A      1.671072   127A      1.704042   128A      1.738665
     129A      1.743689   130A      1.774304   131A      1.787243
     132A      1.835643   133A      1.838854   134A      1.844961
     135A      1.856338   136A      1.876205   137A      1.897587
     138A      1.917139   139A      1.968006   140A      1.993349
     141A      2.001400   142A      2.005693   143A      2.020108
     144A      2.030650   145A      2.042674   146A      2.054097
     147A      2.066452   148A      2.068685   149A      2.081464
     150A      2.085570   151A      2.102922   152A      2.120350
     153A      2.133858   154A      2.150711   155A      2.164925
     156A      2.178168   157A      2.206968   158A      2.215522
     159A      2.229894   160A      2.236500   161A      2.270161
     162A      2.287393   163A      2.290483   164A      2.322953
     165A      2.344170   166A      2.374659   167A      2.388608
     168A      2.398808   169A      2.409037   170A      2.434307
     171A      2.449550   172A      2.469805   173A      2.486032
     174A      2.546760   175A      2.568396   176A      2.601622
     177A      2.624673   178A      2.634321   179A      2.685932
     180A      2.716469   181A      2.729174   182A      2.768710
     183A      2.826103   184A      2.853465   185A      2.873851
     186A      2.908756   187A      2.914142   188A      2.924923
     189A      2.939079   190A      2.971098   191A      2.983299
     192A      2.984349   193A      3.078631   194A      3.114682
     195A      3.141700   196A      3.235252   197A      3.259331
     198A      3.274871   199A      3.287877   200A      3.316262
     201A      3.356788   202A      3.404614   203A      3.629856
     204A      3.773406   205A      3.831138   206A      4.062075
     207A      4.063596   208A      4.077819   209A      4.184785

    Final Occupation by Irrep:
              A
    DOCC [    41 ]

  @RHF Final Energy:  -497.01054855640098

   => Energetics <=

    Nuclear Repulsion Energy =            545.4059176038593932
    One-Electron Energy =               -1771.4773341284414983
    Two-Electron Energy =                 729.0608679681812418
    Total Energy =                       -497.0105485564009768

Computation Completed

Properties will be evaluated at   0.000000,   0.000000,   0.000000 [a0]

Properties computed using the SCF density matrix

  Nuclear Dipole Moment: [e a0]
     X:     7.2511      Y:    -4.0811      Z:     6.8319

  Electronic Dipole Moment: [e a0]
     X:    -3.0215      Y:     2.4018      Z:    -4.7231

  Dipole Moment: [e a0]
     X:     4.2295      Y:    -1.6793      Z:     2.1088     Total:     5.0156

  Dipole Moment: [D]
     X:    10.7504      Y:    -4.2683      Z:     5.3601     Total:    12.7483

*** tstop() called on ds3 at Tue Apr 28 01:48:55 2020
Module time:
	user time   =      82.20 seconds =       1.37 minutes
	system time =      37.45 seconds =       0.62 minutes
	total time  =        116 seconds =       1.93 minutes
Total time:
	user time   =      82.20 seconds =       1.37 minutes
	system time =      37.45 seconds =       0.62 minutes
	total time  =        116 seconds =       1.93 minutes
                                     G D M A

                                 by Anthony Stone

                           version 2.2.06, 22 June 2011

               Distributed Multipoles from Gaussian wavefunctions

Starting at 1:48:55 on 28 Apr 2020

Using SCF density matrix from file ./SSI/SSI-045PHE-057GLU-1-dimer.test.9226.fchk

                         Distributed Multipole Analysis

Standard DMA

Positions and radii in angstrom
Multipole moments in atomic units, ea_0^k for rank k

C          x =  3.363634  y = -2.577850  z =  0.792484 angstrom
           Maximum rank =  0   Radius =  0.650 angstrom
                   Q00  =  -0.204229

C          x =  0.283634  y = -0.674850  z = -0.432516 angstrom
           Maximum rank =  0   Radius =  0.650 angstrom
                   Q00  =  -0.050173

C          x =  1.193634  y = -1.717850  z = -0.181516 angstrom
           Maximum rank =  0   Radius =  0.650 angstrom
                   Q00  =  -0.107998

C          x =  0.596634  y =  0.626150  z = -0.028516 angstrom
           Maximum rank =  0   Radius =  0.650 angstrom
                   Q00  =   0.033648

C          x =  2.408634  y = -1.458850  z =  0.468484 angstrom
           Maximum rank =  0   Radius =  0.650 angstrom
                   Q00  =  -0.102289

C          x =  1.808634  y =  0.889150  z =  0.605484 angstrom
           Maximum rank =  0   Radius =  0.650 angstrom
                   Q00  =  -0.073995

C          x =  2.703634  y = -0.152850  z =  0.865484 angstrom
           Maximum rank =  0   Radius =  0.650 angstrom
                   Q00  =  -0.005686

H          x = -0.656366  y = -0.883850  z = -0.925516 angstrom
           Maximum rank =  0   Radius =  0.325 angstrom
                   Q00  =   0.080163

H          x =  0.947634  y = -2.724850  z = -0.484516 angstrom
           Maximum rank =  0   Radius =  0.325 angstrom
                   Q00  =   0.036790

H          x = -0.091366  y =  1.437150  z = -0.206516 angstrom
           Maximum rank =  0   Radius =  0.325 angstrom
                   Q00  =   0.044144

H          x =  2.047634  y =  1.899150  z =  0.912484 angstrom
           Maximum rank =  0   Radius =  0.325 angstrom
                   Q00  =   0.044587

H          x =  2.799634  y = -3.368850  z =  1.291484 angstrom
           Maximum rank =  0   Radius =  0.325 angstrom
                   Q00  =   0.088471

H          x =  4.117634  y = -2.222850  z =  1.495484 angstrom
           Maximum rank =  0   Radius =  0.325 angstrom
                   Q00  =   0.083342

H          x =  3.627634  y =  0.062150  z =  1.378484 angstrom
           Maximum rank =  0   Radius =  0.325 angstrom
                   Q00  =   0.030904

H          x =  3.874421  y = -3.016700  z = -0.077296 angstrom
           Maximum rank =  0   Radius =  0.325 angstrom
                   Q00  =   0.087481

C          x = -2.938366  y =  1.440150  z =  0.926484 angstrom
           Maximum rank =  0   Radius =  0.650 angstrom
                   Q00  =  -0.289471

C          x = -2.797366  y =  1.179150  z = -0.568516 angstrom
           Maximum rank =  0   Radius =  0.650 angstrom
                   Q00  =   0.964221

O          x = -2.277366  y =  2.046150  z = -1.308516 angstrom
           Maximum rank =  0   Radius =  0.650 angstrom
                   Q00  =  -0.920827

O          x = -3.180366  y =  0.065150  z = -0.987516 angstrom
           Maximum rank =  0   Radius =  0.650 angstrom
                   Q00  =  -0.932423

H          x = -2.053366  y =  1.035150  z =  1.420484 angstrom
           Maximum rank =  0   Radius =  0.325 angstrom
                   Q00  =   0.083058

H          x = -3.810366  y =  0.912150  z =  1.321484 angstrom
           Maximum rank =  0   Radius =  0.325 angstrom
                   Q00  =   0.060782

H          x = -3.040440  y =  2.507220  z =  1.173344 angstrom
           Maximum rank =  0   Radius =  0.325 angstrom
                   Q00  =   0.049502

Total multipoles referred to origin at
           x =   0.000000,  y =    0.000000,  z =    0.000000 angstrom
                   Q00  =  -1.000000

Finished at 1:48:55 on 28 Apr 2020

  DMA results are available in the Python driver through the
	  variable('DMA DISTRIBUTED MULTIPOLES')
  and
	  variable('DMA TOTAL MULTIPOLES')
  commands.

    Psi4 stopped on: Tuesday, 28 April 2020 01:48AM
    Psi4 wall time for execution: 0:01:56.00

*** Psi4 exiting successfully. Buy a developer a beer!
