                               Psi4 1.3.2 release

  ==> Input File <==

--------------------------------------------------------------------------
import numpy as np
set {scf_type pk
basis cc-pvdz
d_convergence 10
gdma_switch   0
gdma_limit    0
gdma_origin   [ 0.0,  0.0,  0.0 ]
}
molecule test {
    units Angstrom
    0 1
    --
    0 1
    C               -1.696219325670333     0.224223703352870    -1.196266922242998
    C               -2.566219325670332    -0.923776296647130    -0.742266922242998
    H               -2.206219325670332     0.815223703352870    -1.957266922242998
    H               -1.506219325670332     0.883223703352870    -0.346266922242998
    H               -0.735219325670332    -0.133776296647130    -1.570266922242998
    H               -3.519219325670332    -0.493776296647130    -0.449266922242998
    H               -2.745429325670333    -1.616947996647130    -1.577370922242998
    H               -2.153949325670332    -1.401357996647130     0.158817077757002
    C                1.438780674329668     0.384223703352870     0.649733077757002
    C                2.829780674329668     0.301223703352870     1.282733077757002
    H                1.050780674329668    -0.616776296647130     0.458733077757002
    H                0.762780674329668     0.894223703352870     1.337733077757002
    H                1.458780674329667     0.962223703352870    -0.275266922242998
    H                3.244780674329668     1.308223703352870     1.321733077757002
    H                3.476230674329668    -0.337178296647130     0.662612077757002
    H                2.800000674329667    -0.095357296647130     2.308324077757002

}
e, wfn = energy('scf', return_wfn=True)
gdma(wfn)
dmavals = variable('DMA DISTRIBUTED MULTIPOLES')
charges = np.array(dmavals)
print(charges)
np.save('SSI-007VAL-038VAL-1-dimer.npy', np.array(charges))--------------------------------------------------------------------------

*** tstart() called on ds3
*** at Tue Apr 28 21:58:25 2020

   => Loading Basis Set <=

    Name: CC-PVDZ
    Role: ORBITAL
    Keyword: BASIS
    atoms 1-2, 9-10  entry C          line   138 file /theoryfs2/ds/metcalf/miniconda2/envs/tf2gpu/share/psi4/basis/cc-pvdz.gbs
    atoms 3-8, 11-16 entry H          line    22 file /theoryfs2/ds/metcalf/miniconda2/envs/tf2gpu/share/psi4/basis/cc-pvdz.gbs

         ---------------------------------------------------------
                                   SCF
               by Justin Turney, Rob Parrish, Andy Simmonett
                          and Daniel G. A. Smith
                              RHF Reference
                        1 Threads,    500 MiB Core
         ---------------------------------------------------------

  ==> Geometry <==

    Molecular point group: c1
    Full point group: C1

    Geometry (in Angstrom), charge = 0, multiplicity = 1:

       Center              X                  Y                   Z               Mass
    ------------   -----------------  -----------------  -----------------  -----------------
         C           -1.696219325670     0.224223703353    -1.196266922243    12.000000000000
         C           -2.566219325670    -0.923776296647    -0.742266922243    12.000000000000
         H           -2.206219325670     0.815223703353    -1.957266922243     1.007825032230
         H           -1.506219325670     0.883223703353    -0.346266922243     1.007825032230
         H           -0.735219325670    -0.133776296647    -1.570266922243     1.007825032230
         H           -3.519219325670    -0.493776296647    -0.449266922243     1.007825032230
         H           -2.745429325670    -1.616947996647    -1.577370922243     1.007825032230
         H           -2.153949325670    -1.401357996647     0.158817077757     1.007825032230
         C            1.438780674330     0.384223703353     0.649733077757    12.000000000000
         C            2.829780674330     0.301223703353     1.282733077757    12.000000000000
         H            1.050780674330    -0.616776296647     0.458733077757     1.007825032230
         H            0.762780674330     0.894223703353     1.337733077757     1.007825032230
         H            1.458780674330     0.962223703353    -0.275266922243     1.007825032230
         H            3.244780674330     1.308223703353     1.321733077757     1.007825032230
         H            3.476230674330    -0.337178296647     0.662612077757     1.007825032230
         H            2.800000674330    -0.095357296647     2.308324077757     1.007825032230

  Running in c1 symmetry.

  Rotational constants: A =      0.62707  B =      0.04523  C =      0.04363 [cm^-1]
  Rotational constants: A =  18799.05580  B =   1355.97779  C =   1307.99412 [MHz]
  Nuclear repulsion =  121.763370123171114

  Charge       = 0
  Multiplicity = 1
  Electrons    = 36
  Nalpha       = 18
  Nbeta        = 18

  ==> Algorithm <==

  SCF Algorithm Type is PK.
  DIIS enabled.
  MOM disabled.
  Fractional occupation disabled.
  Guess Type is SAD.
  Energy threshold   = 1.00e-06
  Density threshold  = 1.00e-10
  Integral threshold = 0.00e+00

  ==> Primary Basis <==

  Basis Set: CC-PVDZ
    Blend: CC-PVDZ
    Number of shells: 60
    Number of basis function: 116
    Number of Cartesian functions: 120
    Spherical Harmonics?: true
    Max angular momentum: 2

  ==> Pre-Iterations <==

   -------------------------------------------------------
    Irrep   Nso     Nmo     Nalpha   Nbeta   Ndocc  Nsocc
   -------------------------------------------------------
     A        116     116       0       0       0       0
   -------------------------------------------------------
    Total     116     116      18      18      18       0
   -------------------------------------------------------

  ==> Integral Setup <==

  Using integral reordering PK algorithm.
  Sizing the integral batches needed.
  Building batch lookup table.
   Calculation information:
      Number of atoms:                  16
      Number of AO shells:              60
      Number of primitives:            148
      Number of atomic orbitals:       120
      Number of basis functions:       116

      Integral cutoff                 1.00e-12
      Number of threads:                 1

	Batch   1 pq = [       0,    6786] index = [             0,23028291] size =     23028291
  Task number: 3
  Buffer size: 11059200
  Buffer per thread: 2
  We computed 1399791 shell quartets total.
  Whereas there are 1675365 unique shell quartets.

  ==> DiskJK: Disk-Based J/K Matrices <==

    J tasked:                  Yes
    K tasked:                  Yes
    wK tasked:                  No
    Memory [MiB]:              375
    Schwarz Cutoff:          1E-12

    OpenMP threads:              1

  Minimum eigenvalue in the overlap matrix is 6.7194012455E-03.
  Using Symmetric Orthogonalization.

  SCF Guess: Superposition of Atomic Densities via on-the-fly atomic UHF.

  ==> Iterations <==

                        Total Energy        Delta E     RMS |[F,P]|

   @RHF iter SAD:  -157.37250719509760   -1.57373e+02   0.00000e+00
   @RHF iter   1:  -158.30425309414304   -9.31746e-01   4.24328e-03 DIIS
   @RHF iter   2:  -158.43913776528868   -1.34885e-01   1.81823e-03 DIIS
   @RHF iter   3:  -158.46307448739819   -2.39367e-02   3.51401e-04 DIIS
   @RHF iter   4:  -158.46492606677506   -1.85158e-03   3.89086e-05 DIIS
   @RHF iter   5:  -158.46494980831960   -2.37415e-05   6.54561e-06 DIIS
   @RHF iter   6:  -158.46495044195979   -6.33640e-07   1.06562e-06 DIIS
   @RHF iter   7:  -158.46495045336488   -1.14051e-08   3.23849e-07 DIIS
   @RHF iter   8:  -158.46495045430743   -9.42549e-10   4.41469e-08 DIIS
   @RHF iter   9:  -158.46495045433880   -3.13776e-11   1.00337e-08 DIIS
   @RHF iter  10:  -158.46495045434025   -1.44951e-12   2.84827e-09 DIIS
   @RHF iter  11:  -158.46495045434017    8.52651e-14   8.10547e-10 DIIS
   @RHF iter  12:  -158.46495045434062   -4.54747e-13   1.69780e-10 DIIS
   @RHF iter  13:  -158.46495045434122   -5.96856e-13   2.53672e-11 DIIS
  Energy and wave function converged.

  ==> Post-Iterations <==

    Orbital Energies [Eh]
    ---------------------

    Doubly Occupied:

       1A    -11.219320     2A    -11.217220     3A    -11.216792
       4A    -11.213833     5A     -1.022439     6A     -1.017145
       7A     -0.838727     8A     -0.831817     9A     -0.601541
      10A     -0.600558    11A     -0.597004    12A     -0.594376
      13A     -0.506294    14A     -0.499870    15A     -0.487175
      16A     -0.484883    17A     -0.481791    18A     -0.477953

    Virtual:

      19A      0.173173    20A      0.194719    21A      0.225091
      22A      0.235507    23A      0.237712    24A      0.257544
      25A      0.263141    26A      0.276169    27A      0.284121
      28A      0.298255    29A      0.302017    30A      0.327691
      31A      0.395212    32A      0.403588    33A      0.566423
      34A      0.591798    35A      0.598938    36A      0.603839
      37A      0.608180    38A      0.633565    39A      0.675549
      40A      0.692868    41A      0.701098    42A      0.765025
      43A      0.852097    44A      0.871470    45A      0.889391
      46A      0.890304    47A      0.894121    48A      0.897200
      49A      0.900186    50A      0.909836    51A      0.915139
      52A      0.923333    53A      0.931080    54A      0.948210
      55A      0.970022    56A      0.998611    57A      1.121061
      58A      1.125048    59A      1.133180    60A      1.150368
      61A      1.226174    62A      1.253544    63A      1.466805
      64A      1.479773    65A      1.483240    66A      1.496882
      67A      1.574362    68A      1.585886    69A      1.675645
      70A      1.682171    71A      1.693813    72A      1.695195
      73A      1.855224    74A      1.863235    75A      1.870521
      76A      1.879511    77A      1.901151    78A      1.915796
      79A      1.933211    80A      1.940399    81A      1.947652
      82A      1.950834    83A      1.955526    84A      1.957062
      85A      1.968017    86A      1.971076    87A      1.987551
      88A      2.069948    89A      2.093407    90A      2.102511
      91A      2.127958    92A      2.134985    93A      2.295311
      94A      2.302615    95A      2.316492    96A      2.349976
      97A      2.438674    98A      2.448256    99A      2.458620
     100A      2.487157   101A      2.552590   102A      2.564044
     103A      2.582317   104A      2.588863   105A      2.759215
     106A      2.763230   107A      2.781778   108A      2.794083
     109A      2.842574   110A      2.849936   111A      2.858257
     112A      2.867852   113A      2.943043   114A      2.949899
     115A      2.955479   116A      2.976361

    Final Occupation by Irrep:
              A
    DOCC [    18 ]

  @RHF Final Energy:  -158.46495045434122

   => Energetics <=

    Nuclear Repulsion Energy =            121.7633701231711143
    One-Electron Energy =                -452.6391692693098321
    Two-Electron Energy =                 172.4108486917974972
    Total Energy =                       -158.4649504543412206

Computation Completed

Properties will be evaluated at   0.000000,   0.000000,   0.000000 [a0]

Properties computed using the SCF density matrix

  Nuclear Dipole Moment: [e a0]
     X:    -0.0683      Y:     0.1574      Z:     0.0677

  Electronic Dipole Moment: [e a0]
     X:     0.0586      Y:    -0.1256      Z:    -0.0589

  Dipole Moment: [e a0]
     X:    -0.0098      Y:     0.0319      Z:     0.0088     Total:     0.0345

  Dipole Moment: [D]
     X:    -0.0248      Y:     0.0810      Z:     0.0224     Total:     0.0876

*** tstop() called on ds3 at Tue Apr 28 21:58:35 2020
Module time:
	user time   =       7.14 seconds =       0.12 minutes
	system time =       2.81 seconds =       0.05 minutes
	total time  =         10 seconds =       0.17 minutes
Total time:
	user time   =       7.14 seconds =       0.12 minutes
	system time =       2.81 seconds =       0.05 minutes
	total time  =         10 seconds =       0.17 minutes
                                     G D M A

                                 by Anthony Stone

                           version 2.2.06, 22 June 2011

               Distributed Multipoles from Gaussian wavefunctions

Starting at 21:58:35 on 28 Apr 2020

Using SCF density matrix from file ./SSI/SSI-007VAL-038VAL-1-dimer.test.7141.fchk

                         Distributed Multipole Analysis

Standard DMA

Positions and radii in angstrom
Multipole moments in atomic units, ea_0^k for rank k

C          x = -1.696219  y =  0.224224  z = -1.196267 angstrom
           Maximum rank =  0   Radius =  0.650 angstrom
                   Q00  =  -0.222159

C          x = -2.566219  y = -0.923776  z = -0.742267 angstrom
           Maximum rank =  0   Radius =  0.650 angstrom
                   Q00  =  -0.238676

H          x = -2.206219  y =  0.815224  z = -1.957267 angstrom
           Maximum rank =  0   Radius =  0.325 angstrom
                   Q00  =   0.076663

H          x = -1.506219  y =  0.883224  z = -0.346267 angstrom
           Maximum rank =  0   Radius =  0.325 angstrom
                   Q00  =   0.075871

H          x = -0.735219  y = -0.133776  z = -1.570267 angstrom
           Maximum rank =  0   Radius =  0.325 angstrom
                   Q00  =   0.077964

H          x = -3.519219  y = -0.493776  z = -0.449267 angstrom
           Maximum rank =  0   Radius =  0.325 angstrom
                   Q00  =   0.073186

H          x = -2.745429  y = -1.616948  z = -1.577371 angstrom
           Maximum rank =  0   Radius =  0.325 angstrom
                   Q00  =   0.078264

H          x = -2.153949  y = -1.401358  z =  0.158817 angstrom
           Maximum rank =  0   Radius =  0.325 angstrom
                   Q00  =   0.078941

C          x =  1.438781  y =  0.384224  z =  0.649733 angstrom
           Maximum rank =  0   Radius =  0.650 angstrom
                   Q00  =  -0.229662

C          x =  2.829781  y =  0.301224  z =  1.282733 angstrom
           Maximum rank =  0   Radius =  0.650 angstrom
                   Q00  =  -0.245271

H          x =  1.050781  y = -0.616776  z =  0.458733 angstrom
           Maximum rank =  0   Radius =  0.325 angstrom
                   Q00  =   0.078483

H          x =  0.762781  y =  0.894224  z =  1.337733 angstrom
           Maximum rank =  0   Radius =  0.325 angstrom
                   Q00  =   0.076574

H          x =  1.458781  y =  0.962224  z = -0.275267 angstrom
           Maximum rank =  0   Radius =  0.325 angstrom
                   Q00  =   0.081567

H          x =  3.244781  y =  1.308224  z =  1.321733 angstrom
           Maximum rank =  0   Radius =  0.325 angstrom
                   Q00  =   0.078796

H          x =  3.476231  y = -0.337178  z =  0.662612 angstrom
           Maximum rank =  0   Radius =  0.325 angstrom
                   Q00  =   0.078215

H          x =  2.800001  y = -0.095357  z =  2.308324 angstrom
           Maximum rank =  0   Radius =  0.325 angstrom
                   Q00  =   0.081246

Total multipoles referred to origin at
           x =   0.000000,  y =    0.000000,  z =    0.000000 angstrom
                   Q00  =  -0.000000

Finished at 21:58:35 on 28 Apr 2020

  DMA results are available in the Python driver through the
	  variable('DMA DISTRIBUTED MULTIPOLES')
  and
	  variable('DMA TOTAL MULTIPOLES')
  commands.

    Psi4 stopped on: Tuesday, 28 April 2020 09:58PM
    Psi4 wall time for execution: 0:00:09.93

*** Psi4 exiting successfully. Buy a developer a beer!
