                               Psi4 1.3.2 release

  ==> Input File <==

--------------------------------------------------------------------------
import numpy as np
set {scf_type pk
basis cc-pvdz
d_convergence 10
gdma_switch   0
gdma_limit    0
gdma_origin   [ 0.0,  0.0,  0.0 ]
}
molecule test {
    units Angstrom
    0 1
    --
    0 1
    C               -0.233801322749118     0.816627547359632     3.954560305709816
    C               -0.976801322749118     1.954627547359632     0.430560305709816
    C               -0.883801322749118     1.154627547359632     1.564560305709816
    C               -0.498801322749118     3.256627547359632     0.458560305709816
    C               -0.313801322749118     1.659627547359632     2.728560305709816
    C                0.079198677250882     3.755627547359632     1.617560305709816
    C                0.162198677250882     2.965627547359631     2.749560305709816
    H               -1.378801322749118     1.545627547359632    -0.482439694290184
    H               -1.250801322749118     0.138627547359632     1.535560305709816
    H               -0.562801322749118     3.876627547359632    -0.426439694290184
    H                0.437198677250882     4.764627547359631     1.643560305709816
    H                0.694198677250882     1.033627547359632     4.486560305709816
    H               -0.188801322749118    -0.227372452640368     3.641560305709816
    H                0.605198677250882     3.368627547359632     3.647560305709816
    H               -1.090670322749118     0.966177547359632     4.627920305709816
    C                2.945198677250882    -2.914372452640368    -2.526439694290184
    C               -0.898801322749118    -1.371372452640368    -1.279439694290184
    C               -0.467801322749118    -2.615372452640368    -0.819439694290184
    C               -0.095801322749118    -0.625372452640368    -2.140439694290184
    C                0.772198677250882    -3.112372452640368    -1.228439694290184
    C                1.138198677250882    -1.132372452640368    -2.548439694290184
    C                1.584198677250882    -2.382372452640368    -2.103439694290184
    O               -2.108801322749118    -0.893372452640368    -0.884439694290184
    H               -1.085801322749118    -3.190372452640368    -0.145439694290184
    H               -2.574801322749118    -1.518372452640368    -0.321439694290184
    H               -0.434801322749118     0.340627547359632    -2.483439694290184
    H                1.109198677250882    -4.074372452640368    -0.861439694290184
    H                1.757198677250882    -0.544372452640368    -3.212439694290184
    H                3.482198677250882    -3.202372452640368    -1.624439694290184
    H                3.504198677250882    -2.105372452640368    -2.997439694290184
    H                2.920110097250882    -3.779570452640368    -3.205269694290184

}
e, wfn = energy('scf', return_wfn=True)
gdma(wfn)
dmavals = variable('DMA DISTRIBUTED MULTIPOLES')
charges = np.array(dmavals)
print(charges)
np.save('SSI-062PHE-120TYR-1-dimer.npy', np.array(charges))--------------------------------------------------------------------------

*** tstart() called on ds3
*** at Mon Apr 27 07:37:07 2020

   => Loading Basis Set <=

    Name: CC-PVDZ
    Role: ORBITAL
    Keyword: BASIS
    atoms 1-7, 16-22  entry C          line   138 file /theoryfs2/ds/metcalf/miniconda2/envs/tf2gpu/share/psi4/basis/cc-pvdz.gbs
    atoms 8-15, 24-31 entry H          line    22 file /theoryfs2/ds/metcalf/miniconda2/envs/tf2gpu/share/psi4/basis/cc-pvdz.gbs
    atoms 23          entry O          line   198 file /theoryfs2/ds/metcalf/miniconda2/envs/tf2gpu/share/psi4/basis/cc-pvdz.gbs

         ---------------------------------------------------------
                                   SCF
               by Justin Turney, Rob Parrish, Andy Simmonett
                          and Daniel G. A. Smith
                              RHF Reference
                        1 Threads,    500 MiB Core
         ---------------------------------------------------------

  ==> Geometry <==

    Molecular point group: c1
    Full point group: C1

    Geometry (in Angstrom), charge = 0, multiplicity = 1:

       Center              X                  Y                   Z               Mass
    ------------   -----------------  -----------------  -----------------  -----------------
         C           -0.233801322749     0.816627547360     3.954560305710    12.000000000000
         C           -0.976801322749     1.954627547360     0.430560305710    12.000000000000
         C           -0.883801322749     1.154627547360     1.564560305710    12.000000000000
         C           -0.498801322749     3.256627547360     0.458560305710    12.000000000000
         C           -0.313801322749     1.659627547360     2.728560305710    12.000000000000
         C            0.079198677251     3.755627547360     1.617560305710    12.000000000000
         C            0.162198677251     2.965627547360     2.749560305710    12.000000000000
         H           -1.378801322749     1.545627547360    -0.482439694290     1.007825032230
         H           -1.250801322749     0.138627547360     1.535560305710     1.007825032230
         H           -0.562801322749     3.876627547360    -0.426439694290     1.007825032230
         H            0.437198677251     4.764627547360     1.643560305710     1.007825032230
         H            0.694198677251     1.033627547360     4.486560305710     1.007825032230
         H           -0.188801322749    -0.227372452640     3.641560305710     1.007825032230
         H            0.605198677251     3.368627547360     3.647560305710     1.007825032230
         H           -1.090670322749     0.966177547360     4.627920305710     1.007825032230
         C            2.945198677251    -2.914372452640    -2.526439694290    12.000000000000
         C           -0.898801322749    -1.371372452640    -1.279439694290    12.000000000000
         C           -0.467801322749    -2.615372452640    -0.819439694290    12.000000000000
         C           -0.095801322749    -0.625372452640    -2.140439694290    12.000000000000
         C            0.772198677251    -3.112372452640    -1.228439694290    12.000000000000
         C            1.138198677251    -1.132372452640    -2.548439694290    12.000000000000
         C            1.584198677251    -2.382372452640    -2.103439694290    12.000000000000
         O           -2.108801322749    -0.893372452640    -0.884439694290    15.994914619570
         H           -1.085801322749    -3.190372452640    -0.145439694290     1.007825032230
         H           -2.574801322749    -1.518372452640    -0.321439694290     1.007825032230
         H           -0.434801322749     0.340627547360    -2.483439694290     1.007825032230
         H            1.109198677251    -4.074372452640    -0.861439694290     1.007825032230
         H            1.757198677251    -0.544372452640    -3.212439694290     1.007825032230
         H            3.482198677251    -3.202372452640    -1.624439694290     1.007825032230
         H            3.504198677251    -2.105372452640    -2.997439694290     1.007825032230
         H            2.920110097251    -3.779570452640    -3.205269694290     1.007825032230

  Running in c1 symmetry.

  Rotational constants: A =      0.03165  B =      0.00864  C =      0.00855 [cm^-1]
  Rotational constants: A =    948.70626  B =    259.00182  C =    256.34829 [MHz]
  Nuclear repulsion =  882.236785942319557

  Charge       = 0
  Multiplicity = 1
  Electrons    = 108
  Nalpha       = 54
  Nbeta        = 54

  ==> Algorithm <==

  SCF Algorithm Type is PK.
  DIIS enabled.
  MOM disabled.
  Fractional occupation disabled.
  Guess Type is SAD.
  Energy threshold   = 1.00e-06
  Density threshold  = 1.00e-10
  Integral threshold = 0.00e+00

  ==> Primary Basis <==

  Basis Set: CC-PVDZ
    Blend: CC-PVDZ
    Number of shells: 138
    Number of basis function: 290
    Number of Cartesian functions: 305
    Spherical Harmonics?: true
    Max angular momentum: 2

  ==> Pre-Iterations <==

   -------------------------------------------------------
    Irrep   Nso     Nmo     Nalpha   Nbeta   Ndocc  Nsocc
   -------------------------------------------------------
     A        290     290       0       0       0       0
   -------------------------------------------------------
    Total     290     290      54      54      54       0
   -------------------------------------------------------

  ==> Integral Setup <==

  Using integral reordering PK algorithm.
  Sizing the integral batches needed.
  Building batch lookup table.
   Calculation information:
      Number of atoms:                  31
      Number of AO shells:             138
      Number of primitives:            410
      Number of atomic orbitals:       305
      Number of basis functions:       290

      Integral cutoff                 1.00e-12
      Number of threads:                 1

	Batch   1 pq = [       0,    9405] index = [             0,44231715] size =     44231715
	Batch   2 pq = [    9405,   13301] index = [      44231715,88464951] size =     44233236
	Batch   3 pq = [   13301,   16290] index = [      88464951,132690195] size =     44225244
	Batch   4 pq = [   16290,   18810] index = [     132690195,176917455] size =     44227260
	Batch   5 pq = [   18810,   21030] index = [     176917455,221140965] size =     44223510
	Batch   6 pq = [   21030,   23037] index = [     221140965,265363203] size =     44222238
	Batch   7 pq = [   23037,   24883] index = [     265363203,309594286] size =     44231083
	Batch   8 pq = [   24883,   26601] index = [     309594286,353819901] size =     44225615
	Batch   9 pq = [   26601,   28214] index = [     353819901,398029005] size =     44209104
	Batch  10 pq = [   28214,   29740] index = [     398029005,442248670] size =     44219665
	Batch  11 pq = [   29740,   31191] index = [     442248670,486454836] size =     44206166
	Batch  12 pq = [   31191,   32578] index = [     486454836,530679331] size =     44224495
	Batch  13 pq = [   32578,   33908] index = [     530679331,574893186] size =     44213855
	Batch  14 pq = [   33908,   35188] index = [     574893186,619115266] size =     44222080
	Batch  15 pq = [   35188,   36423] index = [     619115266,663335676] size =     44220410
	Batch  16 pq = [   36423,   37617] index = [     663335676,707538153] size =     44202477
	Batch  17 pq = [   37617,   38775] index = [     707538153,751769700] size =     44231547
	Batch  18 pq = [   38775,   39899] index = [     751769700,795985050] size =     44215350
	Batch  19 pq = [   39899,   40992] index = [     795985050,840192528] size =     44207478
	Batch  20 pq = [   40992,   42057] index = [     840192528,884416653] size =     44224125
	Batch  21 pq = [   42057,   42195] index = [     884416653,890230110] size =      5813457
  Task number: 81
  Buffer size: 11059200
  Buffer per thread: 2
  We computed 40982934 shell quartets total.
  Whereas there are 45998436 unique shell quartets.

  ==> DiskJK: Disk-Based J/K Matrices <==

    J tasked:                  Yes
    K tasked:                  Yes
    wK tasked:                  No
    Memory [MiB]:              375
    Schwarz Cutoff:          1E-12

    OpenMP threads:              1

  Minimum eigenvalue in the overlap matrix is 2.9724354373E-04.
  Using Symmetric Orthogonalization.

  SCF Guess: Superposition of Atomic Densities via on-the-fly atomic UHF.

  ==> Iterations <==

                        Total Energy        Delta E     RMS |[F,P]|

   @RHF iter SAD:  -613.23935503647124   -6.13239e+02   0.00000e+00
   @RHF iter   1:  -614.05986746338999   -8.20512e-01   2.37936e-03 DIIS
   @RHF iter   2:  -614.33708438141014   -2.77217e-01   9.89001e-04 DIIS
   @RHF iter   3:  -614.37920637529862   -4.21220e-02   2.33932e-04 DIIS
   @RHF iter   4:  -614.38280152585753   -3.59515e-03   8.99394e-05 DIIS
   @RHF iter   5:  -614.38320026523036   -3.98739e-04   1.76647e-05 DIIS
   @RHF iter   6:  -614.38322175015026   -2.14849e-05   5.77200e-06 DIIS
   @RHF iter   7:  -614.38322415004961   -2.39990e-06   1.72161e-06 DIIS
   @RHF iter   8:  -614.38322445053859   -3.00489e-07   6.93866e-07 DIIS
   @RHF iter   9:  -614.38322450139037   -5.08518e-08   2.73309e-07 DIIS
   @RHF iter  10:  -614.38322451176782   -1.03774e-08   1.13166e-07 DIIS
   @RHF iter  11:  -614.38322451477052   -3.00270e-09   4.86135e-08 DIIS
   @RHF iter  12:  -614.38322451536851   -5.97993e-10   2.34078e-08 DIIS
   @RHF iter  13:  -614.38322451546014   -9.16316e-11   6.65837e-09 DIIS
   @RHF iter  14:  -614.38322451547174   -1.15961e-11   1.87189e-09 DIIS
   @RHF iter  15:  -614.38322451546856    3.18323e-12   6.72084e-10 DIIS
   @RHF iter  16:  -614.38322451546867   -1.13687e-13   2.71969e-10 DIIS
   @RHF iter  17:  -614.38322451547151   -2.84217e-12   1.39706e-10 DIIS
   @RHF iter  18:  -614.38322451547435   -2.84217e-12   6.26022e-11 DIIS
  Energy and wave function converged.

  ==> Post-Iterations <==

    Orbital Energies [Eh]
    ---------------------

    Doubly Occupied:

       1A    -20.590099     2A    -11.302202     3A    -11.241914
       4A    -11.240609     5A    -11.236849     6A    -11.236517
       7A    -11.232616     8A    -11.230274     9A    -11.229601
      10A    -11.225026    11A    -11.222921    12A    -11.222823
      13A    -11.220832    14A    -11.220308    15A    -11.219833
      16A     -1.407950    17A     -1.149438    18A     -1.147336
      19A     -1.039964    20A     -1.035972    21A     -1.018479
      22A     -1.004970    23A     -0.927021    24A     -0.924597
      25A     -0.846511    26A     -0.817773    27A     -0.804776
      28A     -0.787542    29A     -0.735712    30A     -0.684367
      31A     -0.670049    32A     -0.643972    33A     -0.625618
      34A     -0.621982    35A     -0.608924    36A     -0.595370
      37A     -0.588525    38A     -0.574466    39A     -0.573453
      40A     -0.571151    41A     -0.564801    42A     -0.555499
      43A     -0.529234    44A     -0.527721    45A     -0.498139
      46A     -0.487346    47A     -0.480311    48A     -0.475848
      49A     -0.473523    50A     -0.468099    51A     -0.339669
      52A     -0.324741    53A     -0.314062    54A     -0.302620

    Virtual:

      55A      0.126180    56A      0.146076    57A      0.148742
      58A      0.155324    59A      0.166702    60A      0.186523
      61A      0.196326    62A      0.204379    63A      0.216388
      64A      0.220924    65A      0.236412    66A      0.255372
      67A      0.260637    68A      0.265241    69A      0.269432
      70A      0.275238    71A      0.285357    72A      0.290781
      73A      0.308747    74A      0.338193    75A      0.366903
      76A      0.368828    77A      0.382002    78A      0.385650
      79A      0.436025    80A      0.449862    81A      0.463702
      82A      0.468282    83A      0.486305    84A      0.488939
      85A      0.491783    86A      0.505508    87A      0.517334
      88A      0.567018    89A      0.603338    90A      0.613993
      91A      0.628454    92A      0.640528    93A      0.650678
      94A      0.660023    95A      0.676486    96A      0.688294
      97A      0.692078    98A      0.699396    99A      0.705544
     100A      0.712394   101A      0.720105   102A      0.727966
     103A      0.730283   104A      0.735823   105A      0.747067
     106A      0.751203   107A      0.755754   108A      0.759221
     109A      0.767594   110A      0.770147   111A      0.778526
     112A      0.784643   113A      0.787862   114A      0.796120
     115A      0.809232   116A      0.827193   117A      0.831583
     118A      0.857793   119A      0.865018   120A      0.870210
     121A      0.877351   122A      0.880572   123A      0.886241
     124A      0.888108   125A      0.891759   126A      0.899278
     127A      0.905461   128A      0.921940   129A      0.925990
     130A      0.928603   131A      0.930261   132A      0.939236
     133A      0.945906   134A      0.948388   135A      0.971674
     136A      0.983494   137A      1.001266   138A      1.005879
     139A      1.031670   140A      1.050371   141A      1.056281
     142A      1.064214   143A      1.119625   144A      1.134807
     145A      1.137739   146A      1.152128   147A      1.158001
     148A      1.164530   149A      1.168758   150A      1.171253
     151A      1.200742   152A      1.205883   153A      1.234867
     154A      1.241602   155A      1.246318   156A      1.253635
     157A      1.258145   158A      1.269606   159A      1.286868
     160A      1.290932   161A      1.299168   162A      1.309714
     163A      1.313275   164A      1.321067   165A      1.328691
     166A      1.338982   167A      1.357109   168A      1.373233
     169A      1.388523   170A      1.399387   171A      1.428155
     172A      1.486848   173A      1.510607   174A      1.522873
     175A      1.527416   176A      1.539864   177A      1.558155
     178A      1.571074   179A      1.607702   180A      1.619610
     181A      1.671953   182A      1.687557   183A      1.687842
     184A      1.690692   185A      1.718939   186A      1.729028
     187A      1.747021   188A      1.755890   189A      1.757579
     190A      1.769981   191A      1.779706   192A      1.795722
     193A      1.804017   194A      1.808698   195A      1.821456
     196A      1.860732   197A      1.872645   198A      1.884391
     199A      1.894626   200A      1.901084   201A      1.907532
     202A      1.911127   203A      1.913817   204A      1.920300
     205A      1.927879   206A      1.934619   207A      1.937656
     208A      1.943617   209A      1.946004   210A      1.959036
     211A      1.962323   212A      1.978165   213A      1.988861
     214A      1.995508   215A      2.003676   216A      2.013153
     217A      2.022167   218A      2.044078   219A      2.046474
     220A      2.057687   221A      2.064468   222A      2.067713
     223A      2.080442   224A      2.084119   225A      2.122978
     226A      2.123657   227A      2.144007   228A      2.160928
     229A      2.171614   230A      2.179539   231A      2.182984
     232A      2.188562   233A      2.197952   234A      2.212027
     235A      2.229005   236A      2.249056   237A      2.269279
     238A      2.277326   239A      2.286920   240A      2.305970
     241A      2.310374   242A      2.313568   243A      2.334825
     244A      2.346278   245A      2.351200   246A      2.395852
     247A      2.404317   248A      2.457665   249A      2.468154
     250A      2.485928   251A      2.496010   252A      2.499812
     253A      2.513387   254A      2.526446   255A      2.554753
     256A      2.575598   257A      2.599048   258A      2.641005
     259A      2.646127   260A      2.735764   261A      2.762020
     262A      2.769676   263A      2.774555   264A      2.781033
     265A      2.789342   266A      2.802053   267A      2.808868
     268A      2.843504   269A      2.849420   270A      2.858340
     271A      2.885008   272A      2.890197   273A      2.961034
     274A      3.000223   275A      3.004825   276A      3.028719
     277A      3.034958   278A      3.079173   279A      3.107987
     280A      3.171346   281A      3.227635   282A      3.253614
     283A      3.271163   284A      3.326202   285A      3.342668
     286A      3.586445   287A      3.668505   288A      3.964002
     289A      4.002428   290A      4.190538

    Final Occupation by Irrep:
              A
    DOCC [    54 ]

  @RHF Final Energy:  -614.38322451547435

   => Energetics <=

    Nuclear Repulsion Energy =            882.2367859423195569
    One-Electron Energy =               -2584.0001118542336371
    Two-Electron Energy =                1087.3801013964398408
    Total Energy =                       -614.3832245154742395

Computation Completed

Properties will be evaluated at   0.000000,   0.000000,   0.000000 [a0]

Properties computed using the SCF density matrix

  Nuclear Dipole Moment: [e a0]
     X:     5.5605      Y:    -2.4488      Z:     3.5792

  Electronic Dipole Moment: [e a0]
     X:    -5.4501      Y:     1.7600      Z:    -3.3815

  Dipole Moment: [e a0]
     X:     0.1104      Y:    -0.6888      Z:     0.1977     Total:     0.7251

  Dipole Moment: [D]
     X:     0.2807      Y:    -1.7508      Z:     0.5025     Total:     1.8430

*** tstop() called on ds3 at Mon Apr 27 07:48:25 2020
Module time:
	user time   =     361.29 seconds =       6.02 minutes
	system time =     132.94 seconds =       2.22 minutes
	total time  =        678 seconds =      11.30 minutes
Total time:
	user time   =     361.29 seconds =       6.02 minutes
	system time =     132.94 seconds =       2.22 minutes
	total time  =        678 seconds =      11.30 minutes
                                     G D M A

                                 by Anthony Stone

                           version 2.2.06, 22 June 2011

               Distributed Multipoles from Gaussian wavefunctions

Starting at 7:48:26 on 27 Apr 2020

Using SCF density matrix from file ./SSI/SSI-062PHE-120TYR-1-dimer.test.28011.fchk

                         Distributed Multipole Analysis

Standard DMA

Positions and radii in angstrom
Multipole moments in atomic units, ea_0^k for rank k

C          x = -0.233801  y =  0.816628  z =  3.954560 angstrom
           Maximum rank =  0   Radius =  0.650 angstrom
                   Q00  =  -0.191173

C          x = -0.976801  y =  1.954628  z =  0.430560 angstrom
           Maximum rank =  0   Radius =  0.650 angstrom
                   Q00  =  -0.079733

C          x = -0.883801  y =  1.154628  z =  1.564560 angstrom
           Maximum rank =  0   Radius =  0.650 angstrom
                   Q00  =  -0.065037

C          x = -0.498801  y =  3.256628  z =  0.458560 angstrom
           Maximum rank =  0   Radius =  0.650 angstrom
                   Q00  =  -0.085332

C          x = -0.313801  y =  1.659628  z =  2.728560 angstrom
           Maximum rank =  0   Radius =  0.650 angstrom
                   Q00  =  -0.104789

C          x =  0.079199  y =  3.755628  z =  1.617560 angstrom
           Maximum rank =  0   Radius =  0.650 angstrom
                   Q00  =  -0.034330

C          x =  0.162199  y =  2.965628  z =  2.749560 angstrom
           Maximum rank =  0   Radius =  0.650 angstrom
                   Q00  =  -0.012092

H          x = -1.378801  y =  1.545628  z = -0.482440 angstrom
           Maximum rank =  0   Radius =  0.325 angstrom
                   Q00  =   0.069149

H          x = -1.250801  y =  0.138628  z =  1.535560 angstrom
           Maximum rank =  0   Radius =  0.325 angstrom
                   Q00  =   0.036994

H          x = -0.562801  y =  3.876628  z = -0.426440 angstrom
           Maximum rank =  0   Radius =  0.325 angstrom
                   Q00  =   0.054583

H          x =  0.437199  y =  4.764628  z =  1.643560 angstrom
           Maximum rank =  0   Radius =  0.325 angstrom
                   Q00  =   0.059676

H          x =  0.694199  y =  1.033628  z =  4.486560 angstrom
           Maximum rank =  0   Radius =  0.325 angstrom
                   Q00  =   0.096314

H          x = -0.188801  y = -0.227372  z =  3.641560 angstrom
           Maximum rank =  0   Radius =  0.325 angstrom
                   Q00  =   0.092732

H          x =  0.605199  y =  3.368628  z =  3.647560 angstrom
           Maximum rank =  0   Radius =  0.325 angstrom
                   Q00  =   0.051308

H          x = -1.090670  y =  0.966178  z =  4.627920 angstrom
           Maximum rank =  0   Radius =  0.325 angstrom
                   Q00  =   0.101856

C          x =  2.945199  y = -2.914372  z = -2.526440 angstrom
           Maximum rank =  0   Radius =  0.650 angstrom
                   Q00  =  -0.196526

C          x = -0.898801  y = -1.371372  z = -1.279440 angstrom
           Maximum rank =  0   Radius =  0.650 angstrom
                   Q00  =   0.302554

C          x = -0.467801  y = -2.615372  z = -0.819440 angstrom
           Maximum rank =  0   Radius =  0.650 angstrom
                   Q00  =  -0.168217

C          x = -0.095801  y = -0.625372  z = -2.140440 angstrom
           Maximum rank =  0   Radius =  0.650 angstrom
                   Q00  =  -0.132128

C          x =  0.772199  y = -3.112372  z = -1.228440 angstrom
           Maximum rank =  0   Radius =  0.650 angstrom
                   Q00  =  -0.025568

C          x =  1.138199  y = -1.132372  z = -2.548440 angstrom
           Maximum rank =  0   Radius =  0.650 angstrom
                   Q00  =   0.031295

C          x =  1.584199  y = -2.382372  z = -2.103440 angstrom
           Maximum rank =  0   Radius =  0.650 angstrom
                   Q00  =  -0.138458

O          x = -2.108801  y = -0.893372  z = -0.884440 angstrom
           Maximum rank =  0   Radius =  0.650 angstrom
                   Q00  =  -0.660677

H          x = -1.085801  y = -3.190372  z = -0.145440 angstrom
           Maximum rank =  0   Radius =  0.325 angstrom
                   Q00  =   0.070266

H          x = -2.574801  y = -1.518372  z = -0.321440 angstrom
           Maximum rank =  0   Radius =  0.325 angstrom
                   Q00  =   0.411025

H          x = -0.434801  y =  0.340628  z = -2.483440 angstrom
           Maximum rank =  0   Radius =  0.325 angstrom
                   Q00  =   0.084820

H          x =  1.109199  y = -4.074372  z = -0.861440 angstrom
           Maximum rank =  0   Radius =  0.325 angstrom
                   Q00  =   0.068362

H          x =  1.757199  y = -0.544372  z = -3.212440 angstrom
           Maximum rank =  0   Radius =  0.325 angstrom
                   Q00  =   0.068162

H          x =  3.482199  y = -3.202372  z = -1.624440 angstrom
           Maximum rank =  0   Radius =  0.325 angstrom
                   Q00  =   0.096872

H          x =  3.504199  y = -2.105372  z = -2.997440 angstrom
           Maximum rank =  0   Radius =  0.325 angstrom
                   Q00  =   0.097539

H          x =  2.920110  y = -3.779570  z = -3.205270 angstrom
           Maximum rank =  0   Radius =  0.325 angstrom
                   Q00  =   0.100552

Total multipoles referred to origin at
           x =   0.000000,  y =    0.000000,  z =    0.000000 angstrom
                   Q00  =  -0.000000

Finished at 7:48:26 on 27 Apr 2020

  DMA results are available in the Python driver through the
	  variable('DMA DISTRIBUTED MULTIPOLES')
  and
	  variable('DMA TOTAL MULTIPOLES')
  commands.

    Psi4 stopped on: Monday, 27 April 2020 07:48AM
    Psi4 wall time for execution: 0:11:18.70

*** Psi4 exiting successfully. Buy a developer a beer!
