                               Psi4 1.3.2 release

  ==> Input File <==

--------------------------------------------------------------------------
import numpy as np
set {scf_type pk
basis cc-pvdz
d_convergence 10
gdma_switch   0
gdma_limit    0
gdma_origin   [ 0.0,  0.0,  0.0 ]
}
molecule test {
    units Angstrom
    -1 1
    --
    -1 1
    C               -0.364318047330663    -1.012496599202204     0.230261431741875
    C               -0.503318047330663    -2.449496599202204    -0.254738568258125
    C               -1.391318047330663    -0.028496599202204    -0.305738568258125
    O               -2.078318047330664    -0.361496599202204    -1.292738568258125
    O               -1.484318047330663     1.088503400797796     0.270261431741875
    H               -0.371318047330663    -0.997496599202204     1.321261431741875
    H                0.614681952669337    -0.648496599202204    -0.082738568258125
    H               -0.508318047330664    -2.446496599202205    -1.345738568258125
    H               -1.438018047330663    -2.893476599202204     0.118391431741875
    H                0.351481952669337    -3.054326599202204     0.082151431741875
    C                2.221681952669337     1.775503400797795     0.596261431741875
    C                3.471681952669337     0.920503400797796     0.749261431741875
    H                1.799681952669336     1.639503400797796    -0.397738568258125
    H                1.475681952669337     1.444503400797795     1.317261431741875
    H                2.444681952669337     2.827503400797795     0.778261431741875
    H                3.166681952669337    -0.099496599202204     0.536261431741875
    H                4.251931952669336     1.217913400797796     0.033191431741875
    H                3.861521952669337     0.932013400797796     1.777801431741875

}
e, wfn = energy('scf', return_wfn=True)
gdma(wfn)
dmavals = variable('DMA DISTRIBUTED MULTIPOLES')
charges = np.array(dmavals)
print(charges)
np.save('SSI-157ASP-202VAL-1-dimer.npy', np.array(charges))--------------------------------------------------------------------------

*** tstart() called on ds3
*** at Sun Apr 26 22:25:20 2020

   => Loading Basis Set <=

    Name: CC-PVDZ
    Role: ORBITAL
    Keyword: BASIS
    atoms 1-3, 11-12  entry C          line   138 file /theoryfs2/ds/metcalf/miniconda2/envs/tf2gpu/share/psi4/basis/cc-pvdz.gbs
    atoms 4-5         entry O          line   198 file /theoryfs2/ds/metcalf/miniconda2/envs/tf2gpu/share/psi4/basis/cc-pvdz.gbs
    atoms 6-10, 13-18 entry H          line    22 file /theoryfs2/ds/metcalf/miniconda2/envs/tf2gpu/share/psi4/basis/cc-pvdz.gbs

         ---------------------------------------------------------
                                   SCF
               by Justin Turney, Rob Parrish, Andy Simmonett
                          and Daniel G. A. Smith
                              RHF Reference
                        1 Threads,    500 MiB Core
         ---------------------------------------------------------

  ==> Geometry <==

    Molecular point group: c1
    Full point group: C1

    Geometry (in Angstrom), charge = -1, multiplicity = 1:

       Center              X                  Y                   Z               Mass
    ------------   -----------------  -----------------  -----------------  -----------------
         C           -0.364318047331    -1.012496599202     0.230261431742    12.000000000000
         C           -0.503318047331    -2.449496599202    -0.254738568258    12.000000000000
         C           -1.391318047331    -0.028496599202    -0.305738568258    12.000000000000
         O           -2.078318047331    -0.361496599202    -1.292738568258    15.994914619570
         O           -1.484318047331     1.088503400798     0.270261431742    15.994914619570
         H           -0.371318047331    -0.997496599202     1.321261431742     1.007825032230
         H            0.614681952669    -0.648496599202    -0.082738568258     1.007825032230
         H           -0.508318047331    -2.446496599202    -1.345738568258     1.007825032230
         H           -1.438018047331    -2.893476599202     0.118391431742     1.007825032230
         H            0.351481952669    -3.054326599202     0.082151431742     1.007825032230
         C            2.221681952669     1.775503400798     0.596261431742    12.000000000000
         C            3.471681952669     0.920503400798     0.749261431742    12.000000000000
         H            1.799681952669     1.639503400798    -0.397738568258     1.007825032230
         H            1.475681952669     1.444503400798     1.317261431742     1.007825032230
         H            2.444681952669     2.827503400798     0.778261431742     1.007825032230
         H            3.166681952669    -0.099496599202     0.536261431742     1.007825032230
         H            4.251931952669     1.217913400798     0.033191431742     1.007825032230
         H            3.861521952669     0.932013400798     1.777801431742     1.007825032230

  Running in c1 symmetry.

  Rotational constants: A =      0.10365  B =      0.03382  C =      0.02734 [cm^-1]
  Rotational constants: A =   3107.39407  B =   1013.92142  C =    819.66846 [MHz]
  Nuclear repulsion =  290.904766780566945

  Charge       = -1
  Multiplicity = 1
  Electrons    = 58
  Nalpha       = 29
  Nbeta        = 29

  ==> Algorithm <==

  SCF Algorithm Type is PK.
  DIIS enabled.
  MOM disabled.
  Fractional occupation disabled.
  Guess Type is SAD.
  Energy threshold   = 1.00e-06
  Density threshold  = 1.00e-10
  Integral threshold = 0.00e+00

  ==> Primary Basis <==

  Basis Set: CC-PVDZ
    Blend: CC-PVDZ
    Number of shells: 75
    Number of basis function: 153
    Number of Cartesian functions: 160
    Spherical Harmonics?: true
    Max angular momentum: 2

  ==> Pre-Iterations <==

   -------------------------------------------------------
    Irrep   Nso     Nmo     Nalpha   Nbeta   Ndocc  Nsocc
   -------------------------------------------------------
     A        153     153       0       0       0       0
   -------------------------------------------------------
    Total     153     153      29      29      29       0
   -------------------------------------------------------

  ==> Integral Setup <==

  Using integral reordering PK algorithm.
  Sizing the integral batches needed.
  Building batch lookup table.
   Calculation information:
      Number of atoms:                  18
      Number of AO shells:              75
      Number of primitives:            209
      Number of atomic orbitals:       160
      Number of basis functions:       153

      Integral cutoff                 1.00e-12
      Number of threads:                 1

	Batch   1 pq = [       0,    9405] index = [             0,44231715] size =     44231715
	Batch   2 pq = [    9405,   11781] index = [      44231715,69401871] size =     25170156
  Task number: 7
  Buffer size: 11059200
  Buffer per thread: 2
  We computed 3425387 shell quartets total.
  Whereas there are 4062675 unique shell quartets.

  ==> DiskJK: Disk-Based J/K Matrices <==

    J tasked:                  Yes
    K tasked:                  Yes
    wK tasked:                  No
    Memory [MiB]:              375
    Schwarz Cutoff:          1E-12

    OpenMP threads:              1

  Minimum eigenvalue in the overlap matrix is 3.7014469213E-03.
  Using Symmetric Orthogonalization.

  SCF Guess: Superposition of Atomic Densities via on-the-fly atomic UHF.

  ==> Iterations <==

                        Total Energy        Delta E     RMS |[F,P]|

   @RHF iter SAD:  -343.86540835840844   -3.43865e+02   0.00000e+00
   @RHF iter   1:  -345.22149430213977   -1.35609e+00   4.91809e-03 DIIS
   @RHF iter   2:  -345.44524746211243   -2.23753e-01   2.71671e-03 DIIS
   @RHF iter   3:  -345.51016998799224   -6.49225e-02   4.28129e-04 DIIS
   @RHF iter   4:  -345.51318557595505   -3.01559e-03   1.67938e-04 DIIS
   @RHF iter   5:  -345.51363048328363   -4.44907e-04   2.43182e-05 DIIS
   @RHF iter   6:  -345.51364382005534   -1.33368e-05   5.20091e-06 DIIS
   @RHF iter   7:  -345.51364441334323   -5.93288e-07   1.71811e-06 DIIS
   @RHF iter   8:  -345.51364447067834   -5.73351e-08   6.84722e-07 DIIS
   @RHF iter   9:  -345.51364447823573   -7.55739e-09   2.48470e-07 DIIS
   @RHF iter  10:  -345.51364447999163   -1.75589e-09   9.51239e-08 DIIS
   @RHF iter  11:  -345.51364448029369   -3.02066e-10   2.60677e-08 DIIS
   @RHF iter  12:  -345.51364448032513   -3.14344e-11   8.74926e-09 DIIS
   @RHF iter  13:  -345.51364448032683   -1.70530e-12   2.80904e-09 DIIS
   @RHF iter  14:  -345.51364448032854   -1.70530e-12   7.60545e-10 DIIS
   @RHF iter  15:  -345.51364448032928   -7.38964e-13   2.93001e-10 DIIS
   @RHF iter  16:  -345.51364448032763    1.64846e-12   1.01081e-10 DIIS
   @RHF iter  17:  -345.51364448032797   -3.41061e-13   4.13175e-11 DIIS
  Energy and wave function converged.

  ==> Post-Iterations <==

    Orbital Energies [Eh]
    ---------------------

    Doubly Occupied:

       1A    -20.262403     2A    -20.255568     3A    -11.119191
       4A    -11.113776     5A    -11.100551     6A    -11.071894
       7A    -11.051992     8A     -1.146266     9A     -1.034009
      10A     -0.913635    11A     -0.870824    12A     -0.728735
      13A     -0.701634    14A     -0.506918    15A     -0.493156
      16A     -0.492282    17A     -0.457732    18A     -0.430234
      19A     -0.394990    20A     -0.389025    21A     -0.377792
      22A     -0.376321    23A     -0.360550    24A     -0.356047
      25A     -0.323868    26A     -0.296192    27A     -0.180239
      28A     -0.171028    29A     -0.159683

    Virtual:

      30A      0.283724    31A      0.324399    32A      0.344848
      33A      0.350360    34A      0.362223    35A      0.374378
      36A      0.384409    37A      0.404515    38A      0.419317
      39A      0.426258    40A      0.453880    41A      0.503266
      42A      0.511585    43A      0.560979    44A      0.615176
      45A      0.682351    46A      0.702009    47A      0.702434
      48A      0.716186    49A      0.733391    50A      0.754333
      51A      0.774890    52A      0.794793    53A      0.850747
      54A      0.914189    55A      0.938901    56A      0.950165
      57A      0.975810    58A      0.988501    59A      0.993869
      60A      0.999633    61A      1.009172    62A      1.026050
      63A      1.037028    64A      1.045812    65A      1.046745
      66A      1.055512    67A      1.060526    68A      1.074081
      69A      1.085407    70A      1.111905    71A      1.151789
      72A      1.161617    73A      1.234729    74A      1.241137
      75A      1.270871    76A      1.310137    77A      1.314358
      78A      1.346046    79A      1.393642    80A      1.468397
      81A      1.491987    82A      1.530983    83A      1.576665
      84A      1.588568    85A      1.607816    86A      1.619307
      87A      1.642764    88A      1.665885    89A      1.700269
      90A      1.736448    91A      1.778222    92A      1.800645
      93A      1.827318    94A      1.835200    95A      1.880204
      96A      1.920489    97A      1.961567    98A      1.984861
      99A      1.997368   100A      2.028852   101A      2.041066
     102A      2.052991   103A      2.056828   104A      2.061178
     105A      2.062769   106A      2.074537   107A      2.107684
     108A      2.140615   109A      2.155353   110A      2.169247
     111A      2.174829   112A      2.182625   113A      2.205617
     114A      2.224377   115A      2.232538   116A      2.258884
     117A      2.358458   118A      2.390219   119A      2.407761
     120A      2.432410   121A      2.461249   122A      2.496065
     123A      2.537322   124A      2.565623   125A      2.572680
     126A      2.616997   127A      2.661092   128A      2.669320
     129A      2.694599   130A      2.721230   131A      2.769783
     132A      2.800408   133A      2.863843   134A      2.908338
     135A      2.917793   136A      2.961088   137A      2.969366
     138A      2.998023   139A      3.006074   140A      3.054892
     141A      3.064897   142A      3.083395   143A      3.139316
     144A      3.246659   145A      3.289182   146A      3.305222
     147A      3.362967   148A      3.630406   149A      3.794987
     150A      3.834367   151A      4.046320   152A      4.089129
     153A      4.199136

    Final Occupation by Irrep:
              A
    DOCC [    29 ]

  @RHF Final Energy:  -345.51364448032797

   => Energetics <=

    Nuclear Repulsion Energy =            290.9047667805669448
    One-Electron Energy =               -1058.5637573361473187
    Two-Electron Energy =                 422.1453460752524620
    Total Energy =                       -345.5136444803279687

Computation Completed

Properties will be evaluated at   0.000000,   0.000000,   0.000000 [a0]

Properties computed using the SCF density matrix

  Nuclear Dipole Moment: [e a0]
     X:    14.6531      Y:    -1.9449      Z:     3.8747

  Electronic Dipole Moment: [e a0]
     X:   -11.5577      Y:     1.2495      Z:    -2.9490

  Dipole Moment: [e a0]
     X:     3.0953      Y:    -0.6954      Z:     0.9257     Total:     3.3048

  Dipole Moment: [D]
     X:     7.8676      Y:    -1.7676      Z:     2.3529     Total:     8.4000

*** tstop() called on ds3 at Sun Apr 26 22:25:53 2020
Module time:
	user time   =      23.61 seconds =       0.39 minutes
	system time =      10.07 seconds =       0.17 minutes
	total time  =         33 seconds =       0.55 minutes
Total time:
	user time   =      23.61 seconds =       0.39 minutes
	system time =      10.07 seconds =       0.17 minutes
	total time  =         33 seconds =       0.55 minutes
                                     G D M A

                                 by Anthony Stone

                           version 2.2.06, 22 June 2011

               Distributed Multipoles from Gaussian wavefunctions

Starting at 22:25:53 on 26 Apr 2020

Using SCF density matrix from file ./SSI/SSI-157ASP-202VAL-1-dimer.test.2588.fchk

                         Distributed Multipole Analysis

Standard DMA

Positions and radii in angstrom
Multipole moments in atomic units, ea_0^k for rank k

C          x = -0.364318  y = -1.012497  z =  0.230261 angstrom
           Maximum rank =  0   Radius =  0.650 angstrom
                   Q00  =  -0.170962

C          x = -0.503318  y = -2.449497  z = -0.254739 angstrom
           Maximum rank =  0   Radius =  0.650 angstrom
                   Q00  =  -0.206620

C          x = -1.391318  y = -0.028497  z = -0.305739 angstrom
           Maximum rank =  0   Radius =  0.650 angstrom
                   Q00  =   1.028730

O          x = -2.078318  y = -0.361497  z = -1.292739 angstrom
           Maximum rank =  0   Radius =  0.650 angstrom
                   Q00  =  -0.956654

O          x = -1.484318  y =  1.088503  z =  0.270261 angstrom
           Maximum rank =  0   Radius =  0.650 angstrom
                   Q00  =  -0.946783

H          x = -0.371318  y = -0.997497  z =  1.321261 angstrom
           Maximum rank =  0   Radius =  0.325 angstrom
                   Q00  =   0.031280

H          x =  0.614682  y = -0.648497  z = -0.082739 angstrom
           Maximum rank =  0   Radius =  0.325 angstrom
                   Q00  =   0.049384

H          x = -0.508318  y = -2.446497  z = -1.345739 angstrom
           Maximum rank =  0   Radius =  0.325 angstrom
                   Q00  =   0.089798

H          x = -1.438018  y = -2.893477  z =  0.118391 angstrom
           Maximum rank =  0   Radius =  0.325 angstrom
                   Q00  =   0.069538

H          x =  0.351482  y = -3.054327  z =  0.082151 angstrom
           Maximum rank =  0   Radius =  0.325 angstrom
                   Q00  =   0.015767

C          x =  2.221682  y =  1.775503  z =  0.596261 angstrom
           Maximum rank =  0   Radius =  0.650 angstrom
                   Q00  =  -0.197459

C          x =  3.471682  y =  0.920503  z =  0.749261 angstrom
           Maximum rank =  0   Radius =  0.650 angstrom
                   Q00  =  -0.246122

H          x =  1.799682  y =  1.639503  z = -0.397739 angstrom
           Maximum rank =  0   Radius =  0.325 angstrom
                   Q00  =   0.094766

H          x =  1.475682  y =  1.444503  z =  1.317261 angstrom
           Maximum rank =  0   Radius =  0.325 angstrom
                   Q00  =   0.098717

H          x =  2.444682  y =  2.827503  z =  0.778261 angstrom
           Maximum rank =  0   Radius =  0.325 angstrom
                   Q00  =   0.050492

H          x =  3.166682  y = -0.099497  z =  0.536261 angstrom
           Maximum rank =  0   Radius =  0.325 angstrom
                   Q00  =   0.080104

H          x =  4.251932  y =  1.217913  z =  0.033191 angstrom
           Maximum rank =  0   Radius =  0.325 angstrom
                   Q00  =   0.056290

H          x =  3.861522  y =  0.932013  z =  1.777801 angstrom
           Maximum rank =  0   Radius =  0.325 angstrom
                   Q00  =   0.059732

Total multipoles referred to origin at
           x =   0.000000,  y =    0.000000,  z =    0.000000 angstrom
                   Q00  =  -1.000000

Finished at 22:25:53 on 26 Apr 2020

  DMA results are available in the Python driver through the
	  variable('DMA DISTRIBUTED MULTIPOLES')
  and
	  variable('DMA TOTAL MULTIPOLES')
  commands.

    Psi4 stopped on: Sunday, 26 April 2020 10:25PM
    Psi4 wall time for execution: 0:00:33.36

*** Psi4 exiting successfully. Buy a developer a beer!
