                               Psi4 1.3.2 release

  ==> Input File <==

--------------------------------------------------------------------------
import numpy as np
set {scf_type pk
basis cc-pvdz
d_convergence 10
gdma_switch   0
gdma_limit    0
gdma_origin   [ 0.0,  0.0,  0.0 ]
}
molecule test {
    units Angstrom
    0 1
    --
    0 1
    C                1.462675281780905    -0.954042566284269     0.363663606405477
    C                1.995675281780905    -2.286042566284269    -0.136336393594523
    C                0.240675281780905    -0.494042566284269    -0.372336393594523
    C               -1.023324718219095    -0.784042566284269     0.133663606405477
    C                0.355675281780905     0.222957433715731    -1.554336393594523
    C               -2.153324718219094    -0.357042566284269    -0.544336393594523
    C               -0.770324718219095     0.655957433715731    -2.239336393594523
    C               -2.031324718219095     0.363957433715731    -1.732336393594523
    H                1.222675281780905    -1.062042566284269     1.421663606405477
    H                2.238675281780905    -0.191042566284269     0.276663606405477
    H                1.232675281780905    -3.050042566284269     0.022663606405477
    H               -1.125324718219095    -1.343042566284269     1.051663606405477
    H                1.331675281780905     0.457957433715731    -1.953336393594523
    H               -3.135324718219094    -0.589042566284269    -0.155336393594523
    H               -0.672324718219095     1.213957433715731    -3.160336393594524
    H               -2.915324718219094     0.687957433715731    -2.262336393594524
    H                2.902405281780906    -2.552992566284269     0.426303606405477
    H                2.200345281780906    -2.234152566284269    -1.215886393594523
    C                0.196675281780905     1.242957433715731     2.957663606405476
    C                1.121675281780905     2.240957433715731     2.273663606405477
    H               -0.176324718219095     1.645957433715731     3.899663606405476
    H               -0.653324718219095     1.028957433715731     2.309663606405477
    H                0.727675281780905     0.314957433715731     3.162663606405476
    H                1.464675281780905     1.816957433715731     1.330663606405477
    H                1.988345281780905     2.452907433715731     2.917063606405476
    H                0.575375281780905     3.170027433715731     2.053693606405477

}
e, wfn = energy('scf', return_wfn=True)
gdma(wfn)
dmavals = variable('DMA DISTRIBUTED MULTIPOLES')
charges = np.array(dmavals)
print(charges)
np.save('SSI-194PHE-233ALA-1-dimer.npy', np.array(charges))--------------------------------------------------------------------------

*** tstart() called on ds3
*** at Mon Apr 27 14:34:42 2020

   => Loading Basis Set <=

    Name: CC-PVDZ
    Role: ORBITAL
    Keyword: BASIS
    atoms 1-8, 19-20  entry C          line   138 file /theoryfs2/ds/metcalf/miniconda2/envs/tf2gpu/share/psi4/basis/cc-pvdz.gbs
    atoms 9-18, 21-26 entry H          line    22 file /theoryfs2/ds/metcalf/miniconda2/envs/tf2gpu/share/psi4/basis/cc-pvdz.gbs

         ---------------------------------------------------------
                                   SCF
               by Justin Turney, Rob Parrish, Andy Simmonett
                          and Daniel G. A. Smith
                              RHF Reference
                        1 Threads,    500 MiB Core
         ---------------------------------------------------------

  ==> Geometry <==

    Molecular point group: c1
    Full point group: C1

    Geometry (in Angstrom), charge = 0, multiplicity = 1:

       Center              X                  Y                   Z               Mass
    ------------   -----------------  -----------------  -----------------  -----------------
         C            1.462675281781    -0.954042566284     0.363663606405    12.000000000000
         C            1.995675281781    -2.286042566284    -0.136336393595    12.000000000000
         C            0.240675281781    -0.494042566284    -0.372336393595    12.000000000000
         C           -1.023324718219    -0.784042566284     0.133663606405    12.000000000000
         C            0.355675281781     0.222957433716    -1.554336393595    12.000000000000
         C           -2.153324718219    -0.357042566284    -0.544336393595    12.000000000000
         C           -0.770324718219     0.655957433716    -2.239336393595    12.000000000000
         C           -2.031324718219     0.363957433716    -1.732336393595    12.000000000000
         H            1.222675281781    -1.062042566284     1.421663606405     1.007825032230
         H            2.238675281781    -0.191042566284     0.276663606405     1.007825032230
         H            1.232675281781    -3.050042566284     0.022663606405     1.007825032230
         H           -1.125324718219    -1.343042566284     1.051663606405     1.007825032230
         H            1.331675281781     0.457957433716    -1.953336393595     1.007825032230
         H           -3.135324718219    -0.589042566284    -0.155336393595     1.007825032230
         H           -0.672324718219     1.213957433716    -3.160336393595     1.007825032230
         H           -2.915324718219     0.687957433716    -2.262336393595     1.007825032230
         H            2.902405281781    -2.552992566284     0.426303606405     1.007825032230
         H            2.200345281781    -2.234152566284    -1.215886393595     1.007825032230
         C            0.196675281781     1.242957433716     2.957663606405    12.000000000000
         C            1.121675281781     2.240957433716     2.273663606405    12.000000000000
         H           -0.176324718219     1.645957433716     3.899663606405     1.007825032230
         H           -0.653324718219     1.028957433716     2.309663606405     1.007825032230
         H            0.727675281781     0.314957433716     3.162663606405     1.007825032230
         H            1.464675281781     1.816957433716     1.330663606405     1.007825032230
         H            1.988345281781     2.452907433716     2.917063606405     1.007825032230
         H            0.575375281781     3.170027433716     2.053693606405     1.007825032230

  Running in c1 symmetry.

  Rotational constants: A =      0.04315  B =      0.02938  C =      0.02247 [cm^-1]
  Rotational constants: A =   1293.68180  B =    880.70163  C =    673.63415 [MHz]
  Nuclear repulsion =  506.567303031870495

  Charge       = 0
  Multiplicity = 1
  Electrons    = 76
  Nalpha       = 38
  Nbeta        = 38

  ==> Algorithm <==

  SCF Algorithm Type is PK.
  DIIS enabled.
  MOM disabled.
  Fractional occupation disabled.
  Guess Type is SAD.
  Energy threshold   = 1.00e-06
  Density threshold  = 1.00e-10
  Integral threshold = 0.00e+00

  ==> Primary Basis <==

  Basis Set: CC-PVDZ
    Blend: CC-PVDZ
    Number of shells: 108
    Number of basis function: 220
    Number of Cartesian functions: 230
    Spherical Harmonics?: true
    Max angular momentum: 2

  ==> Pre-Iterations <==

   -------------------------------------------------------
    Irrep   Nso     Nmo     Nalpha   Nbeta   Ndocc  Nsocc
   -------------------------------------------------------
     A        220     220       0       0       0       0
   -------------------------------------------------------
    Total     220     220      38      38      38       0
   -------------------------------------------------------

  ==> Integral Setup <==

  Using integral reordering PK algorithm.
  Sizing the integral batches needed.
  Building batch lookup table.
   Calculation information:
      Number of atoms:                  26
      Number of AO shells:             108
      Number of primitives:            300
      Number of atomic orbitals:       230
      Number of basis functions:       220

      Integral cutoff                 1.00e-12
      Number of threads:                 1

	Batch   1 pq = [       0,    9405] index = [             0,44231715] size =     44231715
	Batch   2 pq = [    9405,   13301] index = [      44231715,88464951] size =     44233236
	Batch   3 pq = [   13301,   16290] index = [      88464951,132690195] size =     44225244
	Batch   4 pq = [   16290,   18810] index = [     132690195,176917455] size =     44227260
	Batch   5 pq = [   18810,   21030] index = [     176917455,221140965] size =     44223510
	Batch   6 pq = [   21030,   23037] index = [     221140965,265363203] size =     44222238
	Batch   7 pq = [   23037,   24310] index = [     265363203,295500205] size =     30137002
  Task number: 27
  Buffer size: 11059200
  Buffer per thread: 2
  We computed 17727826 shell quartets total.
  Whereas there are 17325441 unique shell quartets.
     2.32 percent of shell quartets recomputed by reordering.

  ==> DiskJK: Disk-Based J/K Matrices <==

    J tasked:                  Yes
    K tasked:                  Yes
    wK tasked:                  No
    Memory [MiB]:              375
    Schwarz Cutoff:          1E-12

    OpenMP threads:              1

  Minimum eigenvalue in the overlap matrix is 3.0284424370E-04.
  Using Symmetric Orthogonalization.

  SCF Guess: Superposition of Atomic Densities via on-the-fly atomic UHF.

  ==> Iterations <==

                        Total Energy        Delta E     RMS |[F,P]|

   @RHF iter SAD:  -386.98536694333848   -3.86985e+02   0.00000e+00
   @RHF iter   1:  -387.77376676508180   -7.88400e-01   2.74359e-03 DIIS
   @RHF iter   2:  -387.99027427908300   -2.16508e-01   1.15176e-03 DIIS
   @RHF iter   3:  -388.02529511198088   -3.50208e-02   2.53356e-04 DIIS
   @RHF iter   4:  -388.02816281115088   -2.86770e-03   6.93361e-05 DIIS
   @RHF iter   5:  -388.02830334210358   -1.40531e-04   2.13280e-05 DIIS
   @RHF iter   6:  -388.02831821346024   -1.48714e-05   3.99602e-06 DIIS
   @RHF iter   7:  -388.02831885631736   -6.42857e-07   1.15534e-06 DIIS
   @RHF iter   8:  -388.02831890883675   -5.25194e-08   2.83056e-07 DIIS
   @RHF iter   9:  -388.02831891456265   -5.72589e-09   1.05501e-07 DIIS
   @RHF iter  10:  -388.02831891574220   -1.17956e-09   5.63838e-08 DIIS
   @RHF iter  11:  -388.02831891613880   -3.96597e-10   2.11431e-08 DIIS
   @RHF iter  12:  -388.02831891620463   -6.58247e-11   9.74836e-09 DIIS
   @RHF iter  13:  -388.02831891621071   -6.08225e-12   4.29134e-09 DIIS
   @RHF iter  14:  -388.02831891621395   -3.24007e-12   1.12927e-09 DIIS
   @RHF iter  15:  -388.02831891621355    3.97904e-13   3.76188e-10 DIIS
   @RHF iter  16:  -388.02831891621423   -6.82121e-13   1.38602e-10 DIIS
   @RHF iter  17:  -388.02831891621304    1.19371e-12   6.30526e-11 DIIS
  Energy and wave function converged.

  ==> Post-Iterations <==

    Orbital Energies [Eh]
    ---------------------

    Doubly Occupied:

       1A    -11.236173     2A    -11.235366     3A    -11.235160
       4A    -11.231575     5A    -11.230053     6A    -11.229709
       7A    -11.226801     8A    -11.222765     9A    -11.213635
      10A    -11.210735    11A     -1.157139    12A     -1.065876
      13A     -1.015399    14A     -1.013948    15A     -0.982732
      16A     -0.861460    17A     -0.832354    18A     -0.825474
      19A     -0.786847    20A     -0.692357    21A     -0.642655
      22A     -0.635452    23A     -0.597505    24A     -0.594912
      25A     -0.590284    26A     -0.587750    27A     -0.577592
      28A     -0.542261    29A     -0.519127    30A     -0.498887
      31A     -0.496400    32A     -0.486968    33A     -0.484763
      34A     -0.477576    35A     -0.470606    36A     -0.468511
      37A     -0.334050    38A     -0.321861

    Virtual:

      39A      0.136553    40A      0.137717    41A      0.178593
      42A      0.196147    43A      0.204192    44A      0.205542
      45A      0.236586    46A      0.238085    47A      0.241715
      48A      0.260556    49A      0.261457    50A      0.265081
      51A      0.279420    52A      0.288779    53A      0.294535
      54A      0.302573    55A      0.324122    56A      0.345530
      57A      0.357592    58A      0.389961    59A      0.401651
      60A      0.424309    61A      0.453439    62A      0.467780
      63A      0.497414    64A      0.501840    65A      0.569141
      66A      0.571996    67A      0.594007    68A      0.602143
      69A      0.611618    70A      0.616329    71A      0.635680
      72A      0.662083    73A      0.685709    74A      0.696443
      75A      0.702309    76A      0.721811    77A      0.734374
      78A      0.739662    79A      0.743610    80A      0.745977
      81A      0.756890    82A      0.774063    83A      0.796044
      84A      0.806300    85A      0.843122    86A      0.847081
      87A      0.857519    88A      0.862747    89A      0.867244
      90A      0.876566    91A      0.890685    92A      0.895358
      93A      0.902331    94A      0.909928    95A      0.913758
      96A      0.917054    97A      0.933161    98A      0.945720
      99A      0.949643   100A      0.958108   101A      0.969272
     102A      0.974178   103A      0.991988   104A      1.006018
     105A      1.026147   106A      1.045225   107A      1.051783
     108A      1.086428   109A      1.123039   110A      1.134803
     111A      1.141320   112A      1.146040   113A      1.150538
     114A      1.160740   115A      1.188530   116A      1.223460
     117A      1.240722   118A      1.251721   119A      1.255418
     120A      1.271309   121A      1.297456   122A      1.306446
     123A      1.322469   124A      1.327311   125A      1.400357
     126A      1.435599   127A      1.441189   128A      1.479525
     129A      1.492936   130A      1.514729   131A      1.542871
     132A      1.577628   133A      1.619089   134A      1.626493
     135A      1.673270   136A      1.681518   137A      1.699332
     138A      1.709199   139A      1.735476   140A      1.762011
     141A      1.769633   142A      1.786004   143A      1.847730
     144A      1.858955   145A      1.861570   146A      1.872335
     147A      1.881529   148A      1.884302   149A      1.898640
     150A      1.902276   151A      1.908636   152A      1.921921
     153A      1.925110   154A      1.932769   155A      1.946008
     156A      1.947409   157A      1.953708   158A      1.956018
     159A      1.958640   160A      1.965457   161A      1.974401
     162A      1.988695   163A      1.994686   164A      2.007994
     165A      2.017072   166A      2.035076   167A      2.045793
     168A      2.066248   169A      2.069422   170A      2.100778
     171A      2.117240   172A      2.123580   173A      2.143559
     174A      2.158019   175A      2.165395   176A      2.174211
     177A      2.175345   178A      2.194334   179A      2.244907
     180A      2.260041   181A      2.276305   182A      2.295164
     183A      2.307956   184A      2.319668   185A      2.333175
     186A      2.374484   187A      2.393902   188A      2.450181
     189A      2.469958   190A      2.473097   191A      2.501365
     192A      2.504767   193A      2.520180   194A      2.546169
     195A      2.574338   196A      2.584584   197A      2.593315
     198A      2.643586   199A      2.743633   200A      2.767586
     201A      2.775577   202A      2.778591   203A      2.790374
     204A      2.802472   205A      2.807179   206A      2.846456
     207A      2.863612   208A      2.872700   209A      2.877414
     210A      2.918914   211A      2.954569   212A      2.981764
     213A      3.001153   214A      3.005686   215A      3.039023
     216A      3.063611   217A      3.196919   218A      3.213341
     219A      3.318099   220A      3.985224

    Final Occupation by Irrep:
              A
    DOCC [    38 ]

  @RHF Final Energy:  -388.02831891621304

   => Energetics <=

    Nuclear Repulsion Energy =            506.5673030318704946
    One-Electron Energy =               -1527.5258072745452864
    Two-Electron Energy =                 632.9301853264616966
    Total Energy =                       -388.0283189162130384

Computation Completed

Properties will be evaluated at   0.000000,   0.000000,   0.000000 [a0]

Properties computed using the SCF density matrix

  Nuclear Dipole Moment: [e a0]
     X:     6.7559      Y:     1.6568      Z:     9.4920

  Electronic Dipole Moment: [e a0]
     X:    -6.7050      Y:    -1.7223      Z:    -9.4949

  Dipole Moment: [e a0]
     X:     0.0509      Y:    -0.0655      Z:    -0.0029     Total:     0.0830

  Dipole Moment: [D]
     X:     0.1295      Y:    -0.1665      Z:    -0.0073     Total:     0.2111

*** tstop() called on ds3 at Mon Apr 27 14:39:33 2020
Module time:
	user time   =     122.04 seconds =       2.03 minutes
	system time =      42.13 seconds =       0.70 minutes
	total time  =        291 seconds =       4.85 minutes
Total time:
	user time   =     122.04 seconds =       2.03 minutes
	system time =      42.13 seconds =       0.70 minutes
	total time  =        291 seconds =       4.85 minutes
                                     G D M A

                                 by Anthony Stone

                           version 2.2.06, 22 June 2011

               Distributed Multipoles from Gaussian wavefunctions

Starting at 14:39:33 on 27 Apr 2020

Using SCF density matrix from file ./SSI/SSI-194PHE-233ALA-1-dimer.test.9382.fchk

                         Distributed Multipole Analysis

Standard DMA

Positions and radii in angstrom
Multipole moments in atomic units, ea_0^k for rank k

C          x =  1.462675  y = -0.954043  z =  0.363664 angstrom
           Maximum rank =  0   Radius =  0.650 angstrom
                   Q00  =  -0.038859

C          x =  1.995675  y = -2.286043  z = -0.136336 angstrom
           Maximum rank =  0   Radius =  0.650 angstrom
                   Q00  =  -0.221200

C          x =  0.240675  y = -0.494043  z = -0.372336 angstrom
           Maximum rank =  0   Radius =  0.650 angstrom
                   Q00  =  -0.107541

C          x = -1.023325  y = -0.784043  z =  0.133664 angstrom
           Maximum rank =  0   Radius =  0.650 angstrom
                   Q00  =  -0.086773

C          x =  0.355675  y =  0.222957  z = -1.554336 angstrom
           Maximum rank =  0   Radius =  0.650 angstrom
                   Q00  =  -0.001250

C          x = -2.153325  y = -0.357043  z = -0.544336 angstrom
           Maximum rank =  0   Radius =  0.650 angstrom
                   Q00  =  -0.061260

C          x = -0.770325  y =  0.655957  z = -2.239336 angstrom
           Maximum rank =  0   Radius =  0.650 angstrom
                   Q00  =  -0.068171

C          x = -2.031325  y =  0.363957  z = -1.732336 angstrom
           Maximum rank =  0   Radius =  0.650 angstrom
                   Q00  =  -0.089897

H          x =  1.222675  y = -1.062043  z =  1.421664 angstrom
           Maximum rank =  0   Radius =  0.325 angstrom
                   Q00  =   0.064181

H          x =  2.238675  y = -0.191043  z =  0.276664 angstrom
           Maximum rank =  0   Radius =  0.325 angstrom
                   Q00  =   0.063514

H          x =  1.232675  y = -3.050043  z =  0.022664 angstrom
           Maximum rank =  0   Radius =  0.325 angstrom
                   Q00  =   0.081472

H          x = -1.125325  y = -1.343043  z =  1.051664 angstrom
           Maximum rank =  0   Radius =  0.325 angstrom
                   Q00  =   0.057761

H          x =  1.331675  y =  0.457957  z = -1.953336 angstrom
           Maximum rank =  0   Radius =  0.325 angstrom
                   Q00  =   0.054167

H          x = -3.135325  y = -0.589043  z = -0.155336 angstrom
           Maximum rank =  0   Radius =  0.325 angstrom
                   Q00  =   0.064075

H          x = -0.672325  y =  1.213957  z = -3.160336 angstrom
           Maximum rank =  0   Radius =  0.325 angstrom
                   Q00  =   0.065393

H          x = -2.915325  y =  0.687957  z = -2.262336 angstrom
           Maximum rank =  0   Radius =  0.325 angstrom
                   Q00  =   0.061761

H          x =  2.902405  y = -2.552993  z =  0.426304 angstrom
           Maximum rank =  0   Radius =  0.325 angstrom
                   Q00  =   0.082152

H          x =  2.200345  y = -2.234153  z = -1.215886 angstrom
           Maximum rank =  0   Radius =  0.325 angstrom
                   Q00  =   0.082612

C          x =  0.196675  y =  1.242957  z =  2.957664 angstrom
           Maximum rank =  0   Radius =  0.650 angstrom
                   Q00  =  -0.232391

C          x =  1.121675  y =  2.240957  z =  2.273664 angstrom
           Maximum rank =  0   Radius =  0.650 angstrom
                   Q00  =  -0.241074

H          x = -0.176325  y =  1.645957  z =  3.899664 angstrom
           Maximum rank =  0   Radius =  0.325 angstrom
                   Q00  =   0.076304

H          x = -0.653325  y =  1.028957  z =  2.309664 angstrom
           Maximum rank =  0   Radius =  0.325 angstrom
                   Q00  =   0.088777

H          x =  0.727675  y =  0.314957  z =  3.162664 angstrom
           Maximum rank =  0   Radius =  0.325 angstrom
                   Q00  =   0.071217

H          x =  1.464675  y =  1.816957  z =  1.330664 angstrom
           Maximum rank =  0   Radius =  0.325 angstrom
                   Q00  =   0.082024

H          x =  1.988345  y =  2.452907  z =  2.917064 angstrom
           Maximum rank =  0   Radius =  0.325 angstrom
                   Q00  =   0.073045

H          x =  0.575375  y =  3.170027  z =  2.053694 angstrom
           Maximum rank =  0   Radius =  0.325 angstrom
                   Q00  =   0.079962

Total multipoles referred to origin at
           x =   0.000000,  y =    0.000000,  z =    0.000000 angstrom
                   Q00  =  -0.000000

Finished at 14:39:33 on 27 Apr 2020

  DMA results are available in the Python driver through the
	  variable('DMA DISTRIBUTED MULTIPOLES')
  and
	  variable('DMA TOTAL MULTIPOLES')
  commands.

    Psi4 stopped on: Monday, 27 April 2020 02:39PM
    Psi4 wall time for execution: 0:04:51.12

*** Psi4 exiting successfully. Buy a developer a beer!
