                               Psi4 1.3.2 release

  ==> Input File <==

--------------------------------------------------------------------------
import numpy as np
set {scf_type pk
basis cc-pvdz
d_convergence 10
gdma_switch   0
gdma_limit    0
gdma_origin   [ 0.0,  0.0,  0.0 ]
}
molecule test {
    units Angstrom
    0 1
    --
    0 1
    C               -2.635675659619338     1.569255627438871     0.012763086317413
    C                1.240324340380663     0.136255627438871    -1.201236913682587
    C                1.134324340380663     1.169255627438871    -0.294236913682587
    C                0.097324340380662    -0.395744372561129    -1.759236913682587
    C               -0.118675659619338     1.645255627438871     0.093763086317413
    C               -1.160675659619337     0.082255627438871    -1.374236913682587
    C               -1.278675659619337     1.104255627438871    -0.449236913682587
    H                2.211324340380663    -0.253744372561129    -1.473236913682587
    H                2.029324340380662     1.594255627438871     0.129763086317413
    H                0.200324340380663    -1.212744372561129    -2.449236913682587
    H               -0.181675659619337     2.441255627438871     0.821763086317413
    H               -2.047675659619337    -0.360744372561129    -1.800236913682587
    H               -2.538675659619337     1.947255627438871     1.032763086317413
    H               -3.311675659619338     0.713255627438871     0.051763086317413
    H               -3.084125659619338     2.357635627438871    -0.609606913682587
    C                0.886324340380662    -2.523744372561129     1.522763086317413
    C                1.742324340380663    -2.205744372561128     2.735763086317413
    H                0.637324340380663    -1.598744372561129     1.004763086317413
    H                1.428324340380663    -3.173744372561129     0.837763086317413
    H               -0.040675659619337    -3.003744372561129     1.832763086317413
    H                1.170324340380663    -1.574744372561129     3.407763086317413
    H                1.986603340380662    -3.136742372561129     3.268273086317413
    H                2.649253340380663    -1.660152372561129     2.436083086317413

}
e, wfn = energy('scf', return_wfn=True)
gdma(wfn)
dmavals = variable('DMA DISTRIBUTED MULTIPOLES')
charges = np.array(dmavals)
print(charges)
np.save('SSI-035PHE-097LEU-1-dimer.npy', np.array(charges))--------------------------------------------------------------------------

*** tstart() called on ds3
*** at Mon Apr 27 12:57:59 2020

   => Loading Basis Set <=

    Name: CC-PVDZ
    Role: ORBITAL
    Keyword: BASIS
    atoms 1-7, 16-17  entry C          line   138 file /theoryfs2/ds/metcalf/miniconda2/envs/tf2gpu/share/psi4/basis/cc-pvdz.gbs
    atoms 8-15, 18-23 entry H          line    22 file /theoryfs2/ds/metcalf/miniconda2/envs/tf2gpu/share/psi4/basis/cc-pvdz.gbs

         ---------------------------------------------------------
                                   SCF
               by Justin Turney, Rob Parrish, Andy Simmonett
                          and Daniel G. A. Smith
                              RHF Reference
                        1 Threads,    500 MiB Core
         ---------------------------------------------------------

  ==> Geometry <==

    Molecular point group: c1
    Full point group: C1

    Geometry (in Angstrom), charge = 0, multiplicity = 1:

       Center              X                  Y                   Z               Mass
    ------------   -----------------  -----------------  -----------------  -----------------
         C           -2.635675659619     1.569255627439     0.012763086317    12.000000000000
         C            1.240324340381     0.136255627439    -1.201236913683    12.000000000000
         C            1.134324340381     1.169255627439    -0.294236913683    12.000000000000
         C            0.097324340381    -0.395744372561    -1.759236913683    12.000000000000
         C           -0.118675659619     1.645255627439     0.093763086317    12.000000000000
         C           -1.160675659619     0.082255627439    -1.374236913683    12.000000000000
         C           -1.278675659619     1.104255627439    -0.449236913683    12.000000000000
         H            2.211324340381    -0.253744372561    -1.473236913683     1.007825032230
         H            2.029324340381     1.594255627439     0.129763086317     1.007825032230
         H            0.200324340381    -1.212744372561    -2.449236913683     1.007825032230
         H           -0.181675659619     2.441255627439     0.821763086317     1.007825032230
         H           -2.047675659619    -0.360744372561    -1.800236913683     1.007825032230
         H           -2.538675659619     1.947255627439     1.032763086317     1.007825032230
         H           -3.311675659619     0.713255627439     0.051763086317     1.007825032230
         H           -3.084125659619     2.357635627439    -0.609606913683     1.007825032230
         C            0.886324340381    -2.523744372561     1.522763086317    12.000000000000
         C            1.742324340381    -2.205744372561     2.735763086317    12.000000000000
         H            0.637324340381    -1.598744372561     1.004763086317     1.007825032230
         H            1.428324340381    -3.173744372561     0.837763086317     1.007825032230
         H           -0.040675659619    -3.003744372561     1.832763086317     1.007825032230
         H            1.170324340381    -1.574744372561     3.407763086317     1.007825032230
         H            1.986603340381    -3.136742372561     3.268273086317     1.007825032230
         H            2.649253340381    -1.660152372561     2.436083086317     1.007825032230

  Running in c1 symmetry.

  Rotational constants: A =      0.06528  B =      0.02675  C =      0.02457 [cm^-1]
  Rotational constants: A =   1956.96201  B =    801.80693  C =    736.44040 [MHz]
  Nuclear repulsion =  411.581202312085168

  Charge       = 0
  Multiplicity = 1
  Electrons    = 68
  Nalpha       = 34
  Nbeta        = 34

  ==> Algorithm <==

  SCF Algorithm Type is PK.
  DIIS enabled.
  MOM disabled.
  Fractional occupation disabled.
  Guess Type is SAD.
  Energy threshold   = 1.00e-06
  Density threshold  = 1.00e-10
  Integral threshold = 0.00e+00

  ==> Primary Basis <==

  Basis Set: CC-PVDZ
    Blend: CC-PVDZ
    Number of shells: 96
    Number of basis function: 196
    Number of Cartesian functions: 205
    Spherical Harmonics?: true
    Max angular momentum: 2

  ==> Pre-Iterations <==

   -------------------------------------------------------
    Irrep   Nso     Nmo     Nalpha   Nbeta   Ndocc  Nsocc
   -------------------------------------------------------
     A        196     196       0       0       0       0
   -------------------------------------------------------
    Total     196     196      34      34      34       0
   -------------------------------------------------------

  ==> Integral Setup <==

  Using integral reordering PK algorithm.
  Sizing the integral batches needed.
  Building batch lookup table.
   Calculation information:
      Number of atoms:                  23
      Number of AO shells:              96
      Number of primitives:            268
      Number of atomic orbitals:       205
      Number of basis functions:       196

      Integral cutoff                 1.00e-12
      Number of threads:                 1

	Batch   1 pq = [       0,    9405] index = [             0,44231715] size =     44231715
	Batch   2 pq = [    9405,   13301] index = [      44231715,88464951] size =     44233236
	Batch   3 pq = [   13301,   16290] index = [      88464951,132690195] size =     44225244
	Batch   4 pq = [   16290,   18810] index = [     132690195,176917455] size =     44227260
	Batch   5 pq = [   18810,   19306] index = [     176917455,186370471] size =      9453016
  Task number: 17
  Buffer size: 11059200
  Buffer per thread: 2
  We computed 9838469 shell quartets total.
  Whereas there are 10841496 unique shell quartets.

  ==> DiskJK: Disk-Based J/K Matrices <==

    J tasked:                  Yes
    K tasked:                  Yes
    wK tasked:                  No
    Memory [MiB]:              375
    Schwarz Cutoff:          1E-12

    OpenMP threads:              1

  Minimum eigenvalue in the overlap matrix is 3.0381892597E-04.
  Using Symmetric Orthogonalization.

  SCF Guess: Superposition of Atomic Densities via on-the-fly atomic UHF.

  ==> Iterations <==

                        Total Energy        Delta E     RMS |[F,P]|

   @RHF iter SAD:  -347.93861686097875   -3.47939e+02   0.00000e+00
   @RHF iter   1:  -348.76533891564753   -8.26722e-01   2.91596e-03 DIIS
   @RHF iter   2:  -348.95941672108529   -1.94078e-01   1.21418e-03 DIIS
   @RHF iter   3:  -348.99013019519373   -3.07135e-02   2.58174e-04 DIIS
   @RHF iter   4:  -348.99259604036786   -2.46585e-03   5.12582e-05 DIIS
   @RHF iter   5:  -348.99266621043557   -7.01701e-05   1.70689e-05 DIIS
   @RHF iter   6:  -348.99267335033744   -7.13990e-06   4.66417e-06 DIIS
   @RHF iter   7:  -348.99267394952869   -5.99191e-07   1.24383e-06 DIIS
   @RHF iter   8:  -348.99267399387145   -4.43428e-08   2.58057e-07 DIIS
   @RHF iter   9:  -348.99267399694776   -3.07631e-09   9.68901e-08 DIIS
   @RHF iter  10:  -348.99267399735373   -4.05976e-10   3.69231e-08 DIIS
   @RHF iter  11:  -348.99267399745963   -1.05899e-10   1.48340e-08 DIIS
   @RHF iter  12:  -348.99267399747902   -1.93836e-11   8.22241e-09 DIIS
   @RHF iter  13:  -348.99267399748589   -6.87805e-12   3.57054e-09 DIIS
   @RHF iter  14:  -348.99267399748629   -3.97904e-13   9.69084e-10 DIIS
   @RHF iter  15:  -348.99267399748726   -9.66338e-13   3.33041e-10 DIIS
   @RHF iter  16:  -348.99267399748328    3.97904e-12   8.17386e-11 DIIS
  Energy and wave function converged.

  ==> Post-Iterations <==

    Orbital Energies [Eh]
    ---------------------

    Doubly Occupied:

       1A    -11.240192     2A    -11.233984     3A    -11.233860
       4A    -11.231209     5A    -11.230556     6A    -11.230494
       7A    -11.228344     8A    -11.211459     9A    -11.204975
      10A     -1.156488    11A     -1.048369    12A     -1.013158
      13A     -1.010720    14A     -0.933484    15A     -0.829117
      16A     -0.827620    17A     -0.794864    18A     -0.693581
      19A     -0.633748    20A     -0.630311    21A     -0.593189
      22A     -0.591258    23A     -0.580907    24A     -0.577508
      25A     -0.565582    26A     -0.534989    27A     -0.497036
      28A     -0.490743    29A     -0.485557    30A     -0.482471
      31A     -0.478238    32A     -0.470827    33A     -0.331260
      34A     -0.326505

    Virtual:

      35A      0.134669    36A      0.142549    37A      0.176178
      38A      0.195382    39A      0.206701    40A      0.215418
      41A      0.240856    42A      0.244525    43A      0.258403
      44A      0.262059    45A      0.265836    46A      0.271790
      47A      0.283337    48A      0.286605    49A      0.296652
      50A      0.308174    51A      0.367484    52A      0.375131
      53A      0.404806    54A      0.453972    55A      0.466152
      56A      0.479320    57A      0.490668    58A      0.563096
      59A      0.586419    60A      0.598133    61A      0.601790
      62A      0.615343    63A      0.638281    64A      0.666590
      65A      0.671866    66A      0.687950    67A      0.691627
      68A      0.700655    69A      0.738499    70A      0.741276
      71A      0.748992    72A      0.753410    73A      0.758260
      74A      0.779216    75A      0.780844    76A      0.835091
      77A      0.838821    78A      0.851205    79A      0.861071
      80A      0.870759    81A      0.874111    82A      0.879270
      83A      0.894538    84A      0.897863    85A      0.899769
      86A      0.903193    87A      0.915254    88A      0.924338
      89A      0.925991    90A      0.932255    91A      0.938677
      92A      0.954970    93A      0.984025    94A      0.997477
      95A      1.039621    96A      1.096097    97A      1.122241
      98A      1.131995    99A      1.134226   100A      1.144832
     101A      1.160469   102A      1.164145   103A      1.184040
     104A      1.234536   105A      1.241174   106A      1.253636
     107A      1.264935   108A      1.297389   109A      1.305129
     110A      1.311540   111A      1.324725   112A      1.331542
     113A      1.415576   114A      1.485396   115A      1.491330
     116A      1.514116   117A      1.517927   118A      1.546578
     119A      1.579436   120A      1.596056   121A      1.671776
     122A      1.687011   123A      1.698150   124A      1.707987
     125A      1.728732   126A      1.752955   127A      1.775395
     128A      1.792275   129A      1.827702   130A      1.858156
     131A      1.868284   132A      1.874367   133A      1.893000
     134A      1.895227   135A      1.909678   136A      1.912800
     137A      1.920416   138A      1.936752   139A      1.948007
     140A      1.955083   141A      1.956771   142A      1.961281
     143A      1.962854   144A      1.971047   145A      1.974998
     146A      1.984124   147A      1.990565   148A      1.994509
     149A      2.039466   150A      2.065585   151A      2.071233
     152A      2.106381   153A      2.113599   154A      2.127061
     155A      2.148974   156A      2.156748   157A      2.177092
     158A      2.182346   159A      2.188405   160A      2.260150
     161A      2.280855   162A      2.298372   163A      2.299349
     164A      2.306067   165A      2.312859   166A      2.324768
     167A      2.329276   168A      2.461251   169A      2.468171
     170A      2.481406   171A      2.484443   172A      2.497265
     173A      2.546155   174A      2.575046   175A      2.586975
     176A      2.623567   177A      2.746007   178A      2.759197
     179A      2.765287   180A      2.772786   181A      2.784686
     182A      2.811898   183A      2.820034   184A      2.855572
     185A      2.865886   186A      2.867133   187A      2.870989
     188A      2.960766   189A      2.987780   190A      2.996058
     191A      3.019006   192A      3.038997   193A      3.163250
     194A      3.206058   195A      3.312435   196A      3.982770

    Final Occupation by Irrep:
              A
    DOCC [    34 ]

  @RHF Final Energy:  -348.99267399748328

   => Energetics <=

    Nuclear Repulsion Energy =            411.5812023120851677
    One-Electron Energy =               -1285.9025437532527576
    Two-Electron Energy =                 525.3286674436842532
    Total Energy =                       -348.9926739974832799

Computation Completed

Properties will be evaluated at   0.000000,   0.000000,   0.000000 [a0]

Properties computed using the SCF density matrix

  Nuclear Dipole Moment: [e a0]
     X:     1.0390      Y:    -6.4886      Z:     7.9602

  Electronic Dipole Moment: [e a0]
     X:    -1.1932      Y:     6.5675      Z:    -7.9607

  Dipole Moment: [e a0]
     X:    -0.1542      Y:     0.0789      Z:    -0.0005     Total:     0.1732

  Dipole Moment: [D]
     X:    -0.3920      Y:     0.2005      Z:    -0.0013     Total:     0.4403

*** tstop() called on ds3 at Mon Apr 27 13:00:02 2020
Module time:
	user time   =      94.10 seconds =       1.57 minutes
	system time =      33.87 seconds =       0.56 minutes
	total time  =        123 seconds =       2.05 minutes
Total time:
	user time   =      94.10 seconds =       1.57 minutes
	system time =      33.87 seconds =       0.56 minutes
	total time  =        123 seconds =       2.05 minutes
                                     G D M A

                                 by Anthony Stone

                           version 2.2.06, 22 June 2011

               Distributed Multipoles from Gaussian wavefunctions

Starting at 13:0:2 on 27 Apr 2020

Using SCF density matrix from file ./SSI/SSI-035PHE-097LEU-1-dimer.test.4798.fchk

                         Distributed Multipole Analysis

Standard DMA

Positions and radii in angstrom
Multipole moments in atomic units, ea_0^k for rank k

C          x = -2.635676  y =  1.569256  z =  0.012763 angstrom
           Maximum rank =  0   Radius =  0.650 angstrom
                   Q00  =  -0.206563

C          x =  1.240324  y =  0.136256  z = -1.201237 angstrom
           Maximum rank =  0   Radius =  0.650 angstrom
                   Q00  =  -0.075717

C          x =  1.134324  y =  1.169256  z = -0.294237 angstrom
           Maximum rank =  0   Radius =  0.650 angstrom
                   Q00  =  -0.022470

C          x =  0.097324  y = -0.395744  z = -1.759237 angstrom
           Maximum rank =  0   Radius =  0.650 angstrom
                   Q00  =  -0.075628

C          x = -0.118676  y =  1.645256  z =  0.093763 angstrom
           Maximum rank =  0   Radius =  0.650 angstrom
                   Q00  =  -0.091711

C          x = -1.160676  y =  0.082256  z = -1.374237 angstrom
           Maximum rank =  0   Radius =  0.650 angstrom
                   Q00  =  -0.028499

C          x = -1.278676  y =  1.104256  z = -0.449237 angstrom
           Maximum rank =  0   Radius =  0.650 angstrom
                   Q00  =  -0.097271

H          x =  2.211324  y = -0.253744  z = -1.473237 angstrom
           Maximum rank =  0   Radius =  0.325 angstrom
                   Q00  =   0.059866

H          x =  2.029324  y =  1.594256  z =  0.129763 angstrom
           Maximum rank =  0   Radius =  0.325 angstrom
                   Q00  =   0.062673

H          x =  0.200324  y = -1.212744  z = -2.449237 angstrom
           Maximum rank =  0   Radius =  0.325 angstrom
                   Q00  =   0.064055

H          x = -0.181676  y =  2.441256  z =  0.821763 angstrom
           Maximum rank =  0   Radius =  0.325 angstrom
                   Q00  =   0.057830

H          x = -2.047676  y = -0.360744  z = -1.800237 angstrom
           Maximum rank =  0   Radius =  0.325 angstrom
                   Q00  =   0.056283

H          x = -2.538676  y =  1.947256  z =  1.032763 angstrom
           Maximum rank =  0   Radius =  0.325 angstrom
                   Q00  =   0.096761

H          x = -3.311676  y =  0.713256  z =  0.051763 angstrom
           Maximum rank =  0   Radius =  0.325 angstrom
                   Q00  =   0.099215

H          x = -3.084126  y =  2.357636  z = -0.609607 angstrom
           Maximum rank =  0   Radius =  0.325 angstrom
                   Q00  =   0.106412

C          x =  0.886324  y = -2.523744  z =  1.522763 angstrom
           Maximum rank =  0   Radius =  0.650 angstrom
                   Q00  =  -0.224532

C          x =  1.742324  y = -2.205744  z =  2.735763 angstrom
           Maximum rank =  0   Radius =  0.650 angstrom
                   Q00  =  -0.243367

H          x =  0.637324  y = -1.598744  z =  1.004763 angstrom
           Maximum rank =  0   Radius =  0.325 angstrom
                   Q00  =   0.093866

H          x =  1.428324  y = -3.173744  z =  0.837763 angstrom
           Maximum rank =  0   Radius =  0.325 angstrom
                   Q00  =   0.071249

H          x = -0.040676  y = -3.003744  z =  1.832763 angstrom
           Maximum rank =  0   Radius =  0.325 angstrom
                   Q00  =   0.073466

H          x =  1.170324  y = -1.574744  z =  3.407763 angstrom
           Maximum rank =  0   Radius =  0.325 angstrom
                   Q00  =   0.076033

H          x =  1.986603  y = -3.136742  z =  3.268273 angstrom
           Maximum rank =  0   Radius =  0.325 angstrom
                   Q00  =   0.072799

H          x =  2.649253  y = -1.660152  z =  2.436083 angstrom
           Maximum rank =  0   Radius =  0.325 angstrom
                   Q00  =   0.075250

Total multipoles referred to origin at
           x =   0.000000,  y =    0.000000,  z =    0.000000 angstrom
                   Q00  =  -0.000000

Finished at 13:0:2 on 27 Apr 2020

  DMA results are available in the Python driver through the
	  variable('DMA DISTRIBUTED MULTIPOLES')
  and
	  variable('DMA TOTAL MULTIPOLES')
  commands.

    Psi4 stopped on: Monday, 27 April 2020 01:00PM
    Psi4 wall time for execution: 0:02:03.40

*** Psi4 exiting successfully. Buy a developer a beer!
