                               Psi4 1.3.2 release

  ==> Input File <==

--------------------------------------------------------------------------
import numpy as np
set {scf_type pk
basis cc-pvdz
d_convergence 10
gdma_switch   0
gdma_limit    0
gdma_origin   [ 0.0,  0.0,  0.0 ]
}
molecule test {
    units Angstrom
    0 1
    --
    0 1
    C                2.779668203189829     0.531449530750062     0.614403784309837
    C                0.178668203189829     0.639449530750062     0.411403784309837
    C                1.405668203189829     0.671449530750062     1.156403784309837
    C               -0.879331796810171     0.771449530750062     1.341403784309837
    C                1.072668203189829     0.821449530750062     2.445403784309837
    C               -0.127331796810171     0.514449530750062    -0.947596215690163
    C               -1.491331796810171     0.504449530750062    -1.344596215690163
    C               -2.510331796810171     0.645449530750062    -0.383596215690163
    C               -2.222331796810171     0.793449530750062     0.965403784309837
    N               -0.296331796810171     0.870449530750062     2.568403784309837
    H                0.655668203189829     0.378449530750062    -1.677596215690163
    H               -1.755331796810171     0.384449530750062    -2.386596215690163
    H               -3.535331796810171     0.661449530750062    -0.717596215690163
    H                3.516668203189829     0.839449530750062     1.358403784309837
    H                2.884668203189829     1.197449530750062    -0.232596215690163
    H                1.778668203189829     0.870449530750062     3.267403784309837
    H               -0.795331796810171     0.964449530750062     3.449403784309837
    H               -2.995331796810171     0.912449530750062     1.705403784309837
    H                2.959138203189829    -0.505250469249938     0.293403784309837
    C                0.661668203189829    -2.828550469249938    -2.314596215690162
    C                0.872668203189829    -3.065550469249938    -3.817596215690163
    H                1.586668203189829    -2.505550469249938    -1.853596215690163
    H               -0.111331796810171    -2.075550469249938    -2.166596215690163
    H                0.350668203189829    -3.763550469249938    -1.859596215690163
    H               -0.096331796810171    -3.360550469249938    -4.223596215690162
    H                1.567288203189829    -3.906260469249938    -3.961536215690163
    H                1.198498203189829    -2.173650469249938    -4.372876215690162

}
e, wfn = energy('scf', return_wfn=True)
gdma(wfn)
dmavals = variable('DMA DISTRIBUTED MULTIPOLES')
charges = np.array(dmavals)
print(charges)
np.save('SSI-225TRP-228VAL-1-dimer.npy', np.array(charges))--------------------------------------------------------------------------

*** tstart() called on ds3
*** at Tue Apr 28 08:11:29 2020

   => Loading Basis Set <=

    Name: CC-PVDZ
    Role: ORBITAL
    Keyword: BASIS
    atoms 1-9, 20-21   entry C          line   138 file /theoryfs2/ds/metcalf/miniconda2/envs/tf2gpu/share/psi4/basis/cc-pvdz.gbs
    atoms 10           entry N          line   168 file /theoryfs2/ds/metcalf/miniconda2/envs/tf2gpu/share/psi4/basis/cc-pvdz.gbs
    atoms 11-19, 22-27 entry H          line    22 file /theoryfs2/ds/metcalf/miniconda2/envs/tf2gpu/share/psi4/basis/cc-pvdz.gbs

         ---------------------------------------------------------
                                   SCF
               by Justin Turney, Rob Parrish, Andy Simmonett
                          and Daniel G. A. Smith
                              RHF Reference
                        1 Threads,    500 MiB Core
         ---------------------------------------------------------

  ==> Geometry <==

    Molecular point group: c1
    Full point group: C1

    Geometry (in Angstrom), charge = 0, multiplicity = 1:

       Center              X                  Y                   Z               Mass
    ------------   -----------------  -----------------  -----------------  -----------------
         C            2.779668203190     0.531449530750     0.614403784310    12.000000000000
         C            0.178668203190     0.639449530750     0.411403784310    12.000000000000
         C            1.405668203190     0.671449530750     1.156403784310    12.000000000000
         C           -0.879331796810     0.771449530750     1.341403784310    12.000000000000
         C            1.072668203190     0.821449530750     2.445403784310    12.000000000000
         C           -0.127331796810     0.514449530750    -0.947596215690    12.000000000000
         C           -1.491331796810     0.504449530750    -1.344596215690    12.000000000000
         C           -2.510331796810     0.645449530750    -0.383596215690    12.000000000000
         C           -2.222331796810     0.793449530750     0.965403784310    12.000000000000
         N           -0.296331796810     0.870449530750     2.568403784310    14.003074004430
         H            0.655668203190     0.378449530750    -1.677596215690     1.007825032230
         H           -1.755331796810     0.384449530750    -2.386596215690     1.007825032230
         H           -3.535331796810     0.661449530750    -0.717596215690     1.007825032230
         H            3.516668203190     0.839449530750     1.358403784310     1.007825032230
         H            2.884668203190     1.197449530750    -0.232596215690     1.007825032230
         H            1.778668203190     0.870449530750     3.267403784310     1.007825032230
         H           -0.795331796810     0.964449530750     3.449403784310     1.007825032230
         H           -2.995331796810     0.912449530750     1.705403784310     1.007825032230
         H            2.959138203190    -0.505250469250     0.293403784310     1.007825032230
         C            0.661668203190    -2.828550469250    -2.314596215690    12.000000000000
         C            0.872668203190    -3.065550469250    -3.817596215690    12.000000000000
         H            1.586668203190    -2.505550469250    -1.853596215690     1.007825032230
         H           -0.111331796810    -2.075550469250    -2.166596215690     1.007825032230
         H            0.350668203190    -3.763550469250    -1.859596215690     1.007825032230
         H           -0.096331796810    -3.360550469250    -4.223596215690     1.007825032230
         H            1.567288203190    -3.906260469250    -3.961536215690     1.007825032230
         H            1.198498203190    -2.173650469250    -4.372876215690     1.007825032230

  Running in c1 symmetry.

  Rotational constants: A =      0.03694  B =      0.01843  C =      0.01358 [cm^-1]
  Rotational constants: A =   1107.42698  B =    552.50012  C =    407.05987 [MHz]
  Nuclear repulsion =  649.689921387152253

  Charge       = 0
  Multiplicity = 1
  Electrons    = 88
  Nalpha       = 44
  Nbeta        = 44

  ==> Algorithm <==

  SCF Algorithm Type is PK.
  DIIS enabled.
  MOM disabled.
  Fractional occupation disabled.
  Guess Type is SAD.
  Energy threshold   = 1.00e-06
  Density threshold  = 1.00e-10
  Integral threshold = 0.00e+00

  ==> Primary Basis <==

  Basis Set: CC-PVDZ
    Blend: CC-PVDZ
    Number of shells: 117
    Number of basis function: 243
    Number of Cartesian functions: 255
    Spherical Harmonics?: true
    Max angular momentum: 2

  ==> Pre-Iterations <==

   -------------------------------------------------------
    Irrep   Nso     Nmo     Nalpha   Nbeta   Ndocc  Nsocc
   -------------------------------------------------------
     A        243     243       0       0       0       0
   -------------------------------------------------------
    Total     243     243      44      44      44       0
   -------------------------------------------------------

  ==> Integral Setup <==

  Using integral reordering PK algorithm.
  Sizing the integral batches needed.
  Building batch lookup table.
   Calculation information:
      Number of atoms:                  27
      Number of AO shells:             117
      Number of primitives:            339
      Number of atomic orbitals:       255
      Number of basis functions:       243

      Integral cutoff                 1.00e-12
      Number of threads:                 1

	Batch   1 pq = [       0,    9405] index = [             0,44231715] size =     44231715
	Batch   2 pq = [    9405,   13301] index = [      44231715,88464951] size =     44233236
	Batch   3 pq = [   13301,   16290] index = [      88464951,132690195] size =     44225244
	Batch   4 pq = [   16290,   18810] index = [     132690195,176917455] size =     44227260
	Batch   5 pq = [   18810,   21030] index = [     176917455,221140965] size =     44223510
	Batch   6 pq = [   21030,   23037] index = [     221140965,265363203] size =     44222238
	Batch   7 pq = [   23037,   24883] index = [     265363203,309594286] size =     44231083
	Batch   8 pq = [   24883,   26601] index = [     309594286,353819901] size =     44225615
	Batch   9 pq = [   26601,   28214] index = [     353819901,398029005] size =     44209104
	Batch  10 pq = [   28214,   29646] index = [     398029005,439457481] size =     41428476
  Task number: 40
  Buffer size: 11059200
  Buffer per thread: 2
  We computed 21376258 shell quartets total.
  Whereas there are 23829156 unique shell quartets.

  ==> DiskJK: Disk-Based J/K Matrices <==

    J tasked:                  Yes
    K tasked:                  Yes
    wK tasked:                  No
    Memory [MiB]:              375
    Schwarz Cutoff:          1E-12

    OpenMP threads:              1

  Minimum eigenvalue in the overlap matrix is 2.4294728223E-04.
  Using Symmetric Orthogonalization.

  SCF Guess: Superposition of Atomic Densities via on-the-fly atomic UHF.

  ==> Iterations <==

                        Total Energy        Delta E     RMS |[F,P]|

   @RHF iter SAD:  -479.05292387910276   -4.79053e+02   0.00000e+00
   @RHF iter   1:  -479.48872505848948   -4.35801e-01   2.60134e-03 DIIS
   @RHF iter   2:  -479.72105116437211   -2.32326e-01   1.14179e-03 DIIS
   @RHF iter   3:  -479.76178694523622   -4.07358e-02   2.97551e-04 DIIS
   @RHF iter   4:  -479.76547929791610   -3.69235e-03   1.36940e-04 DIIS
   @RHF iter   5:  -479.76610358812820   -6.24290e-04   1.99472e-05 DIIS
   @RHF iter   6:  -479.76613352465534   -2.99365e-05   9.27603e-06 DIIS
   @RHF iter   7:  -479.76613998094456   -6.45629e-06   4.03808e-06 DIIS
   @RHF iter   8:  -479.76614205678254   -2.07584e-06   1.63900e-06 DIIS
   @RHF iter   9:  -479.76614248567989   -4.28897e-07   7.17824e-07 DIIS
   @RHF iter  10:  -479.76614256928093   -8.36010e-08   3.26316e-07 DIIS
   @RHF iter  11:  -479.76614258724481   -1.79639e-08   1.15573e-07 DIIS
   @RHF iter  12:  -479.76614258927737   -2.03255e-09   3.54602e-08 DIIS
   @RHF iter  13:  -479.76614258940697   -1.29603e-10   1.14226e-08 DIIS
   @RHF iter  14:  -479.76614258942038   -1.34150e-11   5.43488e-09 DIIS
   @RHF iter  15:  -479.76614258942254   -2.16005e-12   2.49055e-09 DIIS
   @RHF iter  16:  -479.76614258942260   -5.68434e-14   1.09171e-09 DIIS
   @RHF iter  17:  -479.76614258942442   -1.81899e-12   3.59734e-10 DIIS
   @RHF iter  18:  -479.76614258942936   -4.94538e-12   1.45133e-10 DIIS
   @RHF iter  19:  -479.76614258942533    4.03588e-12   5.82407e-11 DIIS
  Energy and wave function converged.

  ==> Post-Iterations <==

    Orbital Energies [Eh]
    ---------------------

    Doubly Occupied:

       1A    -15.598707     2A    -11.264080     3A    -11.259905
       4A    -11.234830     5A    -11.231469     6A    -11.229629
       7A    -11.224613     8A    -11.224488     9A    -11.219093
      10A    -11.214250    11A    -11.213359    12A    -11.207579
      13A     -1.298044    14A     -1.124105    15A     -1.077819
      16A     -1.010739    17A     -0.994220    18A     -0.988485
      19A     -0.933377    20A     -0.841391    21A     -0.830816
      22A     -0.802066    23A     -0.752049    24A     -0.718192
      25A     -0.665752    26A     -0.641601    27A     -0.602182
      28A     -0.596163    29A     -0.594116    30A     -0.589932
      31A     -0.587421    32A     -0.568432    33A     -0.554391
      34A     -0.537337    35A     -0.527637    36A     -0.497758
      37A     -0.492581    38A     -0.483346    39A     -0.477173
      40A     -0.471031    41A     -0.457071    42A     -0.372734
      43A     -0.292917    44A     -0.277122

    Virtual:

      45A      0.125358    46A      0.165409    47A      0.170358
      48A      0.181339    49A      0.195491    50A      0.208969
      51A      0.216446    52A      0.232461    53A      0.238054
      54A      0.244743    55A      0.261174    56A      0.262404
      57A      0.265981    58A      0.274652    59A      0.282831
      60A      0.308880    61A      0.321167    62A      0.343823
      63A      0.375690    64A      0.383895    65A      0.398575
      66A      0.408554    67A      0.420488    68A      0.445516
      69A      0.471895    70A      0.480810    71A      0.500028
      72A      0.509442    73A      0.594460    74A      0.604188
      75A      0.605958    76A      0.616557    77A      0.616976
      78A      0.630079    79A      0.642076    80A      0.662159
      81A      0.677199    82A      0.685905    83A      0.700200
      84A      0.704973    85A      0.720863    86A      0.731207
      87A      0.738072    88A      0.740740    89A      0.745848
      90A      0.762546    91A      0.773681    92A      0.785161
      93A      0.788311    94A      0.793968    95A      0.815929
      96A      0.834920    97A      0.857432    98A      0.870006
      99A      0.876438   100A      0.885569   101A      0.888830
     102A      0.895877   103A      0.898160   104A      0.900037
     105A      0.906072   106A      0.911653   107A      0.925259
     108A      0.930229   109A      0.944489   110A      0.958120
     111A      0.967939   112A      0.978398   113A      0.987988
     114A      1.000806   115A      1.017135   116A      1.035475
     117A      1.068936   118A      1.073112   119A      1.092445
     120A      1.118055   121A      1.126950   122A      1.129147
     123A      1.140806   124A      1.150874   125A      1.154160
     126A      1.183069   127A      1.210954   128A      1.234042
     129A      1.236777   130A      1.239376   131A      1.248274
     132A      1.270465   133A      1.282145   134A      1.291316
     135A      1.309509   136A      1.327956   137A      1.331178
     138A      1.363028   139A      1.371606   140A      1.400782
     141A      1.441399   142A      1.471315   143A      1.491380
     144A      1.524304   145A      1.567919   146A      1.577700
     147A      1.592059   148A      1.603552   149A      1.631369
     150A      1.644079   151A      1.649800   152A      1.682488
     153A      1.689231   154A      1.692341   155A      1.716121
     156A      1.740224   157A      1.764285   158A      1.779256
     159A      1.787355   160A      1.809330   161A      1.824925
     162A      1.835186   163A      1.864996   164A      1.875530
     165A      1.882693   166A      1.888202   167A      1.893750
     168A      1.905657   169A      1.915012   170A      1.921844
     171A      1.933100   172A      1.942562   173A      1.949101
     174A      1.959092   175A      1.963339   176A      1.966248
     177A      1.976014   178A      1.984857   179A      1.988798
     180A      1.999509   181A      2.006614   182A      2.023398
     183A      2.046019   184A      2.073590   185A      2.085485
     186A      2.093615   187A      2.099136   188A      2.100442
     189A      2.115964   190A      2.125183   191A      2.138199
     192A      2.148383   193A      2.158596   194A      2.162568
     195A      2.176852   196A      2.226932   197A      2.244608
     198A      2.293484   199A      2.299216   200A      2.307954
     201A      2.318010   202A      2.326904   203A      2.334524
     204A      2.350241   205A      2.396161   206A      2.431058
     207A      2.449413   208A      2.460460   209A      2.462906
     210A      2.488923   211A      2.536392   212A      2.565747
     213A      2.587537   214A      2.593807   215A      2.605617
     216A      2.648140   217A      2.662305   218A      2.681721
     219A      2.712109   220A      2.761833   221A      2.769210
     222A      2.784626   223A      2.791412   224A      2.797612
     225A      2.810290   226A      2.828153   227A      2.848327
     228A      2.873158   229A      2.876388   230A      2.890918
     231A      2.909211   232A      2.956140   233A      2.975877
     234A      2.991676   235A      3.033170   236A      3.046740
     237A      3.080104   238A      3.118395   239A      3.200672
     240A      3.308170   241A      3.394755   242A      3.746692
     243A      3.933631

    Final Occupation by Irrep:
              A
    DOCC [    44 ]

  @RHF Final Energy:  -479.76614258942533

   => Energetics <=

    Nuclear Repulsion Energy =            649.6899213871522534
    One-Electron Energy =               -1937.3521272165098708
    Two-Electron Energy =                 807.8960632399323458
    Total Energy =                       -479.7661425894252716

Computation Completed

Properties will be evaluated at   0.000000,   0.000000,   0.000000 [a0]

Properties computed using the SCF density matrix

  Nuclear Dipole Moment: [e a0]
     X:     6.7590      Y:   -11.3288      Z:   -12.5491

  Electronic Dipole Moment: [e a0]
     X:    -6.7314      Y:    11.4238      Z:    13.4113

  Dipole Moment: [e a0]
     X:     0.0277      Y:     0.0950      Z:     0.8623     Total:     0.8679

  Dipole Moment: [D]
     X:     0.0703      Y:     0.2416      Z:     2.1916     Total:     2.2060

*** tstop() called on ds3 at Tue Apr 28 08:18:28 2020
Module time:
	user time   =     169.36 seconds =       2.82 minutes
	system time =      68.98 seconds =       1.15 minutes
	total time  =        419 seconds =       6.98 minutes
Total time:
	user time   =     169.36 seconds =       2.82 minutes
	system time =      68.98 seconds =       1.15 minutes
	total time  =        419 seconds =       6.98 minutes
                                     G D M A

                                 by Anthony Stone

                           version 2.2.06, 22 June 2011

               Distributed Multipoles from Gaussian wavefunctions

Starting at 8:18:28 on 28 Apr 2020

Using SCF density matrix from file ./SSI/SSI-225TRP-228VAL-1-dimer.test.10297.fchk

                         Distributed Multipole Analysis

Standard DMA

Positions and radii in angstrom
Multipole moments in atomic units, ea_0^k for rank k

C          x =  2.779668  y =  0.531450  z =  0.614404 angstrom
           Maximum rank =  0   Radius =  0.650 angstrom
                   Q00  =  -0.206890

C          x =  0.178668  y =  0.639450  z =  0.411404 angstrom
           Maximum rank =  0   Radius =  0.650 angstrom
                   Q00  =  -0.057357

C          x =  1.405668  y =  0.671450  z =  1.156404 angstrom
           Maximum rank =  0   Radius =  0.650 angstrom
                   Q00  =  -0.115271

C          x = -0.879332  y =  0.771450  z =  1.341404 angstrom
           Maximum rank =  0   Radius =  0.650 angstrom
                   Q00  =   0.278981

C          x =  1.072668  y =  0.821450  z =  2.445404 angstrom
           Maximum rank =  0   Radius =  0.650 angstrom
                   Q00  =   0.073987

C          x = -0.127332  y =  0.514450  z = -0.947596 angstrom
           Maximum rank =  0   Radius =  0.650 angstrom
                   Q00  =  -0.098681

C          x = -1.491332  y =  0.504450  z = -1.344596 angstrom
           Maximum rank =  0   Radius =  0.650 angstrom
                   Q00  =  -0.114891

C          x = -2.510332  y =  0.645450  z = -0.383596 angstrom
           Maximum rank =  0   Radius =  0.650 angstrom
                   Q00  =  -0.033389

C          x = -2.222332  y =  0.793450  z =  0.965404 angstrom
           Maximum rank =  0   Radius =  0.650 angstrom
                   Q00  =  -0.124469

N          x = -0.296332  y =  0.870450  z =  2.568404 angstrom
           Maximum rank =  0   Radius =  0.650 angstrom
                   Q00  =  -0.498172

H          x =  0.655668  y =  0.378450  z = -1.677596 angstrom
           Maximum rank =  0   Radius =  0.325 angstrom
                   Q00  =   0.077082

H          x = -1.755332  y =  0.384450  z = -2.386596 angstrom
           Maximum rank =  0   Radius =  0.325 angstrom
                   Q00  =   0.063545

H          x = -3.535332  y =  0.661450  z = -0.717596 angstrom
           Maximum rank =  0   Radius =  0.325 angstrom
                   Q00  =   0.065314

H          x =  3.516668  y =  0.839450  z =  1.358404 angstrom
           Maximum rank =  0   Radius =  0.325 angstrom
                   Q00  =   0.103576

H          x =  2.884668  y =  1.197450  z = -0.232596 angstrom
           Maximum rank =  0   Radius =  0.325 angstrom
                   Q00  =   0.100418

H          x =  1.778668  y =  0.870450  z =  3.267404 angstrom
           Maximum rank =  0   Radius =  0.325 angstrom
                   Q00  =   0.100682

H          x = -0.795332  y =  0.964450  z =  3.449404 angstrom
           Maximum rank =  0   Radius =  0.325 angstrom
                   Q00  =   0.213868

H          x = -2.995332  y =  0.912450  z =  1.705404 angstrom
           Maximum rank =  0   Radius =  0.325 angstrom
                   Q00  =   0.074171

H          x =  2.959138  y = -0.505250  z =  0.293404 angstrom
           Maximum rank =  0   Radius =  0.325 angstrom
                   Q00  =   0.097860

C          x =  0.661668  y = -2.828550  z = -2.314596 angstrom
           Maximum rank =  0   Radius =  0.650 angstrom
                   Q00  =  -0.234329

C          x =  0.872668  y = -3.065550  z = -3.817596 angstrom
           Maximum rank =  0   Radius =  0.650 angstrom
                   Q00  =  -0.241609

H          x =  1.586668  y = -2.505550  z = -1.853596 angstrom
           Maximum rank =  0   Radius =  0.325 angstrom
                   Q00  =   0.074901

H          x = -0.111332  y = -2.075550  z = -2.166596 angstrom
           Maximum rank =  0   Radius =  0.325 angstrom
                   Q00  =   0.092122

H          x =  0.350668  y = -3.763550  z = -1.859596 angstrom
           Maximum rank =  0   Radius =  0.325 angstrom
                   Q00  =   0.079625

H          x = -0.096332  y = -3.360550  z = -4.223596 angstrom
           Maximum rank =  0   Radius =  0.325 angstrom
                   Q00  =   0.073425

H          x =  1.567288  y = -3.906260  z = -3.961536 angstrom
           Maximum rank =  0   Radius =  0.325 angstrom
                   Q00  =   0.076534

H          x =  1.198498  y = -2.173650  z = -4.372876 angstrom
           Maximum rank =  0   Radius =  0.325 angstrom
                   Q00  =   0.078966

Total multipoles referred to origin at
           x =   0.000000,  y =    0.000000,  z =    0.000000 angstrom
                   Q00  =  -0.000000

Finished at 8:18:28 on 28 Apr 2020

  DMA results are available in the Python driver through the
	  variable('DMA DISTRIBUTED MULTIPOLES')
  and
	  variable('DMA TOTAL MULTIPOLES')
  commands.

    Psi4 stopped on: Tuesday, 28 April 2020 08:18AM
    Psi4 wall time for execution: 0:06:59.53

*** Psi4 exiting successfully. Buy a developer a beer!
