                               Psi4 1.3.2 release

  ==> Input File <==

--------------------------------------------------------------------------
import numpy as np
set {scf_type pk
basis cc-pvdz
d_convergence 10
gdma_switch   0
gdma_limit    0
gdma_origin   [ 0.0,  0.0,  0.0 ]
}
molecule test {
    units Angstrom
    -1 1
    --
    -1 1
    C               -1.803428806880546     1.860888553255737    -3.609166454846216
    C               -1.627428806880546     1.965888553255737    -2.100166454846216
    O               -1.657428806880546     0.920888553255737    -1.421166454846216
    O               -1.448428806880546     3.100888553255736    -1.603166454846216
    H               -1.078428806880545     1.153888553255737    -4.009166454846215
    H               -1.578428806880546     2.820888553255737    -4.067166454846215
    H               -2.818408806880546     1.541548553255737    -3.888146454846216
    C                1.618571193119454    -2.393111446744263     3.503833545153784
    C                0.522571193119455    -0.299111446744263     0.743833545153785
    C                1.334571193119454    -1.761111446744263     2.171833545153785
    C                1.728571193119454    -2.131111446744263     0.924833545153784
    N                0.590571193119455    -0.610111446744263     2.031833545153784
    N                1.204571193119455    -1.202111446744263     0.050833545153784
    H               -0.027428806880545     0.531888553255737     0.327833545153784
    H                1.234571193119454    -1.226111446744263    -0.958166454846216
    H                2.329571193119455    -3.000111446744263     0.679833545153784
    H                2.164571193119455    -1.686111446744263     4.124833545153784
    H                2.284571193119455    -3.227111446744263     3.331833545153784
    H                0.723394193119455    -2.722541446744263     4.051683545153784

}
e, wfn = energy('scf', return_wfn=True)
gdma(wfn)
dmavals = variable('DMA DISTRIBUTED MULTIPOLES')
charges = np.array(dmavals)
print(charges)
np.save('SSI-111ASP-193HIE-1-dimer.npy', np.array(charges))--------------------------------------------------------------------------

*** tstart() called on ds3
*** at Mon Apr 27 13:29:54 2020

   => Loading Basis Set <=

    Name: CC-PVDZ
    Role: ORBITAL
    Keyword: BASIS
    atoms 1-2, 8-11  entry C          line   138 file /theoryfs2/ds/metcalf/miniconda2/envs/tf2gpu/share/psi4/basis/cc-pvdz.gbs
    atoms 3-4        entry O          line   198 file /theoryfs2/ds/metcalf/miniconda2/envs/tf2gpu/share/psi4/basis/cc-pvdz.gbs
    atoms 5-7, 14-19 entry H          line    22 file /theoryfs2/ds/metcalf/miniconda2/envs/tf2gpu/share/psi4/basis/cc-pvdz.gbs
    atoms 12-13      entry N          line   168 file /theoryfs2/ds/metcalf/miniconda2/envs/tf2gpu/share/psi4/basis/cc-pvdz.gbs

         ---------------------------------------------------------
                                   SCF
               by Justin Turney, Rob Parrish, Andy Simmonett
                          and Daniel G. A. Smith
                              RHF Reference
                        1 Threads,    500 MiB Core
         ---------------------------------------------------------

  ==> Geometry <==

    Molecular point group: c1
    Full point group: C1

    Geometry (in Angstrom), charge = -1, multiplicity = 1:

       Center              X                  Y                   Z               Mass
    ------------   -----------------  -----------------  -----------------  -----------------
         C           -1.803428806881     1.860888553256    -3.609166454846    12.000000000000
         C           -1.627428806881     1.965888553256    -2.100166454846    12.000000000000
         O           -1.657428806881     0.920888553256    -1.421166454846    15.994914619570
         O           -1.448428806881     3.100888553256    -1.603166454846    15.994914619570
         H           -1.078428806881     1.153888553256    -4.009166454846     1.007825032230
         H           -1.578428806881     2.820888553256    -4.067166454846     1.007825032230
         H           -2.818408806881     1.541548553256    -3.888146454846     1.007825032230
         C            1.618571193119    -2.393111446744     3.503833545154    12.000000000000
         C            0.522571193119    -0.299111446744     0.743833545154    12.000000000000
         C            1.334571193119    -1.761111446744     2.171833545154    12.000000000000
         C            1.728571193119    -2.131111446744     0.924833545154    12.000000000000
         N            0.590571193119    -0.610111446744     2.031833545154    14.003074004430
         N            1.204571193119    -1.202111446744     0.050833545154    14.003074004430
         H           -0.027428806881     0.531888553256     0.327833545154     1.007825032230
         H            1.234571193119    -1.226111446744    -0.958166454846     1.007825032230
         H            2.329571193119    -3.000111446744     0.679833545154     1.007825032230
         H            2.164571193119    -1.686111446744     4.124833545154     1.007825032230
         H            2.284571193119    -3.227111446744     3.331833545154     1.007825032230
         H            0.723394193119    -2.722541446744     4.051683545154     1.007825032230

  Running in c1 symmetry.

  Rotational constants: A =      0.13910  B =      0.01260  C =      0.01193 [cm^-1]
  Rotational constants: A =   4170.12794  B =    377.67390  C =    357.65137 [MHz]
  Nuclear repulsion =  465.813329956115297

  Charge       = -1
  Multiplicity = 1
  Electrons    = 76
  Nalpha       = 38
  Nbeta        = 38

  ==> Algorithm <==

  SCF Algorithm Type is PK.
  DIIS enabled.
  MOM disabled.
  Fractional occupation disabled.
  Guess Type is SAD.
  Energy threshold   = 1.00e-06
  Density threshold  = 1.00e-10
  Integral threshold = 0.00e+00

  ==> Primary Basis <==

  Basis Set: CC-PVDZ
    Blend: CC-PVDZ
    Number of shells: 87
    Number of basis function: 185
    Number of Cartesian functions: 195
    Spherical Harmonics?: true
    Max angular momentum: 2

  ==> Pre-Iterations <==

   -------------------------------------------------------
    Irrep   Nso     Nmo     Nalpha   Nbeta   Ndocc  Nsocc
   -------------------------------------------------------
     A        185     185       0       0       0       0
   -------------------------------------------------------
    Total     185     185      38      38      38       0
   -------------------------------------------------------

  ==> Integral Setup <==

  Using integral reordering PK algorithm.
  Sizing the integral batches needed.
  Building batch lookup table.
   Calculation information:
      Number of atoms:                  19
      Number of AO shells:              87
      Number of primitives:            265
      Number of atomic orbitals:       195
      Number of basis functions:       185

      Integral cutoff                 1.00e-12
      Number of threads:                 1

	Batch   1 pq = [       0,    9405] index = [             0,44231715] size =     44231715
	Batch   2 pq = [    9405,   13301] index = [      44231715,88464951] size =     44233236
	Batch   3 pq = [   13301,   16290] index = [      88464951,132690195] size =     44225244
	Batch   4 pq = [   16290,   17205] index = [     132690195,148014615] size =     15324420
  Task number: 14
  Buffer size: 11059200
  Buffer per thread: 2
  We computed 4441970 shell quartets total.
  Whereas there are 7328706 unique shell quartets.

  ==> DiskJK: Disk-Based J/K Matrices <==

    J tasked:                  Yes
    K tasked:                  Yes
    wK tasked:                  No
    Memory [MiB]:              375
    Schwarz Cutoff:          1E-12

    OpenMP threads:              1

  Minimum eigenvalue in the overlap matrix is 1.2163981089E-03.
  Using Symmetric Orthogonalization.

  SCF Guess: Superposition of Atomic Densities via on-the-fly atomic UHF.

  ==> Iterations <==

                        Total Energy        Delta E     RMS |[F,P]|

   @RHF iter SAD:  -489.72113708370796   -4.89721e+02   0.00000e+00
   @RHF iter   1:  -490.81128213205557   -1.09015e+00   4.24666e-03 DIIS
   @RHF iter   2:  -491.04862569764180   -2.37344e-01   2.43054e-03 DIIS
   @RHF iter   3:  -491.12485749204779   -7.62318e-02   4.04483e-04 DIIS
   @RHF iter   4:  -491.12842205173325   -3.56456e-03   1.57438e-04 DIIS
   @RHF iter   5:  -491.12897178816581   -5.49736e-04   3.39049e-05 DIIS
   @RHF iter   6:  -491.12900131589538   -2.95277e-05   1.54865e-05 DIIS
   @RHF iter   7:  -491.12900734581990   -6.02992e-06   3.87244e-06 DIIS
   @RHF iter   8:  -491.12900822945238   -8.83632e-07   1.60809e-06 DIIS
   @RHF iter   9:  -491.12900839070733   -1.61255e-07   7.21942e-07 DIIS
   @RHF iter  10:  -491.12900841597514   -2.52678e-08   1.72464e-07 DIIS
   @RHF iter  11:  -491.12900841756118   -1.58605e-09   6.62360e-08 DIIS
   @RHF iter  12:  -491.12900841768970   -1.28523e-10   3.30530e-08 DIIS
   @RHF iter  13:  -491.12900841772199   -3.22871e-11   7.96091e-09 DIIS
   @RHF iter  14:  -491.12900841772898   -6.99174e-12   2.91594e-09 DIIS
   @RHF iter  15:  -491.12900841772455    4.43379e-12   8.44200e-10 DIIS
   @RHF iter  16:  -491.12900841772517   -6.25278e-13   4.04671e-10 DIIS
   @RHF iter  17:  -491.12900841772557   -3.97904e-13   1.45735e-10 DIIS
   @RHF iter  18:  -491.12900841772557    0.00000e+00   6.12617e-11 DIIS
  Energy and wave function converged.

  ==> Post-Iterations <==

    Orbital Energies [Eh]
    ---------------------

    Doubly Occupied:

       1A    -20.272154     2A    -20.266916     3A    -15.502074
       4A    -15.407475     5A    -11.164548     6A    -11.144270
       7A    -11.137477     8A    -11.136737     9A    -11.125804
      10A    -11.058804    11A     -1.225449    12A     -1.160789
      13A     -1.046734    14A     -1.038597    15A     -0.926636
      16A     -0.841573    17A     -0.805796    18A     -0.700047
      19A     -0.649910    20A     -0.626630    21A     -0.511807
      22A     -0.499447    23A     -0.496269    24A     -0.480936
      25A     -0.454587    26A     -0.448709    27A     -0.424234
      28A     -0.420750    29A     -0.416026    30A     -0.411675
      31A     -0.350949    32A     -0.316187    33A     -0.294038
      34A     -0.266058    35A     -0.200010    36A     -0.193367
      37A     -0.181705    38A     -0.171759

    Virtual:

      39A      0.279581    40A      0.295497    41A      0.307652
      42A      0.321487    43A      0.327512    44A      0.346907
      45A      0.363416    46A      0.386219    47A      0.394429
      48A      0.411936    49A      0.439268    50A      0.472945
      51A      0.476121    52A      0.512307    53A      0.529635
      54A      0.565188    55A      0.584397    56A      0.600114
      57A      0.697036    58A      0.704492    59A      0.713327
      60A      0.725960    61A      0.727245    62A      0.774593
      63A      0.816352    64A      0.821914    65A      0.828676
      66A      0.841503    67A      0.853139    68A      0.877764
      69A      0.900657    70A      0.922207    71A      0.937864
      72A      0.943526    73A      0.951198    74A      0.968153
      75A      0.970391    76A      0.994321    77A      1.014601
      78A      1.020138    79A      1.026740    80A      1.027145
      81A      1.054672    82A      1.067876    83A      1.078182
      84A      1.124851    85A      1.133516    86A      1.163023
      87A      1.169741    88A      1.198602    89A      1.210862
      90A      1.230793    91A      1.239702    92A      1.271979
      93A      1.278076    94A      1.325928    95A      1.352731
      96A      1.354356    97A      1.366333    98A      1.399630
      99A      1.431035   100A      1.445060   101A      1.449009
     102A      1.509502   103A      1.556398   104A      1.557843
     105A      1.559088   106A      1.581740   107A      1.603759
     108A      1.615354   109A      1.616314   110A      1.668032
     111A      1.680174   112A      1.694002   113A      1.717106
     114A      1.729120   115A      1.737620   116A      1.774629
     117A      1.807391   118A      1.831855   119A      1.837305
     120A      1.896972   121A      1.921779   122A      1.926753
     123A      1.971701   124A      1.995829   125A      2.033012
     126A      2.043066   127A      2.052435   128A      2.065076
     129A      2.070520   130A      2.084088   131A      2.095738
     132A      2.116243   133A      2.117420   134A      2.129997
     135A      2.200791   136A      2.212807   137A      2.230554
     138A      2.242580   139A      2.269666   140A      2.288838
     141A      2.318694   142A      2.320264   143A      2.343184
     144A      2.402477   145A      2.404469   146A      2.429778
     147A      2.446898   148A      2.497804   149A      2.558275
     150A      2.561794   151A      2.573753   152A      2.589543
     153A      2.645406   154A      2.648311   155A      2.711434
     156A      2.730439   157A      2.770438   158A      2.784493
     159A      2.851538   160A      2.858887   161A      2.874630
     162A      2.910442   163A      2.912191   164A      2.932162
     165A      2.950015   166A      2.977550   167A      2.990636
     168A      3.005140   169A      3.041406   170A      3.087740
     171A      3.173217   172A      3.233412   173A      3.264782
     174A      3.287559   175A      3.292046   176A      3.349782
     177A      3.364911   178A      3.589802   179A      3.626529
     180A      3.778945   181A      3.821548   182A      3.914883
     183A      4.053442   184A      4.077159   185A      4.193741

    Final Occupation by Irrep:
              A
    DOCC [    38 ]

  @RHF Final Energy:  -491.12900841772557

   => Energetics <=

    Nuclear Repulsion Energy =            465.8133299561152967
    One-Electron Energy =               -1606.3308143140357060
    Two-Electron Energy =                 649.3884759401948941
    Total Energy =                       -491.1290084177255721

Computation Completed

Properties will be evaluated at   0.000000,   0.000000,   0.000000 [a0]

Properties computed using the SCF density matrix

  Nuclear Dipole Moment: [e a0]
     X:     3.0116      Y:    -5.4256      Z:    -0.4018

  Electronic Dipole Moment: [e a0]
     X:    -0.2702      Y:     1.8435      Z:     1.2319

  Dipole Moment: [e a0]
     X:     2.7415      Y:    -3.5822      Z:     0.8301     Total:     4.5866

  Dipole Moment: [D]
     X:     6.9681      Y:    -9.1050      Z:     2.1099     Total:    11.6579

*** tstop() called on ds3 at Mon Apr 27 13:31:03 2020
Module time:
	user time   =      42.72 seconds =       0.71 minutes
	system time =      30.12 seconds =       0.50 minutes
	total time  =         69 seconds =       1.15 minutes
Total time:
	user time   =      42.72 seconds =       0.71 minutes
	system time =      30.12 seconds =       0.50 minutes
	total time  =         69 seconds =       1.15 minutes
                                     G D M A

                                 by Anthony Stone

                           version 2.2.06, 22 June 2011

               Distributed Multipoles from Gaussian wavefunctions

Starting at 13:31:3 on 27 Apr 2020

Using SCF density matrix from file ./SSI/SSI-111ASP-193HIE-1-dimer.test.6852.fchk

                         Distributed Multipole Analysis

Standard DMA

Positions and radii in angstrom
Multipole moments in atomic units, ea_0^k for rank k

C          x = -1.803429  y =  1.860889  z = -3.609166 angstrom
           Maximum rank =  0   Radius =  0.650 angstrom
                   Q00  =  -0.274170

C          x = -1.627429  y =  1.965889  z = -2.100166 angstrom
           Maximum rank =  0   Radius =  0.650 angstrom
                   Q00  =   0.965067

O          x = -1.657429  y =  0.920889  z = -1.421166 angstrom
           Maximum rank =  0   Radius =  0.650 angstrom
                   Q00  =  -0.938365

O          x = -1.448429  y =  3.100889  z = -1.603166 angstrom
           Maximum rank =  0   Radius =  0.650 angstrom
                   Q00  =  -0.922892

H          x = -1.078429  y =  1.153889  z = -4.009166 angstrom
           Maximum rank =  0   Radius =  0.325 angstrom
                   Q00  =   0.056350

H          x = -1.578429  y =  2.820889  z = -4.067166 angstrom
           Maximum rank =  0   Radius =  0.325 angstrom
                   Q00  =   0.053649

H          x = -2.818409  y =  1.541549  z = -3.888146 angstrom
           Maximum rank =  0   Radius =  0.325 angstrom
                   Q00  =   0.075384

C          x =  1.618571  y = -2.393111  z =  3.503834 angstrom
           Maximum rank =  0   Radius =  0.650 angstrom
                   Q00  =  -0.192038

C          x =  0.522571  y = -0.299111  z =  0.743834 angstrom
           Maximum rank =  0   Radius =  0.650 angstrom
                   Q00  =   0.509876

C          x =  1.334571  y = -1.761111  z =  2.171834 angstrom
           Maximum rank =  0   Radius =  0.650 angstrom
                   Q00  =   0.238208

C          x =  1.728571  y = -2.131111  z =  0.924834 angstrom
           Maximum rank =  0   Radius =  0.650 angstrom
                   Q00  =  -0.021894

N          x =  0.590571  y = -0.610111  z =  2.031834 angstrom
           Maximum rank =  0   Radius =  0.650 angstrom
                   Q00  =  -0.778130

N          x =  1.204571  y = -1.202111  z =  0.050834 angstrom
           Maximum rank =  0   Radius =  0.650 angstrom
                   Q00  =  -0.483376

H          x = -0.027429  y =  0.531889  z =  0.327834 angstrom
           Maximum rank =  0   Radius =  0.325 angstrom
                   Q00  =   0.143478

H          x =  1.234571  y = -1.226111  z = -0.958166 angstrom
           Maximum rank =  0   Radius =  0.325 angstrom
                   Q00  =   0.221267

H          x =  2.329571  y = -3.000111  z =  0.679834 angstrom
           Maximum rank =  0   Radius =  0.325 angstrom
                   Q00  =   0.076651

H          x =  2.164571  y = -1.686111  z =  4.124834 angstrom
           Maximum rank =  0   Radius =  0.325 angstrom
                   Q00  =   0.096891

H          x =  2.284571  y = -3.227111  z =  3.331834 angstrom
           Maximum rank =  0   Radius =  0.325 angstrom
                   Q00  =   0.076408

H          x =  0.723394  y = -2.722541  z =  4.051684 angstrom
           Maximum rank =  0   Radius =  0.325 angstrom
                   Q00  =   0.097636

Total multipoles referred to origin at
           x =   0.000000,  y =    0.000000,  z =    0.000000 angstrom
                   Q00  =  -1.000000

Finished at 13:31:3 on 27 Apr 2020

  DMA results are available in the Python driver through the
	  variable('DMA DISTRIBUTED MULTIPOLES')
  and
	  variable('DMA TOTAL MULTIPOLES')
  commands.

    Psi4 stopped on: Monday, 27 April 2020 01:31PM
    Psi4 wall time for execution: 0:01:09.57

*** Psi4 exiting successfully. Buy a developer a beer!
