                               Psi4 1.3.2 release

  ==> Input File <==

--------------------------------------------------------------------------
import numpy as np
set {scf_type pk
basis cc-pvdz
d_convergence 10
gdma_switch   0
gdma_limit    0
gdma_origin   [ 0.0,  0.0,  0.0 ]
}
molecule test {
    units Angstrom
    1 1
    --
    1 1
    C               -2.141074736952507     0.513965378092621    -1.208254798261899
    C               -1.809074736952506     0.899965378092621    -2.645254798261900
    H               -3.093074736952507     0.956965378092621    -0.911254798261899
    H               -2.215074736952507    -0.572034621907379    -1.130254798261899
    H               -1.360074736952507     0.853965378092621    -0.530254798261899
    H               -0.844074736952507     0.474965378092621    -2.925254798261899
    H               -1.776602736952507     1.994635378092621    -2.748443798261899
    H               -2.592209736952507     0.491805378092621    -3.301081798261900
    C                0.804925263047493    -0.499034621907379     0.940745201738101
    C                1.641925263047493     0.763965378092621     0.873745201738101
    N                1.383925263047493    -1.515034621907379     1.852745201738101
    H               -0.192074736952507    -0.227034621907379     1.306745201738101
    H                0.685925263047493    -0.914034621907379    -0.067254798261899
    H                1.905925263047493     1.078965378092622     1.884745201738101
    H                1.022925263047493     1.552965378092621     0.441745201738101
    H                1.443925263047493    -1.168034621907379     2.804745201738100
    H                0.812925263047493    -2.353034621907379     1.876745201738101
    H                2.313925263047493    -1.800034621907378     1.564745201738101
    H                2.558415263047493     0.690445378092621     0.269889801738101

}
e, wfn = energy('scf', return_wfn=True)
gdma(wfn)
dmavals = variable('DMA DISTRIBUTED MULTIPOLES')
charges = np.array(dmavals)
print(charges)
np.save('SSI-035THR-112LYS-1-dimer.npy', np.array(charges))--------------------------------------------------------------------------

*** tstart() called on ds3
*** at Sun Apr 26 18:10:20 2020

   => Loading Basis Set <=

    Name: CC-PVDZ
    Role: ORBITAL
    Keyword: BASIS
    atoms 1-2, 9-10  entry C          line   138 file /theoryfs2/ds/metcalf/miniconda2/envs/tf2gpu/share/psi4/basis/cc-pvdz.gbs
    atoms 3-8, 12-19 entry H          line    22 file /theoryfs2/ds/metcalf/miniconda2/envs/tf2gpu/share/psi4/basis/cc-pvdz.gbs
    atoms 11         entry N          line   168 file /theoryfs2/ds/metcalf/miniconda2/envs/tf2gpu/share/psi4/basis/cc-pvdz.gbs

         ---------------------------------------------------------
                                   SCF
               by Justin Turney, Rob Parrish, Andy Simmonett
                          and Daniel G. A. Smith
                              RHF Reference
                        1 Threads,    500 MiB Core
         ---------------------------------------------------------

  ==> Geometry <==

    Molecular point group: c1
    Full point group: C1

    Geometry (in Angstrom), charge = 1, multiplicity = 1:

       Center              X                  Y                   Z               Mass
    ------------   -----------------  -----------------  -----------------  -----------------
         C           -2.141074736953     0.513965378093    -1.208254798262    12.000000000000
         C           -1.809074736953     0.899965378093    -2.645254798262    12.000000000000
         H           -3.093074736953     0.956965378093    -0.911254798262     1.007825032230
         H           -2.215074736953    -0.572034621907    -1.130254798262     1.007825032230
         H           -1.360074736953     0.853965378093    -0.530254798262     1.007825032230
         H           -0.844074736953     0.474965378093    -2.925254798262     1.007825032230
         H           -1.776602736953     1.994635378093    -2.748443798262     1.007825032230
         H           -2.592209736953     0.491805378093    -3.301081798262     1.007825032230
         C            0.804925263047    -0.499034621907     0.940745201738    12.000000000000
         C            1.641925263047     0.763965378093     0.873745201738    12.000000000000
         N            1.383925263047    -1.515034621907     1.852745201738    14.003074004430
         H           -0.192074736953    -0.227034621907     1.306745201738     1.007825032230
         H            0.685925263047    -0.914034621907    -0.067254798262     1.007825032230
         H            1.905925263047     1.078965378093     1.884745201738     1.007825032230
         H            1.022925263047     1.552965378093     0.441745201738     1.007825032230
         H            1.443925263047    -1.168034621907     2.804745201738     1.007825032230
         H            0.812925263047    -2.353034621907     1.876745201738     1.007825032230
         H            2.313925263047    -1.800034621907     1.564745201738     1.007825032230
         H            2.558415263047     0.690445378093     0.269889801738     1.007825032230

  Running in c1 symmetry.

  Rotational constants: A =      0.23945  B =      0.03751  C =      0.03460 [cm^-1]
  Rotational constants: A =   7178.40211  B =   1124.62779  C =   1037.20997 [MHz]
  Nuclear repulsion =  186.886150189686902

  Charge       = 1
  Multiplicity = 1
  Electrons    = 44
  Nalpha       = 22
  Nbeta        = 22

  ==> Algorithm <==

  SCF Algorithm Type is PK.
  DIIS enabled.
  MOM disabled.
  Fractional occupation disabled.
  Guess Type is SAD.
  Energy threshold   = 1.00e-06
  Density threshold  = 1.00e-10
  Integral threshold = 0.00e+00

  ==> Primary Basis <==

  Basis Set: CC-PVDZ
    Blend: CC-PVDZ
    Number of shells: 72
    Number of basis function: 140
    Number of Cartesian functions: 145
    Spherical Harmonics?: true
    Max angular momentum: 2

  ==> Pre-Iterations <==

   -------------------------------------------------------
    Irrep   Nso     Nmo     Nalpha   Nbeta   Ndocc  Nsocc
   -------------------------------------------------------
     A        140     140       0       0       0       0
   -------------------------------------------------------
    Total     140     140      22      22      22       0
   -------------------------------------------------------

  ==> Integral Setup <==

  Using integral reordering PK algorithm.
  Sizing the integral batches needed.
  Building batch lookup table.
   Calculation information:
      Number of atoms:                  19
      Number of AO shells:              72
      Number of primitives:            180
      Number of atomic orbitals:       145
      Number of basis functions:       140

      Integral cutoff                 1.00e-12
      Number of threads:                 1

	Batch   1 pq = [       0,    9405] index = [             0,44231715] size =     44231715
	Batch   2 pq = [    9405,    9870] index = [      44231715,48713385] size =      4481670
  Task number: 5
  Buffer size: 11059200
  Buffer per thread: 2
  We computed 2803723 shell quartets total.
  Whereas there are 3454506 unique shell quartets.

  ==> DiskJK: Disk-Based J/K Matrices <==

    J tasked:                  Yes
    K tasked:                  Yes
    wK tasked:                  No
    Memory [MiB]:              375
    Schwarz Cutoff:          1E-12

    OpenMP threads:              1

  Minimum eigenvalue in the overlap matrix is 5.2487095758E-03.
  Using Symmetric Orthogonalization.

  SCF Guess: Superposition of Atomic Densities via on-the-fly atomic UHF.

  ==> Iterations <==

                        Total Energy        Delta E     RMS |[F,P]|

   @RHF iter SAD:  -213.20131582413694   -2.13201e+02   0.00000e+00
   @RHF iter   1:  -213.69091267694253   -4.89597e-01   3.56642e-03 DIIS
   @RHF iter   2:  -213.84136440170653   -1.50452e-01   1.35649e-03 DIIS
   @RHF iter   3:  -213.86159678945171   -2.02324e-02   3.43517e-04 DIIS
   @RHF iter   4:  -213.86375727954899   -2.16049e-03   4.67404e-05 DIIS
   @RHF iter   5:  -213.86380212465338   -4.48451e-05   1.23231e-05 DIIS
   @RHF iter   6:  -213.86380475186056   -2.62721e-06   3.48495e-06 DIIS
   @RHF iter   7:  -213.86380494468864   -1.92828e-07   8.70568e-07 DIIS
   @RHF iter   8:  -213.86380496152390   -1.68353e-08   2.41852e-07 DIIS
   @RHF iter   9:  -213.86380496255333   -1.02943e-09   6.65065e-08 DIIS
   @RHF iter  10:  -213.86380496262211   -6.87805e-11   1.19618e-08 DIIS
   @RHF iter  11:  -213.86380496262478   -2.67164e-12   2.17069e-09 DIIS
   @RHF iter  12:  -213.86380496262490   -1.13687e-13   4.15933e-10 DIIS
   @RHF iter  13:  -213.86380496262467    2.27374e-13   1.14513e-10 DIIS
   @RHF iter  14:  -213.86380496262555   -8.81073e-13   3.66592e-11 DIIS
  Energy and wave function converged.

  ==> Post-Iterations <==

    Orbital Energies [Eh]
    ---------------------

    Doubly Occupied:

       1A    -15.908791     2A    -11.483947     3A    -11.406449
       4A    -11.324915     5A    -11.314940     6A     -1.529710
       7A     -1.224794     8A     -1.121927     9A     -1.060310
      10A     -0.985566    11A     -0.971658    12A     -0.937765
      13A     -0.866699    14A     -0.799122    15A     -0.725425
      16A     -0.707043    17A     -0.701810    18A     -0.699730
      19A     -0.686186    20A     -0.601509    21A     -0.588176
      22A     -0.586003

    Virtual:

      23A     -0.052095    24A      0.012534    25A      0.017339
      26A      0.025479    27A      0.070427    28A      0.077635
      29A      0.090685    30A      0.112905    31A      0.133969
      32A      0.146696    33A      0.155292    34A      0.166011
      35A      0.187554    36A      0.191112    37A      0.209173
      38A      0.261710    39A      0.298593    40A      0.372645
      41A      0.386037    42A      0.415028    43A      0.433122
      44A      0.464929    45A      0.501392    46A      0.507453
      47A      0.525981    48A      0.575285    49A      0.581459
      50A      0.607800    51A      0.632087    52A      0.650755
      53A      0.679447    54A      0.689760    55A      0.710708
      56A      0.715292    57A      0.737366    58A      0.754054
      59A      0.769647    60A      0.782612    61A      0.783298
      62A      0.798705    63A      0.801774    64A      0.805958
      65A      0.828054    66A      0.830364    67A      0.846824
      68A      0.891802    69A      0.925703    70A      0.937987
      71A      1.023142    72A      1.028903    73A      1.034742
      74A      1.158508    75A      1.199673    76A      1.253631
      77A      1.276514    78A      1.371545    79A      1.378994
      80A      1.410394    81A      1.454073    82A      1.460712
      83A      1.490976    84A      1.509333    85A      1.570463
      86A      1.589406    87A      1.632171    88A      1.673868
      89A      1.681059    90A      1.707462    91A      1.726890
      92A      1.746221    93A      1.757258    94A      1.775107
      95A      1.779531    96A      1.791074    97A      1.807599
      98A      1.826012    99A      1.843942   100A      1.852406
     101A      1.853815   102A      1.861437   103A      1.868783
     104A      1.879501   105A      1.891376   106A      1.929953
     107A      1.957096   108A      1.986661   109A      2.008574
     110A      2.016304   111A      2.035382   112A      2.140228
     113A      2.152972   114A      2.167589   115A      2.195493
     116A      2.209212   117A      2.262756   118A      2.322008
     119A      2.357275   120A      2.367489   121A      2.375224
     122A      2.434202   123A      2.466289   124A      2.479161
     125A      2.502702   126A      2.532079   127A      2.592686
     128A      2.631361   129A      2.665390   130A      2.686952
     131A      2.688597   132A      2.731267   133A      2.746295
     134A      2.751602   135A      2.783995   136A      2.839087
     137A      2.862245   138A      2.872638   139A      3.098402
     140A      3.115073

    Final Occupation by Irrep:
              A
    DOCC [    22 ]

  @RHF Final Energy:  -213.86380496262555

   => Energetics <=

    Nuclear Repulsion Energy =            186.8861501896869015
    One-Electron Energy =                -649.0349610024377398
    Two-Electron Energy =                 248.2850058501253159
    Total Energy =                       -213.8638049626255508

Computation Completed

Properties will be evaluated at   0.000000,   0.000000,   0.000000 [a0]

Properties computed using the SCF density matrix

  Nuclear Dipole Moment: [e a0]
     X:    -1.2501      Y:     0.9986      Z:    -1.3782

  Electronic Dipole Moment: [e a0]
     X:     3.5741      Y:    -3.2046      Z:     4.3393

  Dipole Moment: [e a0]
     X:     2.3240      Y:    -2.2060      Z:     2.9610     Total:     4.3629

  Dipole Moment: [D]
     X:     5.9069      Y:    -5.6071      Z:     7.5262     Total:    11.0894

*** tstop() called on ds3 at Sun Apr 26 18:10:47 2020
Module time:
	user time   =      14.06 seconds =       0.23 minutes
	system time =       5.59 seconds =       0.09 minutes
	total time  =         27 seconds =       0.45 minutes
Total time:
	user time   =      14.06 seconds =       0.23 minutes
	system time =       5.59 seconds =       0.09 minutes
	total time  =         27 seconds =       0.45 minutes
                                     G D M A

                                 by Anthony Stone

                           version 2.2.06, 22 June 2011

               Distributed Multipoles from Gaussian wavefunctions

Starting at 18:10:47 on 26 Apr 2020

Using SCF density matrix from file ./SSI/SSI-035THR-112LYS-1-dimer.test.4121.fchk

                         Distributed Multipole Analysis

Standard DMA

Positions and radii in angstrom
Multipole moments in atomic units, ea_0^k for rank k

C          x = -2.141075  y =  0.513965  z = -1.208255 angstrom
           Maximum rank =  0   Radius =  0.650 angstrom
                   Q00  =  -0.248047

C          x = -1.809075  y =  0.899965  z = -2.645255 angstrom
           Maximum rank =  0   Radius =  0.650 angstrom
                   Q00  =  -0.226230

H          x = -3.093075  y =  0.956965  z = -0.911255 angstrom
           Maximum rank =  0   Radius =  0.325 angstrom
                   Q00  =   0.107339

H          x = -2.215075  y = -0.572035  z = -1.130255 angstrom
           Maximum rank =  0   Radius =  0.325 angstrom
                   Q00  =   0.069204

H          x = -1.360075  y =  0.853965  z = -0.530255 angstrom
           Maximum rank =  0   Radius =  0.325 angstrom
                   Q00  =   0.036388

H          x = -0.844075  y =  0.474965  z = -2.925255 angstrom
           Maximum rank =  0   Radius =  0.325 angstrom
                   Q00  =   0.068177

H          x = -1.776603  y =  1.994635  z = -2.748444 angstrom
           Maximum rank =  0   Radius =  0.325 angstrom
                   Q00  =   0.093095

H          x = -2.592210  y =  0.491805  z = -3.301082 angstrom
           Maximum rank =  0   Radius =  0.325 angstrom
                   Q00  =   0.100730

C          x =  0.804925  y = -0.499035  z =  0.940745 angstrom
           Maximum rank =  0   Radius =  0.650 angstrom
                   Q00  =  -0.041231

C          x =  1.641925  y =  0.763965  z =  0.873745 angstrom
           Maximum rank =  0   Radius =  0.650 angstrom
                   Q00  =  -0.243845

N          x =  1.383925  y = -1.515035  z =  1.852745 angstrom
           Maximum rank =  0   Radius =  0.650 angstrom
                   Q00  =  -0.135822

H          x = -0.192075  y = -0.227035  z =  1.306745 angstrom
           Maximum rank =  0   Radius =  0.325 angstrom
                   Q00  =   0.132552

H          x =  0.685925  y = -0.914035  z = -0.067255 angstrom
           Maximum rank =  0   Radius =  0.325 angstrom
                   Q00  =   0.136906

H          x =  1.905925  y =  1.078965  z =  1.884745 angstrom
           Maximum rank =  0   Radius =  0.325 angstrom
                   Q00  =   0.096481

H          x =  1.022925  y =  1.552965  z =  0.441745 angstrom
           Maximum rank =  0   Radius =  0.325 angstrom
                   Q00  =   0.155774

H          x =  1.443925  y = -1.168035  z =  2.804745 angstrom
           Maximum rank =  0   Radius =  0.325 angstrom
                   Q00  =   0.258907

H          x =  0.812925  y = -2.353035  z =  1.876745 angstrom
           Maximum rank =  0   Radius =  0.325 angstrom
                   Q00  =   0.257800

H          x =  2.313925  y = -1.800035  z =  1.564745 angstrom
           Maximum rank =  0   Radius =  0.325 angstrom
                   Q00  =   0.258469

H          x =  2.558415  y =  0.690445  z =  0.269890 angstrom
           Maximum rank =  0   Radius =  0.325 angstrom
                   Q00  =   0.123350

Total multipoles referred to origin at
           x =   0.000000,  y =    0.000000,  z =    0.000000 angstrom
                   Q00  =   1.000000

Finished at 18:10:47 on 26 Apr 2020

  DMA results are available in the Python driver through the
	  variable('DMA DISTRIBUTED MULTIPOLES')
  and
	  variable('DMA TOTAL MULTIPOLES')
  commands.

    Psi4 stopped on: Sunday, 26 April 2020 06:10PM
    Psi4 wall time for execution: 0:00:26.48

*** Psi4 exiting successfully. Buy a developer a beer!
