                               Psi4 1.3.2 release

  ==> Input File <==

--------------------------------------------------------------------------
import numpy as np
set {scf_type pk
basis cc-pvdz
d_convergence 10
gdma_switch   0
gdma_limit    0
gdma_origin   [ 0.0,  0.0,  0.0 ]
}
molecule test {
    units Angstrom
    0 1
    --
    0 1
    C               -1.987881002055387    -1.609121439714227     0.918092537978623
    C               -1.783881002055387     0.796878560285773     0.395092537978623
    N               -1.337881002055387    -0.450121439714227     0.303092537978623
    N               -2.884881002055387     1.063878560285773     1.075092537978623
    N               -1.130881002055387     1.782878560285773    -0.189907462021377
    H               -0.431881002055387    -0.605121439714227    -0.136907462021377
    H               -1.438881002055387    -2.513121439714228     0.645092537978623
    H               -3.009881002055387    -1.707121439714227     0.545092537978623
    H               -3.448881002055387     0.315878560285773     1.438092537978623
    H               -3.225881002055387     2.010878560285773     1.135092537978624
    H               -0.282881002055387     1.572878560285773    -0.701907462021377
    H               -1.478881002055387     2.726878560285773    -0.154907462021377
    H               -1.990764212055387    -1.511091439714227     2.013711537978623
    C                3.701118997944614    -0.561121439714227    -0.331907462021377
    C                2.221118997944613    -0.398121439714227    -0.647907462021377
    O                1.429118997944614    -1.294121439714227    -0.279907462021377
    O                1.841118997944613     0.621878560285773    -1.264907462021377
    H                4.041118997944613    -1.545121439714227    -0.662907462021377
    H                3.840118997944613    -0.492121439714227     0.750092537978623
    H                4.305684997944613     0.209248560285773    -0.832937162021377

}
e, wfn = energy('scf', return_wfn=True)
gdma(wfn)
dmavals = variable('DMA DISTRIBUTED MULTIPOLES')
charges = np.array(dmavals)
print(charges)
np.save('SSI-005ARG-012GLU-1-dimer.npy', np.array(charges))--------------------------------------------------------------------------

*** tstart() called on ds3
*** at Tue Apr 28 03:10:13 2020

   => Loading Basis Set <=

    Name: CC-PVDZ
    Role: ORBITAL
    Keyword: BASIS
    atoms 1-2, 14-15  entry C          line   138 file /theoryfs2/ds/metcalf/miniconda2/envs/tf2gpu/share/psi4/basis/cc-pvdz.gbs
    atoms 3-5         entry N          line   168 file /theoryfs2/ds/metcalf/miniconda2/envs/tf2gpu/share/psi4/basis/cc-pvdz.gbs
    atoms 6-13, 18-20 entry H          line    22 file /theoryfs2/ds/metcalf/miniconda2/envs/tf2gpu/share/psi4/basis/cc-pvdz.gbs
    atoms 16-17       entry O          line   198 file /theoryfs2/ds/metcalf/miniconda2/envs/tf2gpu/share/psi4/basis/cc-pvdz.gbs

         ---------------------------------------------------------
                                   SCF
               by Justin Turney, Rob Parrish, Andy Simmonett
                          and Daniel G. A. Smith
                              RHF Reference
                        1 Threads,    500 MiB Core
         ---------------------------------------------------------

  ==> Geometry <==

    Molecular point group: c1
    Full point group: C1

    Geometry (in Angstrom), charge = 0, multiplicity = 1:

       Center              X                  Y                   Z               Mass
    ------------   -----------------  -----------------  -----------------  -----------------
         C           -1.987881002055    -1.609121439714     0.918092537979    12.000000000000
         C           -1.783881002055     0.796878560286     0.395092537979    12.000000000000
         N           -1.337881002055    -0.450121439714     0.303092537979    14.003074004430
         N           -2.884881002055     1.063878560286     1.075092537979    14.003074004430
         N           -1.130881002055     1.782878560286    -0.189907462021    14.003074004430
         H           -0.431881002055    -0.605121439714    -0.136907462021     1.007825032230
         H           -1.438881002055    -2.513121439714     0.645092537979     1.007825032230
         H           -3.009881002055    -1.707121439714     0.545092537979     1.007825032230
         H           -3.448881002055     0.315878560286     1.438092537979     1.007825032230
         H           -3.225881002055     2.010878560286     1.135092537979     1.007825032230
         H           -0.282881002055     1.572878560286    -0.701907462021     1.007825032230
         H           -1.478881002055     2.726878560286    -0.154907462021     1.007825032230
         H           -1.990764212055    -1.511091439714     2.013711537979     1.007825032230
         C            3.701118997945    -0.561121439714    -0.331907462021    12.000000000000
         C            2.221118997945    -0.398121439714    -0.647907462021    12.000000000000
         O            1.429118997945    -1.294121439714    -0.279907462021    15.994914619570
         O            1.841118997945     0.621878560286    -1.264907462021    15.994914619570
         H            4.041118997945    -1.545121439714    -0.662907462021     1.007825032230
         H            3.840118997945    -0.492121439714     0.750092537979     1.007825032230
         H            4.305684997945     0.209248560286    -0.832937162021     1.007825032230

  Running in c1 symmetry.

  Rotational constants: A =      0.09306  B =      0.02323  C =      0.01936 [cm^-1]
  Rotational constants: A =   2789.75266  B =    696.53032  C =    580.40492 [MHz]
  Nuclear repulsion =  457.683110386238070

  Charge       = 0
  Multiplicity = 1
  Electrons    = 72
  Nalpha       = 36
  Nbeta        = 36

  ==> Algorithm <==

  SCF Algorithm Type is PK.
  DIIS enabled.
  MOM disabled.
  Fractional occupation disabled.
  Guess Type is SAD.
  Energy threshold   = 1.00e-06
  Density threshold  = 1.00e-10
  Integral threshold = 0.00e+00

  ==> Primary Basis <==

  Basis Set: CC-PVDZ
    Blend: CC-PVDZ
    Number of shells: 87
    Number of basis function: 181
    Number of Cartesian functions: 190
    Spherical Harmonics?: true
    Max angular momentum: 2

  ==> Pre-Iterations <==

   -------------------------------------------------------
    Irrep   Nso     Nmo     Nalpha   Nbeta   Ndocc  Nsocc
   -------------------------------------------------------
     A        181     181       0       0       0       0
   -------------------------------------------------------
    Total     181     181      36      36      36       0
   -------------------------------------------------------

  ==> Integral Setup <==

  Using integral reordering PK algorithm.
  Sizing the integral batches needed.
  Building batch lookup table.
   Calculation information:
      Number of atoms:                  20
      Number of AO shells:              87
      Number of primitives:            253
      Number of atomic orbitals:       190
      Number of basis functions:       181

      Integral cutoff                 1.00e-12
      Number of threads:                 1

	Batch   1 pq = [       0,    9405] index = [             0,44231715] size =     44231715
	Batch   2 pq = [    9405,   13301] index = [      44231715,88464951] size =     44233236
	Batch   3 pq = [   13301,   16471] index = [      88464951,135655156] size =     47190205
  Task number: 13
  Buffer size: 11059200
  Buffer per thread: 2
  We computed 5958808 shell quartets total.
  Whereas there are 7328706 unique shell quartets.

  ==> DiskJK: Disk-Based J/K Matrices <==

    J tasked:                  Yes
    K tasked:                  Yes
    wK tasked:                  No
    Memory [MiB]:              375
    Schwarz Cutoff:          1E-12

    OpenMP threads:              1

  Minimum eigenvalue in the overlap matrix is 3.8936177614E-03.
  Using Symmetric Orthogonalization.

  SCF Guess: Superposition of Atomic Densities via on-the-fly atomic UHF.

  ==> Iterations <==

                        Total Energy        Delta E     RMS |[F,P]|

   @RHF iter SAD:  -469.64936889797298   -4.69649e+02   0.00000e+00
   @RHF iter   1:  -470.70858641203000   -1.05922e+00   4.24241e-03 DIIS
   @RHF iter   2:  -470.93348723605305   -2.24901e-01   2.22437e-03 DIIS
   @RHF iter   3:  -470.99222371940209   -5.87365e-02   3.88422e-04 DIIS
   @RHF iter   4:  -470.99539556291660   -3.17184e-03   1.30688e-04 DIIS
   @RHF iter   5:  -470.99575238155757   -3.56819e-04   2.35020e-05 DIIS
   @RHF iter   6:  -470.99576944685703   -1.70653e-05   8.34135e-06 DIIS
   @RHF iter   7:  -470.99577096254598   -1.51569e-06   2.58817e-06 DIIS
   @RHF iter   8:  -470.99577116337815   -2.00832e-07   1.12429e-06 DIIS
   @RHF iter   9:  -470.99577119116987   -2.77917e-08   3.12084e-07 DIIS
   @RHF iter  10:  -470.99577119485883   -3.68897e-09   1.05330e-07 DIIS
   @RHF iter  11:  -470.99577119541993   -5.61101e-10   3.50844e-08 DIIS
   @RHF iter  12:  -470.99577119549338   -7.34417e-11   1.36374e-08 DIIS
   @RHF iter  13:  -470.99577119550133   -7.95808e-12   4.54811e-09 DIIS
   @RHF iter  14:  -470.99577119550338   -2.04636e-12   1.16027e-09 DIIS
   @RHF iter  15:  -470.99577119550457   -1.19371e-12   4.65013e-10 DIIS
   @RHF iter  16:  -470.99577119550457    0.00000e+00   1.42964e-10 DIIS
   @RHF iter  17:  -470.99577119550145    3.12639e-12   6.15325e-11 DIIS
  Energy and wave function converged.

  ==> Post-Iterations <==

    Orbital Energies [Eh]
    ---------------------

    Doubly Occupied:

       1A    -20.410635     2A    -20.408318     3A    -15.659585
       4A    -15.633563     5A    -15.619616     6A    -11.441495
       7A    -11.306156     8A    -11.257558     9A    -11.164358
      10A     -1.398527    11A     -1.298510    12A     -1.252949
      13A     -1.245315    14A     -1.183083    15A     -0.997976
      16A     -0.913577    17A     -0.893877    18A     -0.831767
      19A     -0.796508    20A     -0.717069    21A     -0.708293
      22A     -0.680927    23A     -0.645875    24A     -0.631698
      25A     -0.608197    26A     -0.581316    27A     -0.543835
      28A     -0.536188    29A     -0.531412    30A     -0.482001
      31A     -0.471423    32A     -0.441832    33A     -0.429561
      34A     -0.329709    35A     -0.318524    36A     -0.312670

    Virtual:

      37A      0.115491    38A      0.149557    39A      0.166615
      40A      0.194729    41A      0.215777    42A      0.238440
      43A      0.241716    44A      0.253373    45A      0.279687
      46A      0.292955    47A      0.299244    48A      0.318119
      49A      0.358114    50A      0.391409    51A      0.419083
      52A      0.458505    53A      0.470665    54A      0.485424
      55A      0.589299    56A      0.594814    57A      0.600264
      58A      0.609823    59A      0.650631    60A      0.663107
      61A      0.669501    62A      0.676359    63A      0.701167
      64A      0.712261    65A      0.718817    66A      0.759623
      67A      0.812190    68A      0.818797    69A      0.826432
      70A      0.844730    71A      0.851514    72A      0.857171
      73A      0.878800    74A      0.913768    75A      0.921222
      76A      0.927079    77A      0.930790    78A      0.943355
      79A      0.958045    80A      0.969161    81A      0.971715
      82A      1.003315    83A      1.040476    84A      1.058810
      85A      1.070801    86A      1.097515    87A      1.116637
      88A      1.144312    89A      1.190760    90A      1.228283
      91A      1.241456    92A      1.252651    93A      1.264748
      94A      1.292260    95A      1.301125    96A      1.338276
      97A      1.358538    98A      1.371582    99A      1.399710
     100A      1.422475   101A      1.454967   102A      1.477848
     103A      1.502462   104A      1.540076   105A      1.560897
     106A      1.598518   107A      1.608138   108A      1.619783
     109A      1.634259   110A      1.665254   111A      1.687465
     112A      1.717376   113A      1.727924   114A      1.742301
     115A      1.784654   116A      1.796134   117A      1.852645
     118A      1.858033   119A      1.871106   120A      1.890607
     121A      1.907764   122A      1.925153   123A      1.926956
     124A      1.964113   125A      1.969366   126A      1.978761
     127A      1.986751   128A      2.005543   129A      2.009851
     130A      2.053439   131A      2.094212   132A      2.155647
     133A      2.162981   134A      2.172564   135A      2.206692
     136A      2.228396   137A      2.256768   138A      2.274084
     139A      2.302319   140A      2.319343   141A      2.337369
     142A      2.386604   143A      2.395360   144A      2.436663
     145A      2.448460   146A      2.469074   147A      2.489967
     148A      2.530234   149A      2.540982   150A      2.580910
     151A      2.605898   152A      2.611179   153A      2.646608
     154A      2.690621   155A      2.722759   156A      2.733093
     157A      2.799943   158A      2.809003   159A      2.848254
     160A      2.865064   161A      2.873627   162A      2.902433
     163A      2.941502   164A      2.964647   165A      2.971145
     166A      3.049931   167A      3.096509   168A      3.129275
     169A      3.150123   170A      3.211105   171A      3.217814
     172A      3.260768   173A      3.301516   174A      3.492602
     175A      3.641089   176A      3.676755   177A      3.720034
     178A      3.789948   179A      3.925161   180A      3.944141
     181A      4.075455

    Final Occupation by Irrep:
              A
    DOCC [    36 ]

  @RHF Final Energy:  -470.99577119550145

   => Energetics <=

    Nuclear Repulsion Energy =            457.6831103862380701
    One-Electron Energy =               -1551.9899614078808554
    Two-Electron Energy =                 623.3110798261413947
    Total Energy =                       -470.9957711955014474

Computation Completed

Properties will be evaluated at   0.000000,   0.000000,   0.000000 [a0]

Properties computed using the SCF density matrix

  Nuclear Dipole Moment: [e a0]
     X:    -2.8946      Y:    -1.4520      Z:     3.7743

  Electronic Dipole Moment: [e a0]
     X:    -1.8998      Y:     2.9224      Z:    -1.8389

  Dipole Moment: [e a0]
     X:    -4.7943      Y:     1.4704      Z:     1.9353     Total:     5.3752

  Dipole Moment: [D]
     X:   -12.1860      Y:     3.7374      Z:     4.9191     Total:    13.6625

*** tstop() called on ds3 at Tue Apr 28 03:11:19 2020
Module time:
	user time   =      45.42 seconds =       0.76 minutes
	system time =      22.65 seconds =       0.38 minutes
	total time  =         66 seconds =       1.10 minutes
Total time:
	user time   =      45.42 seconds =       0.76 minutes
	system time =      22.65 seconds =       0.38 minutes
	total time  =         66 seconds =       1.10 minutes
                                     G D M A

                                 by Anthony Stone

                           version 2.2.06, 22 June 2011

               Distributed Multipoles from Gaussian wavefunctions

Starting at 3:11:19 on 28 Apr 2020

Using SCF density matrix from file ./SSI/SSI-005ARG-012GLU-1-dimer.test.24247.fchk

                         Distributed Multipole Analysis

Standard DMA

Positions and radii in angstrom
Multipole moments in atomic units, ea_0^k for rank k

C          x = -1.987881  y = -1.609121  z =  0.918093 angstrom
           Maximum rank =  0   Radius =  0.650 angstrom
                   Q00  =  -0.112269

C          x = -1.783881  y =  0.796879  z =  0.395093 angstrom
           Maximum rank =  0   Radius =  0.650 angstrom
                   Q00  =   1.062291

N          x = -1.337881  y = -0.450121  z =  0.303093 angstrom
           Maximum rank =  0   Radius =  0.650 angstrom
                   Q00  =  -0.485461

N          x = -2.884881  y =  1.063879  z =  1.075093 angstrom
           Maximum rank =  0   Radius =  0.650 angstrom
                   Q00  =  -0.578866

N          x = -1.130881  y =  1.782879  z = -0.189907 angstrom
           Maximum rank =  0   Radius =  0.650 angstrom
                   Q00  =  -0.586455

H          x = -0.431881  y = -0.605121  z = -0.136907 angstrom
           Maximum rank =  0   Radius =  0.325 angstrom
                   Q00  =   0.280256

H          x = -1.438881  y = -2.513121  z =  0.645093 angstrom
           Maximum rank =  0   Radius =  0.325 angstrom
                   Q00  =   0.176148

H          x = -3.009881  y = -1.707121  z =  0.545093 angstrom
           Maximum rank =  0   Radius =  0.325 angstrom
                   Q00  =   0.078917

H          x = -3.448881  y =  0.315879  z =  1.438093 angstrom
           Maximum rank =  0   Radius =  0.325 angstrom
                   Q00  =   0.250091

H          x = -3.225881  y =  2.010879  z =  1.135093 angstrom
           Maximum rank =  0   Radius =  0.325 angstrom
                   Q00  =   0.238658

H          x = -0.282881  y =  1.572879  z = -0.701907 angstrom
           Maximum rank =  0   Radius =  0.325 angstrom
                   Q00  =   0.291398

H          x = -1.478881  y =  2.726879  z = -0.154907 angstrom
           Maximum rank =  0   Radius =  0.325 angstrom
                   Q00  =   0.233668

H          x = -1.990764  y = -1.511091  z =  2.013712 angstrom
           Maximum rank =  0   Radius =  0.325 angstrom
                   Q00  =   0.090737

C          x =  3.701119  y = -0.561121  z = -0.331907 angstrom
           Maximum rank =  0   Radius =  0.650 angstrom
                   Q00  =  -0.257715

C          x =  2.221119  y = -0.398121  z = -0.647907 angstrom
           Maximum rank =  0   Radius =  0.650 angstrom
                   Q00  =   0.890518

O          x =  1.429119  y = -1.294121  z = -0.279907 angstrom
           Maximum rank =  0   Radius =  0.650 angstrom
                   Q00  =  -0.915259

O          x =  1.841119  y =  0.621879  z = -1.264907 angstrom
           Maximum rank =  0   Radius =  0.650 angstrom
                   Q00  =  -0.917762

H          x =  4.041119  y = -1.545121  z = -0.662907 angstrom
           Maximum rank =  0   Radius =  0.325 angstrom
                   Q00  =   0.092794

H          x =  3.840119  y = -0.492121  z =  0.750093 angstrom
           Maximum rank =  0   Radius =  0.325 angstrom
                   Q00  =   0.091045

H          x =  4.305685  y =  0.209249  z = -0.832937 angstrom
           Maximum rank =  0   Radius =  0.325 angstrom
                   Q00  =   0.077266

Total multipoles referred to origin at
           x =   0.000000,  y =    0.000000,  z =    0.000000 angstrom
                   Q00  =  -0.000000

Finished at 3:11:20 on 28 Apr 2020

  DMA results are available in the Python driver through the
	  variable('DMA DISTRIBUTED MULTIPOLES')
  and
	  variable('DMA TOTAL MULTIPOLES')
  commands.

    Psi4 stopped on: Tuesday, 28 April 2020 03:11AM
    Psi4 wall time for execution: 0:01:06.27

*** Psi4 exiting successfully. Buy a developer a beer!
