                               Psi4 1.3.2 release

  ==> Input File <==

--------------------------------------------------------------------------
import numpy as np
set {scf_type pk
basis cc-pvdz
d_convergence 10
gdma_switch   0
gdma_limit    0
gdma_origin   [ 0.0,  0.0,  0.0 ]
}
molecule test {
    units Angstrom
    0 1
    --
    0 1
    C               -1.364005779956579    -2.632652025059396     0.332145611362257
    C               -1.633005779956580    -4.143652025059395     0.395145611362257
    H               -0.543005779956580    -2.423652025059396    -0.355854388637743
    H               -2.250005779956580    -2.095652025059396    -0.003854388637743
    H               -1.101005779956580    -2.265652025059396     1.319145611362257
    H               -2.498005779956579    -4.295652025059396     1.043145611362257
    H               -0.777425779956580    -4.657572025059396     0.857605611362257
    H               -1.903405779956580    -4.552472025059396    -0.589614388637743
    C                0.152994220043420     0.492347974940604     1.553145611362257
    C               -0.201005779956580     1.715347974940604     2.391145611362257
    C                0.487994220043420     0.796347974940604     0.136145611362257
    C                1.681994220043420     0.746347974940604    -0.505854388637743
    C                0.153994220043420     1.340347974940604    -1.952854388637743
    N               -0.463005779956580     1.147347974940604    -0.791854388637743
    N                1.452994220043420     1.104347974940605    -1.808854388637743
    H                1.001994220043420    -0.021652025059396     2.004145611362257
    H               -0.701005779956580    -0.178652025059396     1.565145611362257
    H                0.604994220043420     2.445347974940605     2.310145611362257
    H                2.633994220043420     0.481347974940604    -0.060854388637743
    H               -0.328005779956580     1.626347974940604    -2.879854388637743
    H                2.144994220043420     1.168347974940604    -2.547854388637743
    H               -0.299265779956580     1.398047974940605     3.439795611362257
    H               -1.154785779956580     2.155387974940604     2.064545611362257

}
e, wfn = energy('scf', return_wfn=True)
gdma(wfn)
dmavals = variable('DMA DISTRIBUTED MULTIPOLES')
charges = np.array(dmavals)
print(charges)
np.save('SSI-008ILE-012HIE-1-dimer.npy', np.array(charges))--------------------------------------------------------------------------

*** tstart() called on ds3
*** at Mon Apr 27 07:32:16 2020

   => Loading Basis Set <=

    Name: CC-PVDZ
    Role: ORBITAL
    Keyword: BASIS
    atoms 1-2, 9-13  entry C          line   138 file /theoryfs2/ds/metcalf/miniconda2/envs/tf2gpu/share/psi4/basis/cc-pvdz.gbs
    atoms 3-8, 16-23 entry H          line    22 file /theoryfs2/ds/metcalf/miniconda2/envs/tf2gpu/share/psi4/basis/cc-pvdz.gbs
    atoms 14-15      entry N          line   168 file /theoryfs2/ds/metcalf/miniconda2/envs/tf2gpu/share/psi4/basis/cc-pvdz.gbs

         ---------------------------------------------------------
                                   SCF
               by Justin Turney, Rob Parrish, Andy Simmonett
                          and Daniel G. A. Smith
                              RHF Reference
                        1 Threads,    500 MiB Core
         ---------------------------------------------------------

  ==> Geometry <==

    Molecular point group: c1
    Full point group: C1

    Geometry (in Angstrom), charge = 0, multiplicity = 1:

       Center              X                  Y                   Z               Mass
    ------------   -----------------  -----------------  -----------------  -----------------
         C           -1.364005779957    -2.632652025059     0.332145611362    12.000000000000
         C           -1.633005779957    -4.143652025059     0.395145611362    12.000000000000
         H           -0.543005779957    -2.423652025059    -0.355854388638     1.007825032230
         H           -2.250005779957    -2.095652025059    -0.003854388638     1.007825032230
         H           -1.101005779957    -2.265652025059     1.319145611362     1.007825032230
         H           -2.498005779957    -4.295652025059     1.043145611362     1.007825032230
         H           -0.777425779957    -4.657572025059     0.857605611362     1.007825032230
         H           -1.903405779957    -4.552472025059    -0.589614388638     1.007825032230
         C            0.152994220043     0.492347974941     1.553145611362    12.000000000000
         C           -0.201005779957     1.715347974941     2.391145611362    12.000000000000
         C            0.487994220043     0.796347974941     0.136145611362    12.000000000000
         C            1.681994220043     0.746347974941    -0.505854388638    12.000000000000
         C            0.153994220043     1.340347974941    -1.952854388638    12.000000000000
         N           -0.463005779957     1.147347974941    -0.791854388638    14.003074004430
         N            1.452994220043     1.104347974941    -1.808854388638    14.003074004430
         H            1.001994220043    -0.021652025059     2.004145611362     1.007825032230
         H           -0.701005779957    -0.178652025059     1.565145611362     1.007825032230
         H            0.604994220043     2.445347974941     2.310145611362     1.007825032230
         H            2.633994220043     0.481347974941    -0.060854388638     1.007825032230
         H           -0.328005779957     1.626347974941    -2.879854388638     1.007825032230
         H            2.144994220043     1.168347974941    -2.547854388638     1.007825032230
         H           -0.299265779957     1.398047974941     3.439795611362     1.007825032230
         H           -1.154785779957     2.155387974941     2.064545611362     1.007825032230

  Running in c1 symmetry.

  Rotational constants: A =      0.05514  B =      0.02575  C =      0.02002 [cm^-1]
  Rotational constants: A =   1653.08013  B =    772.05094  C =    600.27745 [MHz]
  Nuclear repulsion =  432.154155360932975

  Charge       = 0
  Multiplicity = 1
  Electrons    = 70
  Nalpha       = 35
  Nbeta        = 35

  ==> Algorithm <==

  SCF Algorithm Type is PK.
  DIIS enabled.
  MOM disabled.
  Fractional occupation disabled.
  Guess Type is SAD.
  Energy threshold   = 1.00e-06
  Density threshold  = 1.00e-10
  Integral threshold = 0.00e+00

  ==> Primary Basis <==

  Basis Set: CC-PVDZ
    Blend: CC-PVDZ
    Number of shells: 96
    Number of basis function: 196
    Number of Cartesian functions: 205
    Spherical Harmonics?: true
    Max angular momentum: 2

  ==> Pre-Iterations <==

   -------------------------------------------------------
    Irrep   Nso     Nmo     Nalpha   Nbeta   Ndocc  Nsocc
   -------------------------------------------------------
     A        196     196       0       0       0       0
   -------------------------------------------------------
    Total     196     196      35      35      35       0
   -------------------------------------------------------

  ==> Integral Setup <==

  Using integral reordering PK algorithm.
  Sizing the integral batches needed.
  Building batch lookup table.
   Calculation information:
      Number of atoms:                  23
      Number of AO shells:              96
      Number of primitives:            268
      Number of atomic orbitals:       205
      Number of basis functions:       196

      Integral cutoff                 1.00e-12
      Number of threads:                 1

	Batch   1 pq = [       0,    9405] index = [             0,44231715] size =     44231715
	Batch   2 pq = [    9405,   13301] index = [      44231715,88464951] size =     44233236
	Batch   3 pq = [   13301,   16290] index = [      88464951,132690195] size =     44225244
	Batch   4 pq = [   16290,   18810] index = [     132690195,176917455] size =     44227260
	Batch   5 pq = [   18810,   19306] index = [     176917455,186370471] size =      9453016
  Task number: 17
  Buffer size: 11059200
  Buffer per thread: 2
  We computed 9003880 shell quartets total.
  Whereas there are 10841496 unique shell quartets.

  ==> DiskJK: Disk-Based J/K Matrices <==

    J tasked:                  Yes
    K tasked:                  Yes
    wK tasked:                  No
    Memory [MiB]:              375
    Schwarz Cutoff:          1E-12

    OpenMP threads:              1

  Minimum eigenvalue in the overlap matrix is 1.1349569387E-03.
  Using Symmetric Orthogonalization.

  SCF Guess: Superposition of Atomic Densities via on-the-fly atomic UHF.

  ==> Iterations <==

                        Total Energy        Delta E     RMS |[F,P]|

   @RHF iter SAD:  -381.26385235262819   -3.81264e+02   0.00000e+00
   @RHF iter   1:  -381.89361780092486   -6.29765e-01   3.14150e-03 DIIS
   @RHF iter   2:  -382.08954528130926   -1.95927e-01   1.61225e-03 DIIS
   @RHF iter   3:  -382.13729551780023   -4.77502e-02   4.16421e-04 DIIS
   @RHF iter   4:  -382.14140380640993   -4.10829e-03   1.74942e-04 DIIS
   @RHF iter   5:  -382.14207120289416   -6.67396e-04   2.35624e-05 DIIS
   @RHF iter   6:  -382.14209260644458   -2.14036e-05   9.63556e-06 DIIS
   @RHF iter   7:  -382.14209539992567   -2.79348e-06   3.25106e-06 DIIS
   @RHF iter   8:  -382.14209593325330   -5.33328e-07   1.30238e-06 DIIS
   @RHF iter   9:  -382.14209605304256   -1.19789e-07   4.61452e-07 DIIS
   @RHF iter  10:  -382.14209606613758   -1.30950e-08   1.55943e-07 DIIS
   @RHF iter  11:  -382.14209606792815   -1.79057e-09   6.10008e-08 DIIS
   @RHF iter  12:  -382.14209606814529   -2.17142e-10   2.52988e-08 DIIS
   @RHF iter  13:  -382.14209606818196   -3.66640e-11   7.36035e-09 DIIS
   @RHF iter  14:  -382.14209606818548   -3.52429e-12   2.76836e-09 DIIS
   @RHF iter  15:  -382.14209606818594   -4.54747e-13   1.02983e-09 DIIS
   @RHF iter  16:  -382.14209606818741   -1.47793e-12   3.72187e-10 DIIS
   @RHF iter  17:  -382.14209606818599    1.42109e-12   1.30733e-10 DIIS
   @RHF iter  18:  -382.14209606818559    3.97904e-13   3.78692e-11 DIIS
  Energy and wave function converged.

  ==> Post-Iterations <==

    Orbital Energies [Eh]
    ---------------------

    Doubly Occupied:

       1A    -15.621380     2A    -15.528287     3A    -11.292110
       4A    -11.248787     5A    -11.235448     6A    -11.218444
       7A    -11.212843     8A    -11.211768     9A    -11.206158
      10A     -1.343492    11A     -1.157199    12A     -1.050611
      13A     -1.007779    14A     -0.984106    15A     -0.857498
      16A     -0.829007    17A     -0.819498    18A     -0.759618
      19A     -0.733901    20A     -0.623485    21A     -0.606460
      22A     -0.595774    23A     -0.591743    24A     -0.586197
      25A     -0.581811    26A     -0.561190    27A     -0.511272
      28A     -0.496790    29A     -0.484810    30A     -0.480310
      31A     -0.475426    32A     -0.472743    33A     -0.411667
      34A     -0.378067    35A     -0.308018

    Virtual:

      36A      0.173352    37A      0.182384    38A      0.192784
      39A      0.200606    40A      0.220441    41A      0.227168
      42A      0.241026    43A      0.248616    44A      0.255375
      45A      0.264521    46A      0.269546    47A      0.281685
      48A      0.288242    49A      0.296034    50A      0.300779
      51A      0.334400    52A      0.380944    53A      0.393110
      54A      0.404460    55A      0.414189    56A      0.453611
      57A      0.483585    58A      0.490086    59A      0.577046
      60A      0.600331    61A      0.602329    62A      0.611333
      63A      0.624884    64A      0.641252    65A      0.658641
      66A      0.674871    67A      0.687016    68A      0.703877
      69A      0.707271    70A      0.735052    71A      0.752107
      72A      0.769242    73A      0.776882    74A      0.819371
      75A      0.827485    76A      0.852100    77A      0.874675
      78A      0.891994    79A      0.897527    80A      0.899541
      81A      0.902261    82A      0.912399    83A      0.916975
      84A      0.919511    85A      0.928376    86A      0.932061
      87A      0.948024    88A      0.954580    89A      0.969220
      90A      0.975630    91A      0.981222    92A      0.996032
      93A      1.033566    94A      1.048998    95A      1.069249
      96A      1.099101    97A      1.103532    98A      1.133936
      99A      1.138021   100A      1.141753   101A      1.152267
     102A      1.186092   103A      1.239561   104A      1.250392
     105A      1.268675   106A      1.307492   107A      1.325419
     108A      1.330797   109A      1.413743   110A      1.422796
     111A      1.434858   112A      1.455761   113A      1.480196
     114A      1.492009   115A      1.508689   116A      1.545069
     117A      1.558603   118A      1.599452   119A      1.605991
     120A      1.673449   121A      1.684761   122A      1.696802
     123A      1.708786   124A      1.733217   125A      1.745206
     126A      1.773916   127A      1.828851   128A      1.840385
     129A      1.858114   130A      1.880522   131A      1.887036
     132A      1.892146   133A      1.905145   134A      1.926643
     135A      1.932773   136A      1.946342   137A      1.953268
     138A      1.955397   139A      1.961127   140A      1.968828
     141A      1.974075   142A      1.986595   143A      1.999510
     144A      2.012324   145A      2.030121   146A      2.039099
     147A      2.058492   148A      2.074094   149A      2.095785
     150A      2.097556   151A      2.131033   152A      2.144649
     153A      2.162529   154A      2.174694   155A      2.219710
     156A      2.263211   157A      2.292786   158A      2.310193
     159A      2.317125   160A      2.323563   161A      2.369149
     162A      2.398603   163A      2.442778   164A      2.452226
     165A      2.456230   166A      2.484988   167A      2.493441
     168A      2.511427   169A      2.564411   170A      2.577342
     171A      2.581841   172A      2.603242   173A      2.613990
     174A      2.686683   175A      2.746320   176A      2.765525
     177A      2.771703   178A      2.775588   179A      2.803760
     180A      2.805362   181A      2.844693   182A      2.853678
     183A      2.868228   184A      2.878413   185A      2.897324
     186A      2.911628   187A      2.943218   188A      2.945782
     189A      2.953740   190A      2.982714   191A      3.017251
     192A      3.087984   193A      3.181955   194A      3.279245
     195A      3.479349   196A      3.796970

    Final Occupation by Irrep:
              A
    DOCC [    35 ]

  @RHF Final Energy:  -382.14209606818559

   => Energetics <=

    Nuclear Repulsion Energy =            432.1541553609329753
    One-Electron Energy =               -1373.6251047448558893
    Two-Electron Energy =                 559.3288533157374331
    Total Energy =                       -382.1420960681855377

Computation Completed

Properties will be evaluated at   0.000000,   0.000000,   0.000000 [a0]

Properties computed using the SCF density matrix

  Nuclear Dipole Moment: [e a0]
     X:    -4.8495      Y:   -10.5213      Z:     7.6627

  Electronic Dipole Moment: [e a0]
     X:     6.0097      Y:    10.5534      Z:    -8.3992

  Dipole Moment: [e a0]
     X:     1.1602      Y:     0.0321      Z:    -0.7365     Total:     1.3746

  Dipole Moment: [D]
     X:     2.9489      Y:     0.0815      Z:    -1.8720     Total:     3.4939

*** tstop() called on ds3 at Mon Apr 27 07:34:24 2020
Module time:
	user time   =      65.99 seconds =       1.10 minutes
	system time =      32.55 seconds =       0.54 minutes
	total time  =        128 seconds =       2.13 minutes
Total time:
	user time   =      65.99 seconds =       1.10 minutes
	system time =      32.55 seconds =       0.54 minutes
	total time  =        128 seconds =       2.13 minutes
                                     G D M A

                                 by Anthony Stone

                           version 2.2.06, 22 June 2011

               Distributed Multipoles from Gaussian wavefunctions

Starting at 7:34:24 on 27 Apr 2020

Using SCF density matrix from file ./SSI/SSI-008ILE-012HIE-1-dimer.test.23425.fchk

                         Distributed Multipole Analysis

Standard DMA

Positions and radii in angstrom
Multipole moments in atomic units, ea_0^k for rank k

C          x = -1.364006  y = -2.632652  z =  0.332146 angstrom
           Maximum rank =  0   Radius =  0.650 angstrom
                   Q00  =  -0.236866

C          x = -1.633006  y = -4.143652  z =  0.395146 angstrom
           Maximum rank =  0   Radius =  0.650 angstrom
                   Q00  =  -0.233857

H          x = -0.543006  y = -2.423652  z = -0.355854 angstrom
           Maximum rank =  0   Radius =  0.325 angstrom
                   Q00  =   0.082243

H          x = -2.250006  y = -2.095652  z = -0.003854 angstrom
           Maximum rank =  0   Radius =  0.325 angstrom
                   Q00  =   0.084214

H          x = -1.101006  y = -2.265652  z =  1.319146 angstrom
           Maximum rank =  0   Radius =  0.325 angstrom
                   Q00  =   0.074339

H          x = -2.498006  y = -4.295652  z =  1.043146 angstrom
           Maximum rank =  0   Radius =  0.325 angstrom
                   Q00  =   0.074189

H          x = -0.777426  y = -4.657572  z =  0.857606 angstrom
           Maximum rank =  0   Radius =  0.325 angstrom
                   Q00  =   0.078188

H          x = -1.903406  y = -4.552472  z = -0.589614 angstrom
           Maximum rank =  0   Radius =  0.325 angstrom
                   Q00  =   0.080471

C          x =  0.152994  y =  0.492348  z =  1.553146 angstrom
           Maximum rank =  0   Radius =  0.650 angstrom
                   Q00  =  -0.012374

C          x = -0.201006  y =  1.715348  z =  2.391146 angstrom
           Maximum rank =  0   Radius =  0.650 angstrom
                   Q00  =  -0.249294

C          x =  0.487994  y =  0.796348  z =  0.136146 angstrom
           Maximum rank =  0   Radius =  0.650 angstrom
                   Q00  =   0.225741

C          x =  1.681994  y =  0.746348  z = -0.505854 angstrom
           Maximum rank =  0   Radius =  0.650 angstrom
                   Q00  =  -0.006957

C          x =  0.153994  y =  1.340348  z = -1.952854 angstrom
           Maximum rank =  0   Radius =  0.650 angstrom
                   Q00  =   0.457246

N          x = -0.463006  y =  1.147348  z = -0.791854 angstrom
           Maximum rank =  0   Radius =  0.650 angstrom
                   Q00  =  -0.779044

N          x =  1.452994  y =  1.104348  z = -1.808854 angstrom
           Maximum rank =  0   Radius =  0.650 angstrom
                   Q00  =  -0.472384

H          x =  1.001994  y = -0.021652  z =  2.004146 angstrom
           Maximum rank =  0   Radius =  0.325 angstrom
                   Q00  =   0.054672

H          x = -0.701006  y = -0.178652  z =  1.565146 angstrom
           Maximum rank =  0   Radius =  0.325 angstrom
                   Q00  =   0.086154

H          x =  0.604994  y =  2.445348  z =  2.310146 angstrom
           Maximum rank =  0   Radius =  0.325 angstrom
                   Q00  =   0.075562

H          x =  2.633994  y =  0.481348  z = -0.060854 angstrom
           Maximum rank =  0   Radius =  0.325 angstrom
                   Q00  =   0.102789

H          x = -0.328006  y =  1.626348  z = -2.879854 angstrom
           Maximum rank =  0   Radius =  0.325 angstrom
                   Q00  =   0.121450

H          x =  2.144994  y =  1.168348  z = -2.547854 angstrom
           Maximum rank =  0   Radius =  0.325 angstrom
                   Q00  =   0.222305

H          x = -0.299266  y =  1.398048  z =  3.439796 angstrom
           Maximum rank =  0   Radius =  0.325 angstrom
                   Q00  =   0.075294

H          x = -1.154786  y =  2.155388  z =  2.064546 angstrom
           Maximum rank =  0   Radius =  0.325 angstrom
                   Q00  =   0.095920

Total multipoles referred to origin at
           x =   0.000000,  y =    0.000000,  z =    0.000000 angstrom
                   Q00  =  -0.000000

Finished at 7:34:24 on 27 Apr 2020

  DMA results are available in the Python driver through the
	  variable('DMA DISTRIBUTED MULTIPOLES')
  and
	  variable('DMA TOTAL MULTIPOLES')
  commands.

    Psi4 stopped on: Monday, 27 April 2020 07:34AM
    Psi4 wall time for execution: 0:02:07.78

*** Psi4 exiting successfully. Buy a developer a beer!
