                               Psi4 1.3.2 release

  ==> Input File <==

--------------------------------------------------------------------------
import numpy as np
set {scf_type pk
basis cc-pvdz
d_convergence 10
gdma_switch   0
gdma_limit    0
gdma_origin   [ 0.0,  0.0,  0.0 ]
}
molecule test {
    units Angstrom
    0 1
    --
    0 1
    C                2.167955770001754     3.071253048183340     1.294240069167368
    C               -0.205044229998246     2.962253048183340     0.259240069167368
    C                1.135955770001753     2.759253048183340     0.273240069167368
    C                0.357955770001754     2.049253048183340    -1.636759930832632
    N               -0.666044229998246     2.548253048183339    -0.964759930832632
    N                1.464955770001753     2.164253048183340    -0.908759930832633
    H               -0.795044229998246     3.417253048183340     1.045240069167368
    H               -1.625044229998246     2.577253048183339    -1.295759930832632
    H                2.753955770001754     3.909253048183340     0.913240069167368
    H                2.835955770001754     2.215253048183340     1.388240069167368
    H                0.314955770001754     1.633253048183339    -2.627759930832632
    H                1.770760770001754     3.340913048183340     2.283950069167368
    C               -1.656044229998247    -4.375746951816661    -0.584759930832632
    C               -1.114044229998246    -0.719746951816661     0.313240069167368
    C                0.154955770001754    -0.759746951816661     0.868240069167368
    C               -1.704044229998247    -1.889746951816661    -0.160759930832632
    C               -1.030044229998246    -3.108746951816661    -0.081759930832632
    C                0.830955770001754    -1.971746951816661     0.957240069167368
    C                0.240955770001754    -3.132746951816661     0.479240069167368
    H               -1.646044229998247     0.218253048183339     0.245240069167368
    H                0.616955770001754     0.146253048183339     1.231240069167368
    H               -2.691044229998246    -1.847746951816661    -0.597759930832632
    H                1.820955770001754    -2.004746951816661     1.390240069167368
    H               -2.739044229998246    -4.255746951816660    -0.619759930832632
    H               -1.439044229998246    -5.171746951816661     0.125240069167368
    H                0.777955770001754    -4.067746951816661     0.545240069167368
    H               -1.287194229998247    -4.669246951816660    -1.578639930832632

}
e, wfn = energy('scf', return_wfn=True)
gdma(wfn)
dmavals = variable('DMA DISTRIBUTED MULTIPOLES')
charges = np.array(dmavals)
print(charges)
np.save('SSI-021HIE-061PHE-1-dimer.npy', np.array(charges))--------------------------------------------------------------------------

*** tstart() called on ds3
*** at Mon Apr 27 09:27:26 2020

   => Loading Basis Set <=

    Name: CC-PVDZ
    Role: ORBITAL
    Keyword: BASIS
    atoms 1-4, 13-19  entry C          line   138 file /theoryfs2/ds/metcalf/miniconda2/envs/tf2gpu/share/psi4/basis/cc-pvdz.gbs
    atoms 5-6         entry N          line   168 file /theoryfs2/ds/metcalf/miniconda2/envs/tf2gpu/share/psi4/basis/cc-pvdz.gbs
    atoms 7-12, 20-27 entry H          line    22 file /theoryfs2/ds/metcalf/miniconda2/envs/tf2gpu/share/psi4/basis/cc-pvdz.gbs

         ---------------------------------------------------------
                                   SCF
               by Justin Turney, Rob Parrish, Andy Simmonett
                          and Daniel G. A. Smith
                              RHF Reference
                        1 Threads,    500 MiB Core
         ---------------------------------------------------------

  ==> Geometry <==

    Molecular point group: c1
    Full point group: C1

    Geometry (in Angstrom), charge = 0, multiplicity = 1:

       Center              X                  Y                   Z               Mass
    ------------   -----------------  -----------------  -----------------  -----------------
         C            2.167955770002     3.071253048183     1.294240069167    12.000000000000
         C           -0.205044229998     2.962253048183     0.259240069167    12.000000000000
         C            1.135955770002     2.759253048183     0.273240069167    12.000000000000
         C            0.357955770002     2.049253048183    -1.636759930833    12.000000000000
         N           -0.666044229998     2.548253048183    -0.964759930833    14.003074004430
         N            1.464955770002     2.164253048183    -0.908759930833    14.003074004430
         H           -0.795044229998     3.417253048183     1.045240069167     1.007825032230
         H           -1.625044229998     2.577253048183    -1.295759930833     1.007825032230
         H            2.753955770002     3.909253048183     0.913240069167     1.007825032230
         H            2.835955770002     2.215253048183     1.388240069167     1.007825032230
         H            0.314955770002     1.633253048183    -2.627759930833     1.007825032230
         H            1.770760770002     3.340913048183     2.283950069167     1.007825032230
         C           -1.656044229998    -4.375746951817    -0.584759930833    12.000000000000
         C           -1.114044229998    -0.719746951817     0.313240069167    12.000000000000
         C            0.154955770002    -0.759746951817     0.868240069167    12.000000000000
         C           -1.704044229998    -1.889746951817    -0.160759930833    12.000000000000
         C           -1.030044229998    -3.108746951817    -0.081759930833    12.000000000000
         C            0.830955770002    -1.971746951817     0.957240069167    12.000000000000
         C            0.240955770002    -3.132746951817     0.479240069167    12.000000000000
         H           -1.646044229998     0.218253048183     0.245240069167     1.007825032230
         H            0.616955770002     0.146253048183     1.231240069167     1.007825032230
         H           -2.691044229998    -1.847746951817    -0.597759930833     1.007825032230
         H            1.820955770002    -2.004746951817     1.390240069167     1.007825032230
         H           -2.739044229998    -4.255746951817    -0.619759930833     1.007825032230
         H           -1.439044229998    -5.171746951817     0.125240069167     1.007825032230
         H            0.777955770002    -4.067746951817     0.545240069167     1.007825032230
         H           -1.287194229998    -4.669246951817    -1.578639930833     1.007825032230

  Running in c1 symmetry.

  Rotational constants: A =      0.05688  B =      0.01204  C =      0.01090 [cm^-1]
  Rotational constants: A =   1705.28004  B =    360.80110  C =    326.76550 [MHz]
  Nuclear repulsion =  720.000658046365061

  Charge       = 0
  Multiplicity = 1
  Electrons    = 94
  Nalpha       = 47
  Nbeta        = 47

  ==> Algorithm <==

  SCF Algorithm Type is PK.
  DIIS enabled.
  MOM disabled.
  Fractional occupation disabled.
  Guess Type is SAD.
  Energy threshold   = 1.00e-06
  Density threshold  = 1.00e-10
  Integral threshold = 0.00e+00

  ==> Primary Basis <==

  Basis Set: CC-PVDZ
    Blend: CC-PVDZ
    Number of shells: 120
    Number of basis function: 252
    Number of Cartesian functions: 265
    Spherical Harmonics?: true
    Max angular momentum: 2

  ==> Pre-Iterations <==

   -------------------------------------------------------
    Irrep   Nso     Nmo     Nalpha   Nbeta   Ndocc  Nsocc
   -------------------------------------------------------
     A        252     252       0       0       0       0
   -------------------------------------------------------
    Total     252     252      47      47      47       0
   -------------------------------------------------------

  ==> Integral Setup <==

  Using integral reordering PK algorithm.
  Sizing the integral batches needed.
  Building batch lookup table.
   Calculation information:
      Number of atoms:                  27
      Number of AO shells:             120
      Number of primitives:            356
      Number of atomic orbitals:       265
      Number of basis functions:       252

      Integral cutoff                 1.00e-12
      Number of threads:                 1

	Batch   1 pq = [       0,    9405] index = [             0,44231715] size =     44231715
	Batch   2 pq = [    9405,   13301] index = [      44231715,88464951] size =     44233236
	Batch   3 pq = [   13301,   16290] index = [      88464951,132690195] size =     44225244
	Batch   4 pq = [   16290,   18810] index = [     132690195,176917455] size =     44227260
	Batch   5 pq = [   18810,   21030] index = [     176917455,221140965] size =     44223510
	Batch   6 pq = [   21030,   23037] index = [     221140965,265363203] size =     44222238
	Batch   7 pq = [   23037,   24883] index = [     265363203,309594286] size =     44231083
	Batch   8 pq = [   24883,   26601] index = [     309594286,353819901] size =     44225615
	Batch   9 pq = [   26601,   28214] index = [     353819901,398029005] size =     44209104
	Batch  10 pq = [   28214,   29740] index = [     398029005,442248670] size =     44219665
	Batch  11 pq = [   29740,   31191] index = [     442248670,486454836] size =     44206166
	Batch  12 pq = [   31191,   31878] index = [     486454836,508119381] size =     21664545
  Task number: 46
  Buffer size: 11059200
  Buffer per thread: 2
  We computed 23662514 shell quartets total.
  Whereas there are 26357430 unique shell quartets.

  ==> DiskJK: Disk-Based J/K Matrices <==

    J tasked:                  Yes
    K tasked:                  Yes
    wK tasked:                  No
    Memory [MiB]:              375
    Schwarz Cutoff:          1E-12

    OpenMP threads:              1

  Minimum eigenvalue in the overlap matrix is 2.9283987285E-04.
  Using Symmetric Orthogonalization.

  SCF Guess: Superposition of Atomic Densities via on-the-fly atomic UHF.

  ==> Iterations <==

                        Total Energy        Delta E     RMS |[F,P]|

   @RHF iter SAD:  -532.86056976490215   -5.32861e+02   0.00000e+00
   @RHF iter   1:  -533.34477705200470   -4.84207e-01   2.58236e-03 DIIS
   @RHF iter   2:  -533.57843350029975   -2.33656e-01   1.25815e-03 DIIS
   @RHF iter   3:  -533.62675726543489   -4.83238e-02   3.41724e-04 DIIS
   @RHF iter   4:  -533.63122326450616   -4.46600e-03   1.40854e-04 DIIS
   @RHF iter   5:  -533.63191408173407   -6.90817e-04   1.98532e-05 DIIS
   @RHF iter   6:  -533.63193734683216   -2.32651e-05   8.33491e-06 DIIS
   @RHF iter   7:  -533.63194108289940   -3.73607e-06   2.66663e-06 DIIS
   @RHF iter   8:  -533.63194174687771   -6.63978e-07   1.12971e-06 DIIS
   @RHF iter   9:  -533.63194188563978   -1.38762e-07   4.51538e-07 DIIS
   @RHF iter  10:  -533.63194190665831   -2.10185e-08   1.42361e-07 DIIS
   @RHF iter  11:  -533.63194190922036   -2.56205e-09   5.89081e-08 DIIS
   @RHF iter  12:  -533.63194190958973   -3.69369e-10   2.76575e-08 DIIS
   @RHF iter  13:  -533.63194190966499   -7.52607e-11   8.85645e-09 DIIS
   @RHF iter  14:  -533.63194190967931   -1.43245e-11   3.81361e-09 DIIS
   @RHF iter  15:  -533.63194190967954   -2.27374e-13   1.82015e-09 DIIS
   @RHF iter  16:  -533.63194190967613    3.41061e-12   6.95499e-10 DIIS
   @RHF iter  17:  -533.63194190967761   -1.47793e-12   2.65733e-10 DIIS
   @RHF iter  18:  -533.63194190967772   -1.13687e-13   1.20046e-10 DIIS
   @RHF iter  19:  -533.63194190967852   -7.95808e-13   4.97775e-11 DIIS
  Energy and wave function converged.

  ==> Post-Iterations <==

    Orbital Energies [Eh]
    ---------------------

    Doubly Occupied:

       1A    -15.622982     2A    -15.526441     3A    -11.291352
       4A    -11.249020     5A    -11.240508     6A    -11.233934
       7A    -11.227903     8A    -11.227008     9A    -11.225788
      10A    -11.225657    11A    -11.223626    12A    -11.223048
      13A    -11.220949    14A     -1.347249    15A     -1.160515
      16A     -1.147963    17A     -1.040070    18A     -1.031631
      19A     -1.006114    20A     -0.944506    21A     -0.926853
      22A     -0.822170    23A     -0.819236    24A     -0.789826
      25A     -0.763638    26A     -0.743773    27A     -0.685540
      28A     -0.626754    29A     -0.624755    30A     -0.613418
      31A     -0.608181    32A     -0.595796    33A     -0.576463
      34A     -0.574498    35A     -0.555710    36A     -0.552511
      37A     -0.542755    38A     -0.531849    39A     -0.525941
      40A     -0.481392    41A     -0.478260    42A     -0.476771
      43A     -0.412267    44A     -0.380180    45A     -0.327384
      46A     -0.316149    47A     -0.307419

    Virtual:

      48A      0.141742    49A      0.148205    50A      0.165160
      51A      0.188198    52A      0.190400    53A      0.195283
      54A      0.216228    55A      0.223897    56A      0.227743
      57A      0.230633    58A      0.239331    59A      0.260416
      60A      0.267930    61A      0.272253    62A      0.284778
      63A      0.292973    64A      0.299625    65A      0.321114
      66A      0.371103    67A      0.375370    68A      0.386665
      69A      0.396443    70A      0.422139    71A      0.447054
      72A      0.468053    73A      0.477761    74A      0.489561
      75A      0.494746    76A      0.499020    77A      0.565101
      78A      0.595775    79A      0.608947    80A      0.626414
      81A      0.638861    82A      0.651935    83A      0.658143
      84A      0.669346    85A      0.690415    86A      0.697953
      87A      0.712293    88A      0.722639    89A      0.726377
      90A      0.742935    91A      0.745714    92A      0.750001
      93A      0.759134    94A      0.768292    95A      0.771187
      96A      0.782646    97A      0.786454    98A      0.798495
      99A      0.811245   100A      0.832852   101A      0.842307
     102A      0.850641   103A      0.866691   104A      0.870447
     105A      0.878043   106A      0.885626   107A      0.897718
     108A      0.902357   109A      0.903741   110A      0.915473
     111A      0.918720   112A      0.929641   113A      0.940347
     114A      0.943631   115A      0.959626   116A      0.960548
     117A      0.978375   118A      0.985647   119A      1.013980
     120A      1.024947   121A      1.049082   122A      1.059066
     123A      1.085226   124A      1.098283   125A      1.109320
     126A      1.121774   127A      1.126227   128A      1.152773
     129A      1.163601   130A      1.167604   131A      1.189237
     132A      1.193950   133A      1.212563   134A      1.244957
     135A      1.256782   136A      1.265715   137A      1.271051
     138A      1.274068   139A      1.286516   140A      1.307767
     141A      1.311795   142A      1.325330   143A      1.330328
     144A      1.336051   145A      1.345686   146A      1.364034
     147A      1.421983   148A      1.437164   149A      1.451056
     150A      1.489813   151A      1.505979   152A      1.524873
     153A      1.543252   154A      1.567625   155A      1.572576
     156A      1.611520   157A      1.620594   158A      1.653212
     159A      1.679107   160A      1.690595   161A      1.700347
     162A      1.736394   163A      1.749224   164A      1.761345
     165A      1.767099   166A      1.789562   167A      1.801827
     168A      1.803308   169A      1.818956   170A      1.830350
     171A      1.858010   172A      1.875243   173A      1.900028
     174A      1.903795   175A      1.912318   176A      1.918514
     177A      1.923335   178A      1.929485   179A      1.946265
     180A      1.950442   181A      1.958994   182A      1.960850
     183A      1.966446   184A      1.977231   185A      1.992490
     186A      2.001043   187A      2.017793   188A      2.021710
     189A      2.047498   190A      2.058823   191A      2.072821
     192A      2.083195   193A      2.092214   194A      2.116083
     195A      2.135663   196A      2.144304   197A      2.150700
     198A      2.170701   199A      2.172150   200A      2.177513
     201A      2.194342   202A      2.205025   203A      2.218407
     204A      2.260361   205A      2.262657   206A      2.286231
     207A      2.300733   208A      2.310165   209A      2.329939
     210A      2.343589   211A      2.360890   212A      2.371490
     213A      2.426654   214A      2.450521   215A      2.454841
     216A      2.478208   217A      2.485612   218A      2.501722
     219A      2.514128   220A      2.545530   221A      2.549593
     222A      2.618572   223A      2.638790   224A      2.713804
     225A      2.728561   226A      2.751536   227A      2.762637
     228A      2.766253   229A      2.774096   230A      2.789368
     231A      2.793955   232A      2.820363   233A      2.822832
     234A      2.834146   235A      2.856107   236A      2.870768
     237A      2.880389   238A      2.898636   239A      2.933923
     240A      2.983288   241A      2.996659   242A      3.020490
     243A      3.046323   244A      3.088834   245A      3.166975
     246A      3.183078   247A      3.220112   248A      3.265270
     249A      3.314374   250A      3.490212   251A      3.807207
     252A      3.985154

    Final Occupation by Irrep:
              A
    DOCC [    47 ]

  @RHF Final Energy:  -533.63194190967852

   => Energetics <=

    Nuclear Repulsion Energy =            720.0006580463650607
    One-Electron Energy =               -2151.1136929635749766
    Two-Electron Energy =                 897.4810930075313991
    Total Energy =                       -533.6319419096785168

Computation Completed

Properties will be evaluated at   0.000000,   0.000000,   0.000000 [a0]

Properties computed using the SCF density matrix

  Nuclear Dipole Moment: [e a0]
     X:    -1.2501      Y:    -4.2879      Z:     2.3005

  Electronic Dipole Moment: [e a0]
     X:     0.0163      Y:     4.5304      Z:    -2.4600

  Dipole Moment: [e a0]
     X:    -1.2338      Y:     0.2426      Z:    -0.1595     Total:     1.2675

  Dipole Moment: [D]
     X:    -3.1360      Y:     0.6165      Z:    -0.4053     Total:     3.2216

*** tstop() called on ds3 at Mon Apr 27 09:43:49 2020
Module time:
	user time   =     191.79 seconds =       3.20 minutes
	system time =      77.81 seconds =       1.30 minutes
	total time  =        983 seconds =      16.38 minutes
Total time:
	user time   =     191.79 seconds =       3.20 minutes
	system time =      77.81 seconds =       1.30 minutes
	total time  =        983 seconds =      16.38 minutes
                                     G D M A

                                 by Anthony Stone

                           version 2.2.06, 22 June 2011

               Distributed Multipoles from Gaussian wavefunctions

Starting at 9:43:49 on 27 Apr 2020

Using SCF density matrix from file ./SSI/SSI-021HIE-061PHE-1-dimer.test.1808.fchk

                         Distributed Multipole Analysis

Standard DMA

Positions and radii in angstrom
Multipole moments in atomic units, ea_0^k for rank k

C          x =  2.167956  y =  3.071253  z =  1.294240 angstrom
           Maximum rank =  0   Radius =  0.650 angstrom
                   Q00  =  -0.199526

C          x = -0.205044  y =  2.962253  z =  0.259240 angstrom
           Maximum rank =  0   Radius =  0.650 angstrom
                   Q00  =  -0.021442

C          x =  1.135956  y =  2.759253  z =  0.273240 angstrom
           Maximum rank =  0   Radius =  0.650 angstrom
                   Q00  =   0.229396

C          x =  0.357956  y =  2.049253  z = -1.636760 angstrom
           Maximum rank =  0   Radius =  0.650 angstrom
                   Q00  =   0.466875

N          x = -0.666044  y =  2.548253  z = -0.964760 angstrom
           Maximum rank =  0   Radius =  0.650 angstrom
                   Q00  =  -0.468272

N          x =  1.464956  y =  2.164253  z = -0.908760 angstrom
           Maximum rank =  0   Radius =  0.650 angstrom
                   Q00  =  -0.765882

H          x = -0.795044  y =  3.417253  z =  1.045240 angstrom
           Maximum rank =  0   Radius =  0.325 angstrom
                   Q00  =   0.098006

H          x = -1.625044  y =  2.577253  z = -1.295760 angstrom
           Maximum rank =  0   Radius =  0.325 angstrom
                   Q00  =   0.226350

H          x =  2.753956  y =  3.909253  z =  0.913240 angstrom
           Maximum rank =  0   Radius =  0.325 angstrom
                   Q00  =   0.111972

H          x =  2.835956  y =  2.215253  z =  1.388240 angstrom
           Maximum rank =  0   Radius =  0.325 angstrom
                   Q00  =   0.113701

H          x =  0.314956  y =  1.633253  z = -2.627760 angstrom
           Maximum rank =  0   Radius =  0.325 angstrom
                   Q00  =   0.123661

H          x =  1.770761  y =  3.340913  z =  2.283950 angstrom
           Maximum rank =  0   Radius =  0.325 angstrom
                   Q00  =   0.091457

C          x = -1.656044  y = -4.375747  z = -0.584760 angstrom
           Maximum rank =  0   Radius =  0.650 angstrom
                   Q00  =  -0.201877

C          x = -1.114044  y = -0.719747  z =  0.313240 angstrom
           Maximum rank =  0   Radius =  0.650 angstrom
                   Q00  =  -0.073596

C          x =  0.154956  y = -0.759747  z =  0.868240 angstrom
           Maximum rank =  0   Radius =  0.650 angstrom
                   Q00  =  -0.063848

C          x = -1.704044  y = -1.889747  z = -0.160760 angstrom
           Maximum rank =  0   Radius =  0.650 angstrom
                   Q00  =  -0.056350

C          x = -1.030044  y = -3.108747  z = -0.081760 angstrom
           Maximum rank =  0   Radius =  0.650 angstrom
                   Q00  =  -0.105142

C          x =  0.830956  y = -1.971747  z =  0.957240 angstrom
           Maximum rank =  0   Radius =  0.650 angstrom
                   Q00  =  -0.076229

C          x =  0.240956  y = -3.132747  z =  0.479240 angstrom
           Maximum rank =  0   Radius =  0.650 angstrom
                   Q00  =  -0.005783

H          x = -1.646044  y =  0.218253  z =  0.245240 angstrom
           Maximum rank =  0   Radius =  0.325 angstrom
                   Q00  =   0.046063

H          x =  0.616956  y =  0.146253  z =  1.231240 angstrom
           Maximum rank =  0   Radius =  0.325 angstrom
                   Q00  =   0.069981

H          x = -2.691044  y = -1.847747  z = -0.597760 angstrom
           Maximum rank =  0   Radius =  0.325 angstrom
                   Q00  =   0.049691

H          x =  1.820956  y = -2.004747  z =  1.390240 angstrom
           Maximum rank =  0   Radius =  0.325 angstrom
                   Q00  =   0.062254

H          x = -2.739044  y = -4.255747  z = -0.619760 angstrom
           Maximum rank =  0   Radius =  0.325 angstrom
                   Q00  =   0.095747

H          x = -1.439044  y = -5.171747  z =  0.125240 angstrom
           Maximum rank =  0   Radius =  0.325 angstrom
                   Q00  =   0.098292

H          x =  0.777956  y = -4.067747  z =  0.545240 angstrom
           Maximum rank =  0   Radius =  0.325 angstrom
                   Q00  =   0.051807

H          x = -1.287194  y = -4.669247  z = -1.578640 angstrom
           Maximum rank =  0   Radius =  0.325 angstrom
                   Q00  =   0.102696

Total multipoles referred to origin at
           x =   0.000000,  y =    0.000000,  z =    0.000000 angstrom
                   Q00  =  -0.000000

Finished at 9:43:49 on 27 Apr 2020

  DMA results are available in the Python driver through the
	  variable('DMA DISTRIBUTED MULTIPOLES')
  and
	  variable('DMA TOTAL MULTIPOLES')
  commands.

    Psi4 stopped on: Monday, 27 April 2020 09:43AM
    Psi4 wall time for execution: 0:16:23.26

*** Psi4 exiting successfully. Buy a developer a beer!
