                               Psi4 1.3.2 release

  ==> Input File <==

--------------------------------------------------------------------------
import numpy as np
set {scf_type pk
basis cc-pvdz
d_convergence 10
gdma_switch   0
gdma_limit    0
gdma_origin   [ 0.0,  0.0,  0.0 ]
}
molecule test {
    units Angstrom
    0 1
    --
    0 1
    C                2.588660243400630    -2.237758508880975     0.477705670794803
    C               -0.748339756599370    -0.471758508880975     0.755705670794803
    C                0.140660243400630    -1.315758508880975     0.030705670794803
    C                1.353660243400630    -1.430758508880976     0.805705670794803
    C                1.155660243400630    -0.675758508880975     1.922705670794803
    C               -2.020339756599370    -0.143758508880975     0.291705670794803
    C               -2.421339756599370    -0.670758508880975    -0.926294329205197
    C               -0.291339756599370    -1.837758508880976    -1.199294329205197
    C               -1.570339756599370    -1.509758508880975    -1.668294329205197
    N               -0.096339756599370    -0.104758508880975     1.902705670794803
    H               -0.455339756599370     0.504241491119025     2.629705670794803
    H               -2.673339756599370     0.500241491119025     0.864705670794803
    H                1.881660243400630    -0.538758508880975     2.711705670794803
    H               -3.404339756599370    -0.433758508880975    -1.312294329205197
    H                0.330660243400630    -2.506758508880975    -1.761294329205197
    H                2.277660243400630    -3.232758508880975     0.156705670794803
    H                3.149660243400630    -2.379758508880975     1.399705670794803
    H               -1.912339756599370    -1.912758508880976    -2.612294329205197
    H                3.265790243400630    -1.799447508880976    -0.270211329205197
    C                0.304660243400630     2.589241491119025    -0.625294329205197
    C                0.878660243400630     2.896241491119025    -2.015294329205197
    C                0.209660243400630     3.805241491119025     0.308705670794803
    H               -0.689339756599370     2.155241491119025    -0.745294329205197
    H                0.940660243400630     1.836241491119025    -0.154294329205197
    H                0.263660243400630     3.642241491119025    -2.503294329205197
    H                1.146660243400630     4.354241491119024     0.330705670794803
    H                0.902060243400630     1.987281491119025    -2.634356329205197
    H                1.904860243400630     3.278171491119025    -1.910210329205197
    H               -0.590879756599370     4.476801491119024    -0.035001329205197
    H                0.002610243400630     3.468611491119025     1.335257670794803

}
e, wfn = energy('scf', return_wfn=True)
gdma(wfn)
dmavals = variable('DMA DISTRIBUTED MULTIPOLES')
charges = np.array(dmavals)
print(charges)
np.save('SSI-080TRP-108LEU-1-dimer.npy', np.array(charges))--------------------------------------------------------------------------

*** tstart() called on ds3
*** at Mon Apr 27 08:31:18 2020

   => Loading Basis Set <=

    Name: CC-PVDZ
    Role: ORBITAL
    Keyword: BASIS
    atoms 1-9, 20-22   entry C          line   138 file /theoryfs2/ds/metcalf/miniconda2/envs/tf2gpu/share/psi4/basis/cc-pvdz.gbs
    atoms 10           entry N          line   168 file /theoryfs2/ds/metcalf/miniconda2/envs/tf2gpu/share/psi4/basis/cc-pvdz.gbs
    atoms 11-19, 23-30 entry H          line    22 file /theoryfs2/ds/metcalf/miniconda2/envs/tf2gpu/share/psi4/basis/cc-pvdz.gbs

         ---------------------------------------------------------
                                   SCF
               by Justin Turney, Rob Parrish, Andy Simmonett
                          and Daniel G. A. Smith
                              RHF Reference
                        1 Threads,    500 MiB Core
         ---------------------------------------------------------

  ==> Geometry <==

    Molecular point group: c1
    Full point group: C1

    Geometry (in Angstrom), charge = 0, multiplicity = 1:

       Center              X                  Y                   Z               Mass
    ------------   -----------------  -----------------  -----------------  -----------------
         C            2.588660243401    -2.237758508881     0.477705670795    12.000000000000
         C           -0.748339756599    -0.471758508881     0.755705670795    12.000000000000
         C            0.140660243401    -1.315758508881     0.030705670795    12.000000000000
         C            1.353660243401    -1.430758508881     0.805705670795    12.000000000000
         C            1.155660243401    -0.675758508881     1.922705670795    12.000000000000
         C           -2.020339756599    -0.143758508881     0.291705670795    12.000000000000
         C           -2.421339756599    -0.670758508881    -0.926294329205    12.000000000000
         C           -0.291339756599    -1.837758508881    -1.199294329205    12.000000000000
         C           -1.570339756599    -1.509758508881    -1.668294329205    12.000000000000
         N           -0.096339756599    -0.104758508881     1.902705670795    14.003074004430
         H           -0.455339756599     0.504241491119     2.629705670795     1.007825032230
         H           -2.673339756599     0.500241491119     0.864705670795     1.007825032230
         H            1.881660243401    -0.538758508881     2.711705670795     1.007825032230
         H           -3.404339756599    -0.433758508881    -1.312294329205     1.007825032230
         H            0.330660243401    -2.506758508881    -1.761294329205     1.007825032230
         H            2.277660243401    -3.232758508881     0.156705670795     1.007825032230
         H            3.149660243401    -2.379758508881     1.399705670795     1.007825032230
         H           -1.912339756599    -1.912758508881    -2.612294329205     1.007825032230
         H            3.265790243401    -1.799447508881    -0.270211329205     1.007825032230
         C            0.304660243401     2.589241491119    -0.625294329205    12.000000000000
         C            0.878660243401     2.896241491119    -2.015294329205    12.000000000000
         C            0.209660243401     3.805241491119     0.308705670795    12.000000000000
         H           -0.689339756599     2.155241491119    -0.745294329205     1.007825032230
         H            0.940660243401     1.836241491119    -0.154294329205     1.007825032230
         H            0.263660243401     3.642241491119    -2.503294329205     1.007825032230
         H            1.146660243401     4.354241491119     0.330705670795     1.007825032230
         H            0.902060243401     1.987281491119    -2.634356329205     1.007825032230
         H            1.904860243401     3.278171491119    -1.910210329205     1.007825032230
         H           -0.590879756599     4.476801491119    -0.035001329205     1.007825032230
         H            0.002610243401     3.468611491119     1.335257670795     1.007825032230

  Running in c1 symmetry.

  Rotational constants: A =      0.02763  B =      0.01905  C =      0.01571 [cm^-1]
  Rotational constants: A =    828.19982  B =    571.16984  C =    470.87437 [MHz]
  Nuclear repulsion =  764.826137999810840

  Charge       = 0
  Multiplicity = 1
  Electrons    = 96
  Nalpha       = 48
  Nbeta        = 48

  ==> Algorithm <==

  SCF Algorithm Type is PK.
  DIIS enabled.
  MOM disabled.
  Fractional occupation disabled.
  Guess Type is SAD.
  Energy threshold   = 1.00e-06
  Density threshold  = 1.00e-10
  Integral threshold = 0.00e+00

  ==> Primary Basis <==

  Basis Set: CC-PVDZ
    Blend: CC-PVDZ
    Number of shells: 129
    Number of basis function: 267
    Number of Cartesian functions: 280
    Spherical Harmonics?: true
    Max angular momentum: 2

  ==> Pre-Iterations <==

   -------------------------------------------------------
    Irrep   Nso     Nmo     Nalpha   Nbeta   Ndocc  Nsocc
   -------------------------------------------------------
     A        267     267       0       0       0       0
   -------------------------------------------------------
    Total     267     267      48      48      48       0
   -------------------------------------------------------

  ==> Integral Setup <==

  Using integral reordering PK algorithm.
  Sizing the integral batches needed.
  Building batch lookup table.
   Calculation information:
      Number of atoms:                  30
      Number of AO shells:             129
      Number of primitives:            371
      Number of atomic orbitals:       280
      Number of basis functions:       267

      Integral cutoff                 1.00e-12
      Number of threads:                 1

	Batch   1 pq = [       0,    9405] index = [             0,44231715] size =     44231715
	Batch   2 pq = [    9405,   13301] index = [      44231715,88464951] size =     44233236
	Batch   3 pq = [   13301,   16290] index = [      88464951,132690195] size =     44225244
	Batch   4 pq = [   16290,   18810] index = [     132690195,176917455] size =     44227260
	Batch   5 pq = [   18810,   21030] index = [     176917455,221140965] size =     44223510
	Batch   6 pq = [   21030,   23037] index = [     221140965,265363203] size =     44222238
	Batch   7 pq = [   23037,   24883] index = [     265363203,309594286] size =     44231083
	Batch   8 pq = [   24883,   26601] index = [     309594286,353819901] size =     44225615
	Batch   9 pq = [   26601,   28214] index = [     353819901,398029005] size =     44209104
	Batch  10 pq = [   28214,   29740] index = [     398029005,442248670] size =     44219665
	Batch  11 pq = [   29740,   31191] index = [     442248670,486454836] size =     44206166
	Batch  12 pq = [   31191,   32578] index = [     486454836,530679331] size =     44224495
	Batch  13 pq = [   32578,   33908] index = [     530679331,574893186] size =     44213855
	Batch  14 pq = [   33908,   35188] index = [     574893186,619115266] size =     44222080
	Batch  15 pq = [   35188,   35778] index = [     619115266,640050531] size =     20935265
  Task number: 58
  Buffer size: 11059200
  Buffer per thread: 2
  We computed 38094840 shell quartets total.
  Whereas there are 35158305 unique shell quartets.
     8.35 percent of shell quartets recomputed by reordering.

  ==> DiskJK: Disk-Based J/K Matrices <==

    J tasked:                  Yes
    K tasked:                  Yes
    wK tasked:                  No
    Memory [MiB]:              375
    Schwarz Cutoff:          1E-12

    OpenMP threads:              1

  Minimum eigenvalue in the overlap matrix is 2.4099259849E-04.
  Using Symmetric Orthogonalization.

  SCF Guess: Superposition of Atomic Densities via on-the-fly atomic UHF.

  ==> Iterations <==

                        Total Energy        Delta E     RMS |[F,P]|

   @RHF iter SAD:  -517.92956157117840   -5.17930e+02   0.00000e+00
   @RHF iter   1:  -518.49873113055492   -5.69170e-01   2.47846e-03 DIIS
   @RHF iter   2:  -518.75478463925504   -2.56054e-01   1.09698e-03 DIIS
   @RHF iter   3:  -518.80033340130001   -4.55488e-02   2.83943e-04 DIIS
   @RHF iter   4:  -518.80442998309320   -4.09658e-03   1.30322e-04 DIIS
   @RHF iter   5:  -518.80510881146040   -6.78828e-04   1.93458e-05 DIIS
   @RHF iter   6:  -518.80513911410594   -3.03026e-05   8.61689e-06 DIIS
   @RHF iter   7:  -518.80514520408190   -6.08998e-06   3.39310e-06 DIIS
   @RHF iter   8:  -518.80514678491943   -1.58084e-06   1.42259e-06 DIIS
   @RHF iter   9:  -518.80514712315653   -3.38237e-07   6.21670e-07 DIIS
   @RHF iter  10:  -518.80514719386292   -7.07064e-08   2.73642e-07 DIIS
   @RHF iter  11:  -518.80514721042903   -1.65661e-08   1.08668e-07 DIIS
   @RHF iter  12:  -518.80514721289751   -2.46848e-09   3.88830e-08 DIIS
   @RHF iter  13:  -518.80514721310158   -2.04068e-10   9.82717e-09 DIIS
   @RHF iter  14:  -518.80514721311192   -1.03455e-11   3.35119e-09 DIIS
   @RHF iter  15:  -518.80514721311476   -2.84217e-12   1.76571e-09 DIIS
   @RHF iter  16:  -518.80514721311647   -1.70530e-12   8.71876e-10 DIIS
   @RHF iter  17:  -518.80514721311579    6.82121e-13   3.65691e-10 DIIS
   @RHF iter  18:  -518.80514721311351    2.27374e-12   1.45275e-10 DIIS
   @RHF iter  19:  -518.80514721311408   -5.68434e-13   5.11899e-11 DIIS
  Energy and wave function converged.

  ==> Post-Iterations <==

    Orbital Energies [Eh]
    ---------------------

    Doubly Occupied:

       1A    -15.602924     2A    -11.265672     3A    -11.265520
       4A    -11.232437     5A    -11.231746     6A    -11.230519
       7A    -11.229172     8A    -11.223466     9A    -11.223321
      10A    -11.221425    11A    -11.212951    12A    -11.207651
      13A    -11.207057    14A     -1.295560    15A     -1.126209
      16A     -1.071836    17A     -1.040320    18A     -0.996104
      19A     -0.987544    20A     -0.931501    21A     -0.917039
      22A     -0.840243    23A     -0.803443    24A     -0.786239
      25A     -0.753840    26A     -0.720906    27A     -0.663908
      28A     -0.641814    29A     -0.615488    30A     -0.601841
      31A     -0.593920    32A     -0.590606    33A     -0.581495
      34A     -0.566670    35A     -0.553669    36A     -0.540318
      37A     -0.537450    38A     -0.527775    39A     -0.527199
      40A     -0.495689    41A     -0.471504    42A     -0.466586
      43A     -0.462929    44A     -0.455544    45A     -0.453388
      46A     -0.372954    47A     -0.294369    48A     -0.277075

    Virtual:

      49A      0.124318    50A      0.161851    51A      0.168731
      52A      0.185344    53A      0.198023    54A      0.202821
      55A      0.220155    56A      0.226372    57A      0.231198
      58A      0.243881    59A      0.249745    60A      0.260989
      61A      0.264910    62A      0.270997    63A      0.277678
      64A      0.288641    65A      0.294418    66A      0.297556
      67A      0.308969    68A      0.318848    69A      0.374036
      70A      0.374415    71A      0.382727    72A      0.403657
      73A      0.418026    74A      0.431811    75A      0.443359
      76A      0.470560    77A      0.483414    78A      0.498590
      79A      0.515314    80A      0.577598    81A      0.589437
      82A      0.596548    83A      0.614605    84A      0.617378
      85A      0.624952    86A      0.632699    87A      0.638166
      88A      0.650665    89A      0.672770    90A      0.699481
      91A      0.715701    92A      0.723738    93A      0.726224
      94A      0.732806    95A      0.742761    96A      0.757507
      97A      0.757811    98A      0.768678    99A      0.776433
     100A      0.788348   101A      0.792539   102A      0.799356
     103A      0.819359   104A      0.832126   105A      0.836344
     106A      0.851089   107A      0.868202   108A      0.877543
     109A      0.882967   110A      0.885887   111A      0.893760
     112A      0.897845   113A      0.902868   114A      0.905628
     115A      0.909740   116A      0.916982   117A      0.921849
     118A      0.925469   119A      0.945029   120A      0.950018
     121A      0.954504   122A      0.958026   123A      0.973144
     124A      0.977351   125A      0.994111   126A      1.010518
     127A      1.020813   128A      1.039983   129A      1.066357
     130A      1.085410   131A      1.096792   132A      1.121624
     133A      1.127350   134A      1.136701   135A      1.141746
     136A      1.152930   137A      1.167217   138A      1.180043
     139A      1.202961   140A      1.219407   141A      1.230420
     142A      1.237567   143A      1.247795   144A      1.265432
     145A      1.273988   146A      1.285982   147A      1.303937
     148A      1.326886   149A      1.332084   150A      1.358068
     151A      1.365450   152A      1.394496   153A      1.403096
     154A      1.447012   155A      1.479993   156A      1.497539
     157A      1.509100   158A      1.541547   159A      1.546050
     160A      1.577252   161A      1.598573   162A      1.627278
     163A      1.645647   164A      1.648883   165A      1.669207
     166A      1.682389   167A      1.691383   168A      1.695501
     169A      1.700233   170A      1.708216   171A      1.752309
     172A      1.762352   173A      1.775113   174A      1.799063
     175A      1.807394   176A      1.826925   177A      1.829520
     178A      1.869236   179A      1.874589   180A      1.889780
     181A      1.891381   182A      1.900435   183A      1.903069
     184A      1.911331   185A      1.923717   186A      1.927420
     187A      1.934062   188A      1.940261   189A      1.943856
     190A      1.946290   191A      1.957757   192A      1.971423
     193A      1.983813   194A      1.990811   195A      1.999601
     196A      2.000752   197A      2.006381   198A      2.009883
     199A      2.015818   200A      2.033005   201A      2.042993
     202A      2.056591   203A      2.073821   204A      2.080371
     205A      2.098707   206A      2.104967   207A      2.115967
     208A      2.131733   209A      2.140459   210A      2.143342
     211A      2.150824   212A      2.168346   213A      2.169477
     214A      2.179532   215A      2.221639   216A      2.247200
     217A      2.283739   218A      2.298747   219A      2.302318
     220A      2.313228   221A      2.319010   222A      2.326781
     223A      2.338940   224A      2.351501   225A      2.355083
     226A      2.394580   227A      2.414999   228A      2.448465
     229A      2.462350   230A      2.505811   231A      2.540528
     232A      2.547457   233A      2.585944   234A      2.596361
     235A      2.597747   236A      2.625107   237A      2.630848
     238A      2.637733   239A      2.663124   240A      2.683811
     241A      2.693918   242A      2.763234   243A      2.766414
     244A      2.768210   245A      2.773504   246A      2.787927
     247A      2.794029   248A      2.794832   249A      2.817702
     250A      2.827296   251A      2.871588   252A      2.883469
     253A      2.908359   254A      2.924739   255A      2.957574
     256A      2.980546   257A      2.985634   258A      3.028664
     259A      3.055255   260A      3.072070   261A      3.106667
     262A      3.122596   263A      3.200286   264A      3.293639
     265A      3.370742   266A      3.743132   267A      3.936171

    Final Occupation by Irrep:
              A
    DOCC [    48 ]

  @RHF Final Energy:  -518.80514721311408

   => Energetics <=

    Nuclear Repulsion Energy =            764.8261379998108396
    One-Electron Energy =               -2219.4289019021398417
    Two-Electron Energy =                 935.7976166892150331
    Total Energy =                       -518.8051472131140827

Computation Completed

Properties will be evaluated at   0.000000,   0.000000,   0.000000 [a0]

Properties computed using the SCF density matrix

  Nuclear Dipole Moment: [e a0]
     X:     5.9442      Y:    12.5618      Z:    -4.2336

  Electronic Dipole Moment: [e a0]
     X:    -5.8385      Y:   -12.3661      Z:     4.9481

  Dipole Moment: [e a0]
     X:     0.1057      Y:     0.1957      Z:     0.7146     Total:     0.7484

  Dipole Moment: [D]
     X:     0.2685      Y:     0.4974      Z:     1.8162     Total:     1.9021

*** tstop() called on ds3 at Mon Apr 27 08:53:14 2020
Module time:
	user time   =     292.34 seconds =       4.87 minutes
	system time =      98.72 seconds =       1.65 minutes
	total time  =       1316 seconds =      21.93 minutes
Total time:
	user time   =     292.34 seconds =       4.87 minutes
	system time =      98.72 seconds =       1.65 minutes
	total time  =       1316 seconds =      21.93 minutes
                                     G D M A

                                 by Anthony Stone

                           version 2.2.06, 22 June 2011

               Distributed Multipoles from Gaussian wavefunctions

Starting at 8:53:14 on 27 Apr 2020

Using SCF density matrix from file ./SSI/SSI-080TRP-108LEU-1-dimer.test.924.fchk

                         Distributed Multipole Analysis

Standard DMA

Positions and radii in angstrom
Multipole moments in atomic units, ea_0^k for rank k

C          x =  2.588660  y = -2.237759  z =  0.477706 angstrom
           Maximum rank =  0   Radius =  0.650 angstrom
                   Q00  =  -0.210466

C          x = -0.748340  y = -0.471759  z =  0.755706 angstrom
           Maximum rank =  0   Radius =  0.650 angstrom
                   Q00  =   0.293797

C          x =  0.140660  y = -1.315759  z =  0.030706 angstrom
           Maximum rank =  0   Radius =  0.650 angstrom
                   Q00  =  -0.049517

C          x =  1.353660  y = -1.430759  z =  0.805706 angstrom
           Maximum rank =  0   Radius =  0.650 angstrom
                   Q00  =  -0.126956

C          x =  1.155660  y = -0.675759  z =  1.922706 angstrom
           Maximum rank =  0   Radius =  0.650 angstrom
                   Q00  =   0.072604

C          x = -2.020340  y = -0.143759  z =  0.291706 angstrom
           Maximum rank =  0   Radius =  0.650 angstrom
                   Q00  =  -0.121266

C          x = -2.421340  y = -0.670759  z = -0.926294 angstrom
           Maximum rank =  0   Radius =  0.650 angstrom
                   Q00  =  -0.067585

C          x = -0.291340  y = -1.837759  z = -1.199294 angstrom
           Maximum rank =  0   Radius =  0.650 angstrom
                   Q00  =  -0.092877

C          x = -1.570340  y = -1.509759  z = -1.668294 angstrom
           Maximum rank =  0   Radius =  0.650 angstrom
                   Q00  =  -0.093232

N          x = -0.096340  y = -0.104759  z =  1.902706 angstrom
           Maximum rank =  0   Radius =  0.650 angstrom
                   Q00  =  -0.491560

H          x = -0.455340  y =  0.504241  z =  2.629706 angstrom
           Maximum rank =  0   Radius =  0.325 angstrom
                   Q00  =   0.219116

H          x = -2.673340  y =  0.500241  z =  0.864706 angstrom
           Maximum rank =  0   Radius =  0.325 angstrom
                   Q00  =   0.071913

H          x =  1.881660  y = -0.538759  z =  2.711706 angstrom
           Maximum rank =  0   Radius =  0.325 angstrom
                   Q00  =   0.099998

H          x = -3.404340  y = -0.433759  z = -1.312294 angstrom
           Maximum rank =  0   Radius =  0.325 angstrom
                   Q00  =   0.065605

H          x =  0.330660  y = -2.506759  z = -1.761294 angstrom
           Maximum rank =  0   Radius =  0.325 angstrom
                   Q00  =   0.071134

H          x =  2.277660  y = -3.232759  z =  0.156706 angstrom
           Maximum rank =  0   Radius =  0.325 angstrom
                   Q00  =   0.101720

H          x =  3.149660  y = -2.379759  z =  1.399706 angstrom
           Maximum rank =  0   Radius =  0.325 angstrom
                   Q00  =   0.102777

H          x = -1.912340  y = -1.912759  z = -2.612294 angstrom
           Maximum rank =  0   Radius =  0.325 angstrom
                   Q00  =   0.061863

H          x =  3.265790  y = -1.799448  z = -0.270211 angstrom
           Maximum rank =  0   Radius =  0.325 angstrom
                   Q00  =   0.100768

C          x =  0.304660  y =  2.589241  z = -0.625294 angstrom
           Maximum rank =  0   Radius =  0.650 angstrom
                   Q00  =  -0.077802

C          x =  0.878660  y =  2.896241  z = -2.015294 angstrom
           Maximum rank =  0   Radius =  0.650 angstrom
                   Q00  =  -0.241035

C          x =  0.209660  y =  3.805241  z =  0.308706 angstrom
           Maximum rank =  0   Radius =  0.650 angstrom
                   Q00  =  -0.249136

H          x = -0.689340  y =  2.155241  z = -0.745294 angstrom
           Maximum rank =  0   Radius =  0.325 angstrom
                   Q00  =   0.055608

H          x =  0.940660  y =  1.836241  z = -0.154294 angstrom
           Maximum rank =  0   Radius =  0.325 angstrom
                   Q00  =   0.051417

H          x =  0.263660  y =  3.642241  z = -2.503294 angstrom
           Maximum rank =  0   Radius =  0.325 angstrom
                   Q00  =   0.073123

H          x =  1.146660  y =  4.354241  z =  0.330706 angstrom
           Maximum rank =  0   Radius =  0.325 angstrom
                   Q00  =   0.077036

H          x =  0.902060  y =  1.987281  z = -2.634356 angstrom
           Maximum rank =  0   Radius =  0.325 angstrom
                   Q00  =   0.089159

H          x =  1.904860  y =  3.278171  z = -1.910210 angstrom
           Maximum rank =  0   Radius =  0.325 angstrom
                   Q00  =   0.070279

H          x = -0.590880  y =  4.476801  z = -0.035001 angstrom
           Maximum rank =  0   Radius =  0.325 angstrom
                   Q00  =   0.075535

H          x =  0.002610  y =  3.468611  z =  1.335258 angstrom
           Maximum rank =  0   Radius =  0.325 angstrom
                   Q00  =   0.067977

Total multipoles referred to origin at
           x =   0.000000,  y =    0.000000,  z =    0.000000 angstrom
                   Q00  =  -0.000000

Finished at 8:53:14 on 27 Apr 2020

  DMA results are available in the Python driver through the
	  variable('DMA DISTRIBUTED MULTIPOLES')
  and
	  variable('DMA TOTAL MULTIPOLES')
  commands.

    Psi4 stopped on: Monday, 27 April 2020 08:53AM
    Psi4 wall time for execution: 0:21:56.02

*** Psi4 exiting successfully. Buy a developer a beer!
