                               Psi4 1.3.2 release

  ==> Input File <==

--------------------------------------------------------------------------
import numpy as np
set {scf_type pk
basis cc-pvdz
d_convergence 10
gdma_switch   0
gdma_limit    0
gdma_origin   [ 0.0,  0.0,  0.0 ]
}
molecule test {
    units Angstrom
    0 1
    --
    0 1
    C                1.228842590828832     2.669037930133193    -0.619016383859266
    C               -1.222157409171168    -0.152962069866808    -1.461016383859266
    C               -0.704157409171169     1.079037930133192    -1.035016383859266
    C               -0.358157409171168    -1.155962069866808    -1.909016383859266
    C                0.674842590828831     1.323037930133192    -1.050016383859266
    C                1.019842590828832    -0.927962069866808    -1.927016383859266
    C                1.530842590828832     0.306037930133192    -1.496016383859266
    O               -0.856157409171169    -2.348962069866808    -2.344016383859266
    H               -2.287157409171169    -0.330962069866808    -1.448016383859266
    H               -1.381157409171168     1.852037930133192    -0.693016383859266
    H               -1.813157409171168    -2.433962069866807    -2.140016383859266
    H                1.680842590828832    -1.701962069866808    -2.288016383859266
    H                2.236842590828831     2.514037930133193    -0.233016383859266
    H                0.635842590828831     3.047037930133193     0.214983616140734
    H                2.600842590828832     0.467037930133192    -1.505016383859266
    H                1.277382590828832     3.417757930133193    -1.423416383859266
    C               -0.330157409171168    -1.436962069866808     1.927983616140734
    C                0.860842590828832     0.837037930133192     2.900983616140734
    S               -0.769157409171168     0.078037930133192     2.782983616140734
    H                0.360842590828832    -2.017962069866808     2.538983616140734
    H               -1.230157409171168    -2.024962069866808     1.740983616140734
    H                0.143842590828832    -1.195962069866808     0.975983616140734
    H                1.076842590828832     1.364037930133192     1.971983616140734
    H                1.613842590828832     0.060037930133192     3.039983616140734
    H                0.917582590828832     1.540447930133192     3.744783616140734

}
e, wfn = energy('scf', return_wfn=True)
gdma(wfn)
dmavals = variable('DMA DISTRIBUTED MULTIPOLES')
charges = np.array(dmavals)
print(charges)
np.save('SSI-053TYR-169MET-1-dimer.npy', np.array(charges))--------------------------------------------------------------------------

*** tstart() called on ds3
*** at Mon Apr 27 13:27:47 2020

   => Loading Basis Set <=

    Name: CC-PVDZ
    Role: ORBITAL
    Keyword: BASIS
    atoms 1-7, 17-18  entry C          line   138 file /theoryfs2/ds/metcalf/miniconda2/envs/tf2gpu/share/psi4/basis/cc-pvdz.gbs
    atoms 8           entry O          line   198 file /theoryfs2/ds/metcalf/miniconda2/envs/tf2gpu/share/psi4/basis/cc-pvdz.gbs
    atoms 9-16, 20-25 entry H          line    22 file /theoryfs2/ds/metcalf/miniconda2/envs/tf2gpu/share/psi4/basis/cc-pvdz.gbs
    atoms 19          entry S          line   598 file /theoryfs2/ds/metcalf/miniconda2/envs/tf2gpu/share/psi4/basis/cc-pvdz.gbs

         ---------------------------------------------------------
                                   SCF
               by Justin Turney, Rob Parrish, Andy Simmonett
                          and Daniel G. A. Smith
                              RHF Reference
                        1 Threads,    500 MiB Core
         ---------------------------------------------------------

  ==> Geometry <==

    Molecular point group: c1
    Full point group: C1

    Geometry (in Angstrom), charge = 0, multiplicity = 1:

       Center              X                  Y                   Z               Mass
    ------------   -----------------  -----------------  -----------------  -----------------
         C            1.228842590829     2.669037930133    -0.619016383859    12.000000000000
         C           -1.222157409171    -0.152962069867    -1.461016383859    12.000000000000
         C           -0.704157409171     1.079037930133    -1.035016383859    12.000000000000
         C           -0.358157409171    -1.155962069867    -1.909016383859    12.000000000000
         C            0.674842590829     1.323037930133    -1.050016383859    12.000000000000
         C            1.019842590829    -0.927962069867    -1.927016383859    12.000000000000
         C            1.530842590829     0.306037930133    -1.496016383859    12.000000000000
         O           -0.856157409171    -2.348962069867    -2.344016383859    15.994914619570
         H           -2.287157409171    -0.330962069867    -1.448016383859     1.007825032230
         H           -1.381157409171     1.852037930133    -0.693016383859     1.007825032230
         H           -1.813157409171    -2.433962069867    -2.140016383859     1.007825032230
         H            1.680842590829    -1.701962069867    -2.288016383859     1.007825032230
         H            2.236842590829     2.514037930133    -0.233016383859     1.007825032230
         H            0.635842590829     3.047037930133     0.214983616141     1.007825032230
         H            2.600842590829     0.467037930133    -1.505016383859     1.007825032230
         H            1.277382590829     3.417757930133    -1.423416383859     1.007825032230
         C           -0.330157409171    -1.436962069867     1.927983616141    12.000000000000
         C            0.860842590829     0.837037930133     2.900983616141    12.000000000000
         S           -0.769157409171     0.078037930133     2.782983616141    31.972071174400
         H            0.360842590829    -2.017962069867     2.538983616141     1.007825032230
         H           -1.230157409171    -2.024962069867     1.740983616141     1.007825032230
         H            0.143842590829    -1.195962069867     0.975983616141     1.007825032230
         H            1.076842590829     1.364037930133     1.971983616141     1.007825032230
         H            1.613842590829     0.060037930133     3.039983616141     1.007825032230
         H            0.917582590829     1.540447930133     3.744783616141     1.007825032230

  Running in c1 symmetry.

  Rotational constants: A =      0.03598  B =      0.02030  C =      0.01544 [cm^-1]
  Rotational constants: A =   1078.63175  B =    608.59517  C =    462.89175 [MHz]
  Nuclear repulsion =  680.391282490331378

  Charge       = 0
  Multiplicity = 1
  Electrons    = 92
  Nalpha       = 46
  Nbeta        = 46

  ==> Algorithm <==

  SCF Algorithm Type is PK.
  DIIS enabled.
  MOM disabled.
  Fractional occupation disabled.
  Guess Type is SAD.
  Energy threshold   = 1.00e-06
  Density threshold  = 1.00e-10
  Integral threshold = 0.00e+00

  ==> Primary Basis <==

  Basis Set: CC-PVDZ
    Blend: CC-PVDZ
    Number of shells: 110
    Number of basis function: 228
    Number of Cartesian functions: 239
    Spherical Harmonics?: true
    Max angular momentum: 2

  ==> Pre-Iterations <==

   -------------------------------------------------------
    Irrep   Nso     Nmo     Nalpha   Nbeta   Ndocc  Nsocc
   -------------------------------------------------------
     A        228     228       0       0       0       0
   -------------------------------------------------------
    Total     228     228      46      46      46       0
   -------------------------------------------------------

  ==> Integral Setup <==

  Using integral reordering PK algorithm.
  Sizing the integral batches needed.
  Building batch lookup table.
   Calculation information:
      Number of atoms:                  25
      Number of AO shells:             110
      Number of primitives:            340
      Number of atomic orbitals:       239
      Number of basis functions:       228

      Integral cutoff                 1.00e-12
      Number of threads:                 1

	Batch   1 pq = [       0,    9405] index = [             0,44231715] size =     44231715
	Batch   2 pq = [    9405,   13301] index = [      44231715,88464951] size =     44233236
	Batch   3 pq = [   13301,   16290] index = [      88464951,132690195] size =     44225244
	Batch   4 pq = [   16290,   18810] index = [     132690195,176917455] size =     44227260
	Batch   5 pq = [   18810,   21030] index = [     176917455,221140965] size =     44223510
	Batch   6 pq = [   21030,   23037] index = [     221140965,265363203] size =     44222238
	Batch   7 pq = [   23037,   24883] index = [     265363203,309594286] size =     44231083
	Batch   8 pq = [   24883,   26106] index = [     309594286,340774671] size =     31180385
  Task number: 31
  Buffer size: 11059200
  Buffer per thread: 2
  We computed 19866858 shell quartets total.
  Whereas there are 18638565 unique shell quartets.
     6.59 percent of shell quartets recomputed by reordering.

  ==> DiskJK: Disk-Based J/K Matrices <==

    J tasked:                  Yes
    K tasked:                  Yes
    wK tasked:                  No
    Memory [MiB]:              375
    Schwarz Cutoff:          1E-12

    OpenMP threads:              1

  Minimum eigenvalue in the overlap matrix is 3.3781437093E-04.
  Using Symmetric Orthogonalization.

  SCF Guess: Superposition of Atomic Densities via on-the-fly atomic UHF.

  ==> Iterations <==

                        Total Energy        Delta E     RMS |[F,P]|

   @RHF iter SAD:  -820.14986412721373   -8.20150e+02   0.00000e+00
   @RHF iter   1:  -821.14149326131064   -9.91629e-01   2.59579e-03 DIIS
   @RHF iter   2:  -821.34500941572298   -2.03516e-01   1.05696e-03 DIIS
   @RHF iter   3:  -821.37417628858907   -2.91669e-02   2.75144e-04 DIIS
   @RHF iter   4:  -821.37722464985814   -3.04836e-03   1.07144e-04 DIIS
   @RHF iter   5:  -821.37758105022135   -3.56400e-04   2.14513e-05 DIIS
   @RHF iter   6:  -821.37760163865710   -2.05884e-05   6.66590e-06 DIIS
   @RHF iter   7:  -821.37760387047683   -2.23182e-06   2.19338e-06 DIIS
   @RHF iter   8:  -821.37760418567223   -3.15195e-07   8.43153e-07 DIIS
   @RHF iter   9:  -821.37760424645251   -6.07803e-08   3.67380e-07 DIIS
   @RHF iter  10:  -821.37760425836905   -1.19165e-08   1.67647e-07 DIIS
   @RHF iter  11:  -821.37760426267346   -4.30441e-09   6.85016e-08 DIIS
   @RHF iter  12:  -821.37760426338991   -7.16454e-10   2.94565e-08 DIIS
   @RHF iter  13:  -821.37760426346495   -7.50333e-11   9.40678e-09 DIIS
   @RHF iter  14:  -821.37760426347324   -8.29914e-12   2.27876e-09 DIIS
   @RHF iter  15:  -821.37760426347450   -1.25056e-12   8.06075e-10 DIIS
   @RHF iter  16:  -821.37760426347268    1.81899e-12   2.69967e-10 DIIS
   @RHF iter  17:  -821.37760426347529   -2.61480e-12   1.02980e-10 DIIS
   @RHF iter  18:  -821.37760426347268    2.61480e-12   4.75130e-11 DIIS
  Energy and wave function converged.

  ==> Post-Iterations <==

    Orbital Energies [Eh]
    ---------------------

    Doubly Occupied:

       1A    -91.928578     2A    -20.588050     3A    -11.303614
       4A    -11.250584     5A    -11.245937     6A    -11.244426
       7A    -11.243241     8A    -11.238655     9A    -11.236688
      10A    -11.234878    11A    -11.232097    12A     -8.932557
      13A     -6.614658    14A     -6.613130    15A     -6.610840
      16A     -1.398607    17A     -1.148558    18A     -1.057242
      19A     -1.036984    20A     -1.016587    21A     -0.943662
      22A     -0.927721    23A     -0.845284    24A     -0.801860
      25A     -0.798628    26A     -0.730158    27A     -0.668026
      28A     -0.643285    29A     -0.609055    30A     -0.601444
      31A     -0.597406    32A     -0.586895    33A     -0.583924
      34A     -0.575034    35A     -0.567629    36A     -0.563389
      37A     -0.553593    38A     -0.526925    39A     -0.499392
      40A     -0.492378    41A     -0.486278    42A     -0.466830
      43A     -0.420999    44A     -0.340990    45A     -0.322755
      46A     -0.304161

    Virtual:

      47A      0.125320    48A      0.151308    49A      0.168822
      50A      0.173062    51A      0.199117    52A      0.203093
      53A      0.218586    54A      0.220914    55A      0.238557
      56A      0.254099    57A      0.255542    58A      0.261163
      59A      0.270931    60A      0.278605    61A      0.287296
      62A      0.291940    63A      0.308329    64A      0.322402
      65A      0.365137    66A      0.368494    67A      0.424213
      68A      0.455817    69A      0.476514    70A      0.490696
      71A      0.504280    72A      0.521893    73A      0.567795
      74A      0.584089    75A      0.604081    76A      0.607871
      77A      0.614658    78A      0.646522    79A      0.661133
      80A      0.677119    81A      0.684703    82A      0.697254
      83A      0.707524    84A      0.716983    85A      0.725013
      86A      0.740005    87A      0.742275    88A      0.757259
      89A      0.766630    90A      0.770489    91A      0.786446
      92A      0.798105    93A      0.802068    94A      0.809735
      95A      0.826165    96A      0.842374    97A      0.850196
      98A      0.865566    99A      0.871208   100A      0.879958
     101A      0.882369   102A      0.889357   103A      0.891828
     104A      0.893226   105A      0.902256   106A      0.913396
     107A      0.921029   108A      0.928801   109A      0.932763
     110A      0.946913   111A      0.951667   112A      0.955969
     113A      0.971074   114A      0.996195   115A      1.011838
     116A      1.024796   117A      1.081440   118A      1.112998
     119A      1.121199   120A      1.139336   121A      1.147818
     122A      1.168250   123A      1.209282   124A      1.224204
     125A      1.238256   126A      1.259808   127A      1.270630
     128A      1.274666   129A      1.278630   130A      1.283750
     131A      1.302534   132A      1.306642   133A      1.325044
     134A      1.338929   135A      1.348261   136A      1.355801
     137A      1.375078   138A      1.379296   139A      1.393426
     140A      1.476747   141A      1.494259   142A      1.509428
     143A      1.514713   144A      1.531409   145A      1.559763
     146A      1.614014   147A      1.619280   148A      1.675142
     149A      1.681778   150A      1.697219   151A      1.707579
     152A      1.734277   153A      1.745394   154A      1.782837
     155A      1.800069   156A      1.819983   157A      1.862477
     158A      1.869240   159A      1.885048   160A      1.885920
     161A      1.893030   162A      1.901259   163A      1.908789
     164A      1.911087   165A      1.921137   166A      1.935323
     167A      1.945148   168A      1.946233   169A      1.963247
     170A      1.974018   171A      1.984531   172A      1.994040
     173A      2.002604   174A      2.021259   175A      2.027577
     176A      2.041614   177A      2.046597   178A      2.072257
     179A      2.073616   180A      2.075497   181A      2.095617
     182A      2.132576   183A      2.137087   184A      2.152086
     185A      2.194455   186A      2.221791   187A      2.229312
     188A      2.242488   189A      2.255662   190A      2.270638
     191A      2.298259   192A      2.313727   193A      2.355741
     194A      2.406365   195A      2.418847   196A      2.425095
     197A      2.437596   198A      2.451234   199A      2.468500
     200A      2.476827   201A      2.484800   202A      2.523689
     203A      2.545285   204A      2.592594   205A      2.625024
     206A      2.741243   207A      2.751167   208A      2.774044
     209A      2.775793   210A      2.781882   211A      2.793923
     212A      2.797816   213A      2.811841   214A      2.824027
     215A      2.860099   216A      2.873432   217A      2.896320
     218A      2.956423   219A      2.996377   220A      3.068283
     221A      3.087135   222A      3.245246   223A      3.264356
     224A      3.336108   225A      3.566153   226A      3.654183
     227A      3.941513   228A      4.156211

    Final Occupation by Irrep:
              A
    DOCC [    46 ]

  @RHF Final Energy:  -821.37760426347268

   => Energetics <=

    Nuclear Repulsion Energy =            680.3912824903313776
    One-Electron Energy =               -2476.2705522884484708
    Two-Electron Energy =                 974.5016655346444168
    Total Energy =                       -821.3776042634726764

Computation Completed

Properties will be evaluated at   0.000000,   0.000000,   0.000000 [a0]

Properties computed using the SCF density matrix

  Nuclear Dipole Moment: [e a0]
     X:     5.4439      Y:     4.2625      Z:     4.2781

  Electronic Dipole Moment: [e a0]
     X:    -5.3033      Y:    -4.1551      Z:    -4.3526

  Dipole Moment: [e a0]
     X:     0.1406      Y:     0.1074      Z:    -0.0744     Total:     0.1920

  Dipole Moment: [D]
     X:     0.3575      Y:     0.2729      Z:    -0.1892     Total:     0.4879

*** tstop() called on ds3 at Mon Apr 27 13:32:02 2020
Module time:
	user time   =     198.90 seconds =       3.31 minutes
	system time =      65.24 seconds =       1.09 minutes
	total time  =        255 seconds =       4.25 minutes
Total time:
	user time   =     198.90 seconds =       3.31 minutes
	system time =      65.24 seconds =       1.09 minutes
	total time  =        255 seconds =       4.25 minutes
                                     G D M A

                                 by Anthony Stone

                           version 2.2.06, 22 June 2011

               Distributed Multipoles from Gaussian wavefunctions

Starting at 13:32:3 on 27 Apr 2020

Using SCF density matrix from file ./SSI/SSI-053TYR-169MET-1-dimer.test.6719.fchk

                         Distributed Multipole Analysis

Standard DMA

Positions and radii in angstrom
Multipole moments in atomic units, ea_0^k for rank k

C          x =  1.228843  y =  2.669038  z = -0.619016 angstrom
           Maximum rank =  0   Radius =  0.650 angstrom
                   Q00  =  -0.201214

C          x = -1.222157  y = -0.152962  z = -1.461016 angstrom
           Maximum rank =  0   Radius =  0.650 angstrom
                   Q00  =  -0.195371

C          x = -0.704157  y =  1.079038  z = -1.035016 angstrom
           Maximum rank =  0   Radius =  0.650 angstrom
                   Q00  =   0.042402

C          x = -0.358157  y = -1.155962  z = -1.909016 angstrom
           Maximum rank =  0   Radius =  0.650 angstrom
                   Q00  =   0.317644

C          x =  0.674843  y =  1.323038  z = -1.050016 angstrom
           Maximum rank =  0   Radius =  0.650 angstrom
                   Q00  =  -0.146802

C          x =  1.019843  y = -0.927962  z = -1.927016 angstrom
           Maximum rank =  0   Radius =  0.650 angstrom
                   Q00  =  -0.122284

C          x =  1.530843  y =  0.306038  z = -1.496016 angstrom
           Maximum rank =  0   Radius =  0.650 angstrom
                   Q00  =  -0.018411

O          x = -0.856157  y = -2.348962  z = -2.344016 angstrom
           Maximum rank =  0   Radius =  0.650 angstrom
                   Q00  =  -0.674824

H          x = -2.287157  y = -0.330962  z = -1.448016 angstrom
           Maximum rank =  0   Radius =  0.325 angstrom
                   Q00  =   0.074096

H          x = -1.381157  y =  1.852038  z = -0.693016 angstrom
           Maximum rank =  0   Radius =  0.325 angstrom
                   Q00  =   0.076559

H          x = -1.813157  y = -2.433962  z = -2.140016 angstrom
           Maximum rank =  0   Radius =  0.325 angstrom
                   Q00  =   0.413312

H          x =  1.680843  y = -1.701962  z = -2.288016 angstrom
           Maximum rank =  0   Radius =  0.325 angstrom
                   Q00  =   0.082094

H          x =  2.236843  y =  2.514038  z = -0.233016 angstrom
           Maximum rank =  0   Radius =  0.325 angstrom
                   Q00  =   0.091670

H          x =  0.635843  y =  3.047038  z =  0.214984 angstrom
           Maximum rank =  0   Radius =  0.325 angstrom
                   Q00  =   0.095782

H          x =  2.600843  y =  0.467038  z = -1.505016 angstrom
           Maximum rank =  0   Radius =  0.325 angstrom
                   Q00  =   0.065742

H          x =  1.277383  y =  3.417758  z = -1.423416 angstrom
           Maximum rank =  0   Radius =  0.325 angstrom
                   Q00  =   0.107588

C          x = -0.330157  y = -1.436962  z =  1.927984 angstrom
           Maximum rank =  0   Radius =  0.650 angstrom
                   Q00  =  -0.348936

C          x =  0.860843  y =  0.837038  z =  2.900984 angstrom
           Maximum rank =  0   Radius =  0.650 angstrom
                   Q00  =  -0.351982

S          x = -0.769157  y =  0.078038  z =  2.782984 angstrom
           Maximum rank =  0   Radius =  0.650 angstrom
                   Q00  =   0.106507

H          x =  0.360843  y = -2.017962  z =  2.538984 angstrom
           Maximum rank =  0   Radius =  0.325 angstrom
                   Q00  =   0.081568

H          x = -1.230157  y = -2.024962  z =  1.740984 angstrom
           Maximum rank =  0   Radius =  0.325 angstrom
                   Q00  =   0.113381

H          x =  0.143843  y = -1.195962  z =  0.975984 angstrom
           Maximum rank =  0   Radius =  0.325 angstrom
                   Q00  =   0.100670

H          x =  1.076843  y =  1.364038  z =  1.971984 angstrom
           Maximum rank =  0   Radius =  0.325 angstrom
                   Q00  =   0.086937

H          x =  1.613843  y =  0.060038  z =  3.039984 angstrom
           Maximum rank =  0   Radius =  0.325 angstrom
                   Q00  =   0.089812

H          x =  0.917583  y =  1.540448  z =  3.744784 angstrom
           Maximum rank =  0   Radius =  0.325 angstrom
                   Q00  =   0.114060

Total multipoles referred to origin at
           x =   0.000000,  y =    0.000000,  z =    0.000000 angstrom
                   Q00  =  -0.000000

Finished at 13:32:3 on 27 Apr 2020

  DMA results are available in the Python driver through the
	  variable('DMA DISTRIBUTED MULTIPOLES')
  and
	  variable('DMA TOTAL MULTIPOLES')
  commands.

    Psi4 stopped on: Monday, 27 April 2020 01:32PM
    Psi4 wall time for execution: 0:04:16.03

*** Psi4 exiting successfully. Buy a developer a beer!
