                               Psi4 1.3.2 release

  ==> Input File <==

--------------------------------------------------------------------------
import numpy as np
set {scf_type pk
basis cc-pvdz
d_convergence 10
gdma_switch   0
gdma_limit    0
gdma_origin   [ 0.0,  0.0,  0.0 ]
}
molecule test {
    units Angstrom
    0 1
    --
    0 1
    C               -1.611955594163769    -0.570063340579717    -0.147342871151232
    C               -2.817955594163770    -1.554063340579717    -0.470342871151232
    H               -1.323955594163769    -0.651063340579717     0.900657128848768
    H               -0.755955594163769    -0.846063340579717    -0.762342871151232
    H               -1.899955594163769     0.456936659420283    -0.370342871151232
    H               -2.535955594163770    -2.562063340579717    -0.172342871151232
    H               -2.939955594163769    -1.544063340579717    -1.551342871151232
    H               -3.754415594163769    -1.264083340579717     0.028619128848768
    C                1.665044405836231     0.865936659420283     0.803657128848768
    C                2.758044405836231     1.258936659420283    -0.184342871151232
    H                1.128044405836231    -0.005063340579717     0.435657128848768
    H                2.111044405836231     0.623936659420283     1.768657128848768
    H                0.970044405836231     1.694936659420283     0.934657128848768
    H                3.339044405836231     2.059936659420283     0.263657128848768
    H                2.314544405836231     1.620486659420283    -1.123805871151232
    H                3.428704405836231     0.407276659420283    -0.371117871151232

}
e, wfn = energy('scf', return_wfn=True)
gdma(wfn)
dmavals = variable('DMA DISTRIBUTED MULTIPOLES')
charges = np.array(dmavals)
print(charges)
np.save('SSI-236ILE-258LEU-1-dimer.npy', np.array(charges))--------------------------------------------------------------------------

*** tstart() called on ds3
*** at Mon Apr 27 22:18:22 2020

   => Loading Basis Set <=

    Name: CC-PVDZ
    Role: ORBITAL
    Keyword: BASIS
    atoms 1-2, 9-10  entry C          line   138 file /theoryfs2/ds/metcalf/miniconda2/envs/tf2gpu/share/psi4/basis/cc-pvdz.gbs
    atoms 3-8, 11-16 entry H          line    22 file /theoryfs2/ds/metcalf/miniconda2/envs/tf2gpu/share/psi4/basis/cc-pvdz.gbs

         ---------------------------------------------------------
                                   SCF
               by Justin Turney, Rob Parrish, Andy Simmonett
                          and Daniel G. A. Smith
                              RHF Reference
                        1 Threads,    500 MiB Core
         ---------------------------------------------------------

  ==> Geometry <==

    Molecular point group: c1
    Full point group: C1

    Geometry (in Angstrom), charge = 0, multiplicity = 1:

       Center              X                  Y                   Z               Mass
    ------------   -----------------  -----------------  -----------------  -----------------
         C           -1.611955594164    -0.570063340580    -0.147342871151    12.000000000000
         C           -2.817955594164    -1.554063340580    -0.470342871151    12.000000000000
         H           -1.323955594164    -0.651063340580     0.900657128849     1.007825032230
         H           -0.755955594164    -0.846063340580    -0.762342871151     1.007825032230
         H           -1.899955594164     0.456936659420    -0.370342871151     1.007825032230
         H           -2.535955594164    -2.562063340580    -0.172342871151     1.007825032230
         H           -2.939955594164    -1.544063340580    -1.551342871151     1.007825032230
         H           -3.754415594164    -1.264083340580     0.028619128849     1.007825032230
         C            1.665044405836     0.865936659420     0.803657128849    12.000000000000
         C            2.758044405836     1.258936659420    -0.184342871151    12.000000000000
         H            1.128044405836    -0.005063340580     0.435657128849     1.007825032230
         H            2.111044405836     0.623936659420     1.768657128849     1.007825032230
         H            0.970044405836     1.694936659420     0.934657128849     1.007825032230
         H            3.339044405836     2.059936659420     0.263657128849     1.007825032230
         H            2.314544405836     1.620486659420    -1.123805871151     1.007825032230
         H            3.428704405836     0.407276659420    -0.371117871151     1.007825032230

  Running in c1 symmetry.

  Rotational constants: A =      0.70291  B =      0.04122  C =      0.04030 [cm^-1]
  Rotational constants: A =  21072.66856  B =   1235.73384  C =   1208.05610 [MHz]
  Nuclear repulsion =  119.706156762746758

  Charge       = 0
  Multiplicity = 1
  Electrons    = 36
  Nalpha       = 18
  Nbeta        = 18

  ==> Algorithm <==

  SCF Algorithm Type is PK.
  DIIS enabled.
  MOM disabled.
  Fractional occupation disabled.
  Guess Type is SAD.
  Energy threshold   = 1.00e-06
  Density threshold  = 1.00e-10
  Integral threshold = 0.00e+00

  ==> Primary Basis <==

  Basis Set: CC-PVDZ
    Blend: CC-PVDZ
    Number of shells: 60
    Number of basis function: 116
    Number of Cartesian functions: 120
    Spherical Harmonics?: true
    Max angular momentum: 2

  ==> Pre-Iterations <==

   -------------------------------------------------------
    Irrep   Nso     Nmo     Nalpha   Nbeta   Ndocc  Nsocc
   -------------------------------------------------------
     A        116     116       0       0       0       0
   -------------------------------------------------------
    Total     116     116      18      18      18       0
   -------------------------------------------------------

  ==> Integral Setup <==

  Using integral reordering PK algorithm.
  Sizing the integral batches needed.
  Building batch lookup table.
   Calculation information:
      Number of atoms:                  16
      Number of AO shells:              60
      Number of primitives:            148
      Number of atomic orbitals:       120
      Number of basis functions:       116

      Integral cutoff                 1.00e-12
      Number of threads:                 1

	Batch   1 pq = [       0,    6786] index = [             0,23028291] size =     23028291
  Task number: 3
  Buffer size: 11059200
  Buffer per thread: 2
  We computed 1352905 shell quartets total.
  Whereas there are 1675365 unique shell quartets.

  ==> DiskJK: Disk-Based J/K Matrices <==

    J tasked:                  Yes
    K tasked:                  Yes
    wK tasked:                  No
    Memory [MiB]:              375
    Schwarz Cutoff:          1E-12

    OpenMP threads:              1

  Minimum eigenvalue in the overlap matrix is 7.1307304364E-03.
  Using Symmetric Orthogonalization.

  SCF Guess: Superposition of Atomic Densities via on-the-fly atomic UHF.

  ==> Iterations <==

                        Total Energy        Delta E     RMS |[F,P]|

   @RHF iter SAD:  -157.27350402744631   -1.57274e+02   0.00000e+00
   @RHF iter   1:  -158.31021891640094   -1.03671e+00   4.13440e-03 DIIS
   @RHF iter   2:  -158.44015246440446   -1.29934e-01   1.73391e-03 DIIS
   @RHF iter   3:  -158.46212064790922   -2.19682e-02   3.45617e-04 DIIS
   @RHF iter   4:  -158.46390648342478   -1.78584e-03   3.93035e-05 DIIS
   @RHF iter   5:  -158.46393047451710   -2.39911e-05   7.81742e-06 DIIS
   @RHF iter   6:  -158.46393126913796   -7.94621e-07   1.86153e-06 DIIS
   @RHF iter   7:  -158.46393130208489   -3.29469e-08   3.28106e-07 DIIS
   @RHF iter   8:  -158.46393130340101   -1.31612e-09   4.68139e-08 DIIS
   @RHF iter   9:  -158.46393130343756   -3.65503e-11   1.09434e-08 DIIS
   @RHF iter  10:  -158.46393130343915   -1.59162e-12   3.16552e-09 DIIS
   @RHF iter  11:  -158.46393130343978   -6.25278e-13   8.13155e-10 DIIS
   @RHF iter  12:  -158.46393130343975    2.84217e-14   1.60658e-10 DIIS
   @RHF iter  13:  -158.46393130343998   -2.27374e-13   2.70802e-11 DIIS
  Energy and wave function converged.

  ==> Post-Iterations <==

    Orbital Energies [Eh]
    ---------------------

    Doubly Occupied:

       1A    -11.222289     2A    -11.221285     3A    -11.217528
       4A    -11.214040     5A     -1.018566     6A     -1.005028
       7A     -0.843686     8A     -0.833626     9A     -0.599788
      10A     -0.598041    11A     -0.592962    12A     -0.591595
      13A     -0.500724    14A     -0.496633    15A     -0.492078
      16A     -0.487555    17A     -0.484895    18A     -0.475695

    Virtual:

      19A      0.175587    20A      0.193961    21A      0.223720
      22A      0.242888    23A      0.243467    24A      0.260802
      25A      0.265749    26A      0.278366    27A      0.282674
      28A      0.284001    29A      0.290180    30A      0.339638
      31A      0.377616    32A      0.403400    33A      0.574444
      34A      0.590072    35A      0.591376    36A      0.603947
      37A      0.607923    38A      0.634524    39A      0.674748
      40A      0.689552    41A      0.709288    42A      0.744683
      43A      0.845175    44A      0.881056    45A      0.887891
      46A      0.893003    47A      0.894974    48A      0.895828
      49A      0.902137    50A      0.906666    51A      0.916914
      52A      0.919726    53A      0.924803    54A      0.942703
      55A      0.963935    56A      0.992383    57A      1.118099
      58A      1.126091    59A      1.130348    60A      1.153774
      61A      1.230101    62A      1.255621    63A      1.450325
      64A      1.467783    65A      1.481579    66A      1.487594
      67A      1.566131    68A      1.580686    69A      1.680658
      70A      1.681517    71A      1.691288    72A      1.697265
      73A      1.835624    74A      1.863991    75A      1.869281
      76A      1.877106    77A      1.896350    78A      1.910242
      79A      1.927072    80A      1.933252    81A      1.937317
      82A      1.941045    83A      1.949922    84A      1.952611
      85A      1.955173    86A      1.961673    87A      1.979263
      88A      2.037704    89A      2.090760    90A      2.108873
      91A      2.127129    92A      2.134100    93A      2.281831
      94A      2.295379    95A      2.310176    96A      2.320845
      97A      2.438178    98A      2.454879    99A      2.462574
     100A      2.483255   101A      2.555550   102A      2.567338
     103A      2.572796   104A      2.584632   105A      2.765947
     106A      2.771161   107A      2.783887   108A      2.797632
     109A      2.826754   110A      2.841186   111A      2.851892
     112A      2.854681   113A      2.930180   114A      2.943150
     115A      2.955335   116A      2.977955

    Final Occupation by Irrep:
              A
    DOCC [    18 ]

  @RHF Final Energy:  -158.46393130343998

   => Energetics <=

    Nuclear Repulsion Energy =            119.7061567627467582
    One-Electron Energy =                -448.5481485812104552
    Two-Electron Energy =                 170.3780605150237477
    Total Energy =                       -158.4639313034399777

Computation Completed

Properties will be evaluated at   0.000000,   0.000000,   0.000000 [a0]

Properties computed using the SCF density matrix

  Nuclear Dipole Moment: [e a0]
     X:     0.0762      Y:    -0.0083      Z:    -0.0182

  Electronic Dipole Moment: [e a0]
     X:    -0.0817      Y:     0.0013      Z:     0.0211

  Dipole Moment: [e a0]
     X:    -0.0056      Y:    -0.0070      Z:     0.0030     Total:     0.0094

  Dipole Moment: [D]
     X:    -0.0141      Y:    -0.0178      Z:     0.0075     Total:     0.0239

*** tstop() called on ds3 at Mon Apr 27 22:18:32 2020
Module time:
	user time   =       7.46 seconds =       0.12 minutes
	system time =       3.05 seconds =       0.05 minutes
	total time  =         10 seconds =       0.17 minutes
Total time:
	user time   =       7.46 seconds =       0.12 minutes
	system time =       3.05 seconds =       0.05 minutes
	total time  =         10 seconds =       0.17 minutes
                                     G D M A

                                 by Anthony Stone

                           version 2.2.06, 22 June 2011

               Distributed Multipoles from Gaussian wavefunctions

Starting at 22:18:32 on 27 Apr 2020

Using SCF density matrix from file ./SSI/SSI-236ILE-258LEU-1-dimer.test.6735.fchk

                         Distributed Multipole Analysis

Standard DMA

Positions and radii in angstrom
Multipole moments in atomic units, ea_0^k for rank k

C          x = -1.611956  y = -0.570063  z = -0.147343 angstrom
           Maximum rank =  0   Radius =  0.650 angstrom
                   Q00  =  -0.253438

C          x = -2.817956  y = -1.554063  z = -0.470343 angstrom
           Maximum rank =  0   Radius =  0.650 angstrom
                   Q00  =  -0.251492

H          x = -1.323956  y = -0.651063  z =  0.900657 angstrom
           Maximum rank =  0   Radius =  0.325 angstrom
                   Q00  =   0.083671

H          x = -0.755956  y = -0.846063  z = -0.762343 angstrom
           Maximum rank =  0   Radius =  0.325 angstrom
                   Q00  =   0.081398

H          x = -1.899956  y =  0.456937  z = -0.370343 angstrom
           Maximum rank =  0   Radius =  0.325 angstrom
                   Q00  =   0.086210

H          x = -2.535956  y = -2.562063  z = -0.172343 angstrom
           Maximum rank =  0   Radius =  0.325 angstrom
                   Q00  =   0.084154

H          x = -2.939956  y = -1.544063  z = -1.551343 angstrom
           Maximum rank =  0   Radius =  0.325 angstrom
                   Q00  =   0.082237

H          x = -3.754416  y = -1.264083  z =  0.028619 angstrom
           Maximum rank =  0   Radius =  0.325 angstrom
                   Q00  =   0.087895

C          x =  1.665044  y =  0.865937  z =  0.803657 angstrom
           Maximum rank =  0   Radius =  0.650 angstrom
                   Q00  =  -0.236871

C          x =  2.758044  y =  1.258937  z = -0.184343 angstrom
           Maximum rank =  0   Radius =  0.650 angstrom
                   Q00  =  -0.234930

H          x =  1.128044  y = -0.005063  z =  0.435657 angstrom
           Maximum rank =  0   Radius =  0.325 angstrom
                   Q00  =   0.083071

H          x =  2.111044  y =  0.623937  z =  1.768657 angstrom
           Maximum rank =  0   Radius =  0.325 angstrom
                   Q00  =   0.076621

H          x =  0.970044  y =  1.694937  z =  0.934657 angstrom
           Maximum rank =  0   Radius =  0.325 angstrom
                   Q00  =   0.078277

H          x =  3.339044  y =  2.059937  z =  0.263657 angstrom
           Maximum rank =  0   Radius =  0.325 angstrom
                   Q00  =   0.077129

H          x =  2.314544  y =  1.620487  z = -1.123806 angstrom
           Maximum rank =  0   Radius =  0.325 angstrom
                   Q00  =   0.078310

H          x =  3.428704  y =  0.407277  z = -0.371118 angstrom
           Maximum rank =  0   Radius =  0.325 angstrom
                   Q00  =   0.077758

Total multipoles referred to origin at
           x =   0.000000,  y =    0.000000,  z =    0.000000 angstrom
                   Q00  =  -0.000000

Finished at 22:18:32 on 27 Apr 2020

  DMA results are available in the Python driver through the
	  variable('DMA DISTRIBUTED MULTIPOLES')
  and
	  variable('DMA TOTAL MULTIPOLES')
  commands.

    Psi4 stopped on: Monday, 27 April 2020 10:18PM
    Psi4 wall time for execution: 0:00:10.41

*** Psi4 exiting successfully. Buy a developer a beer!
