                               Psi4 1.3.2 release

  ==> Input File <==

--------------------------------------------------------------------------
import numpy as np
set {scf_type pk
basis cc-pvdz
d_convergence 10
gdma_switch   0
gdma_limit    0
gdma_origin   [ 0.0,  0.0,  0.0 ]
}
molecule test {
    units Angstrom
    0 1
    --
    0 1
    C               -1.525076555999590    -0.330036040529577    -1.091210040372711
    C               -2.842076555999590    -0.626036040529577    -1.811210040372711
    H               -0.809076555999590     0.080963959470423    -1.801210040372711
    H               -1.688076555999590     0.391963959470423    -0.291210040372711
    H               -1.094076555999590    -1.241036040529577    -0.678210040372711
    H               -2.644076555999590    -1.377036040529577    -2.575210040372710
    H               -3.585586555999590    -1.020466040529576    -1.102960040372711
    H               -3.236116555999590     0.258948959470423    -2.332300040372711
    C                1.755923444000410     0.318963959470423     0.846789959627289
    C                2.611923444000410     0.636963959470423     2.059789959627289
    H                1.506923444000410     1.243963959470423     0.328789959627289
    H                2.297923444000410    -0.331036040529577     0.161789959627289
    H                0.828923444000410    -0.161036040529577     1.156789959627289
    H                2.039923444000410     1.267963959470424     2.731789959627290
    H                2.856202444000410    -0.294034040529577     2.592299959627290
    H                3.518852444000410     1.182555959470423     1.760109959627289

}
e, wfn = energy('scf', return_wfn=True)
gdma(wfn)
dmavals = variable('DMA DISTRIBUTED MULTIPOLES')
charges = np.array(dmavals)
print(charges)
np.save('SSI-023LEU-097LEU-1-dimer.npy', np.array(charges))--------------------------------------------------------------------------

*** tstart() called on ds3
*** at Mon Apr 27 22:37:02 2020

   => Loading Basis Set <=

    Name: CC-PVDZ
    Role: ORBITAL
    Keyword: BASIS
    atoms 1-2, 9-10  entry C          line   138 file /theoryfs2/ds/metcalf/miniconda2/envs/tf2gpu/share/psi4/basis/cc-pvdz.gbs
    atoms 3-8, 11-16 entry H          line    22 file /theoryfs2/ds/metcalf/miniconda2/envs/tf2gpu/share/psi4/basis/cc-pvdz.gbs

         ---------------------------------------------------------
                                   SCF
               by Justin Turney, Rob Parrish, Andy Simmonett
                          and Daniel G. A. Smith
                              RHF Reference
                        1 Threads,    500 MiB Core
         ---------------------------------------------------------

  ==> Geometry <==

    Molecular point group: c1
    Full point group: C1

    Geometry (in Angstrom), charge = 0, multiplicity = 1:

       Center              X                  Y                   Z               Mass
    ------------   -----------------  -----------------  -----------------  -----------------
         C           -1.525076556000    -0.330036040530    -1.091210040373    12.000000000000
         C           -2.842076556000    -0.626036040530    -1.811210040373    12.000000000000
         H           -0.809076556000     0.080963959470    -1.801210040373     1.007825032230
         H           -1.688076556000     0.391963959470    -0.291210040373     1.007825032230
         H           -1.094076556000    -1.241036040530    -0.678210040373     1.007825032230
         H           -2.644076556000    -1.377036040530    -2.575210040373     1.007825032230
         H           -3.585586556000    -1.020466040530    -1.102960040373     1.007825032230
         H           -3.236116556000     0.258948959470    -2.332300040373     1.007825032230
         C            1.755923444000     0.318963959470     0.846789959627    12.000000000000
         C            2.611923444000     0.636963959470     2.059789959627    12.000000000000
         H            1.506923444000     1.243963959470     0.328789959627     1.007825032230
         H            2.297923444000    -0.331036040530     0.161789959627     1.007825032230
         H            0.828923444000    -0.161036040530     1.156789959627     1.007825032230
         H            2.039923444000     1.267963959470     2.731789959627     1.007825032230
         H            2.856202444000    -0.294034040530     2.592299959627     1.007825032230
         H            3.518852444000     1.182555959470     1.760109959627     1.007825032230

  Running in c1 symmetry.

  Rotational constants: A =      1.11194  B =      0.03554  C =      0.03536 [cm^-1]
  Rotational constants: A =  33335.00589  B =   1065.43187  C =   1060.01610 [MHz]
  Nuclear repulsion =  118.226004855260342

  Charge       = 0
  Multiplicity = 1
  Electrons    = 36
  Nalpha       = 18
  Nbeta        = 18

  ==> Algorithm <==

  SCF Algorithm Type is PK.
  DIIS enabled.
  MOM disabled.
  Fractional occupation disabled.
  Guess Type is SAD.
  Energy threshold   = 1.00e-06
  Density threshold  = 1.00e-10
  Integral threshold = 0.00e+00

  ==> Primary Basis <==

  Basis Set: CC-PVDZ
    Blend: CC-PVDZ
    Number of shells: 60
    Number of basis function: 116
    Number of Cartesian functions: 120
    Spherical Harmonics?: true
    Max angular momentum: 2

  ==> Pre-Iterations <==

   -------------------------------------------------------
    Irrep   Nso     Nmo     Nalpha   Nbeta   Ndocc  Nsocc
   -------------------------------------------------------
     A        116     116       0       0       0       0
   -------------------------------------------------------
    Total     116     116      18      18      18       0
   -------------------------------------------------------

  ==> Integral Setup <==

  Using integral reordering PK algorithm.
  Sizing the integral batches needed.
  Building batch lookup table.
   Calculation information:
      Number of atoms:                  16
      Number of AO shells:              60
      Number of primitives:            148
      Number of atomic orbitals:       120
      Number of basis functions:       116

      Integral cutoff                 1.00e-12
      Number of threads:                 1

	Batch   1 pq = [       0,    6786] index = [             0,23028291] size =     23028291
  Task number: 3
  Buffer size: 11059200
  Buffer per thread: 2
  We computed 1262743 shell quartets total.
  Whereas there are 1675365 unique shell quartets.

  ==> DiskJK: Disk-Based J/K Matrices <==

    J tasked:                  Yes
    K tasked:                  Yes
    wK tasked:                  No
    Memory [MiB]:              375
    Schwarz Cutoff:          1E-12

    OpenMP threads:              1

  Minimum eigenvalue in the overlap matrix is 6.0550925375E-03.
  Using Symmetric Orthogonalization.

  SCF Guess: Superposition of Atomic Densities via on-the-fly atomic UHF.

  ==> Iterations <==

                        Total Energy        Delta E     RMS |[F,P]|

   @RHF iter SAD:  -157.35246815029802   -1.57352e+02   0.00000e+00
   @RHF iter   1:  -158.30721942388456   -9.54751e-01   4.23701e-03 DIIS
   @RHF iter   2:  -158.44150261939851   -1.34283e-01   1.81540e-03 DIIS
   @RHF iter   3:  -158.46534723387657   -2.38446e-02   3.50412e-04 DIIS
   @RHF iter   4:  -158.46718398751500   -1.83675e-03   3.90018e-05 DIIS
   @RHF iter   5:  -158.46720772127236   -2.37338e-05   6.77577e-06 DIIS
   @RHF iter   6:  -158.46720837959518   -6.58323e-07   1.20543e-06 DIIS
   @RHF iter   7:  -158.46720839286297   -1.32678e-08   3.13213e-07 DIIS
   @RHF iter   8:  -158.46720839374791   -8.84938e-10   3.48588e-08 DIIS
   @RHF iter   9:  -158.46720839376692   -1.90141e-11   5.42832e-09 DIIS
   @RHF iter  10:  -158.46720839376792   -9.94760e-13   1.54182e-09 DIIS
   @RHF iter  11:  -158.46720839376695    9.66338e-13   4.70212e-10 DIIS
   @RHF iter  12:  -158.46720839376724   -2.84217e-13   9.07066e-11 DIIS
  Energy and wave function converged.

  ==> Post-Iterations <==

    Orbital Energies [Eh]
    ---------------------

    Doubly Occupied:

       1A    -11.218951     2A    -11.217194     3A    -11.216372
       4A    -11.214426     5A     -1.020591     6A     -1.017177
       7A     -0.838305     8A     -0.833526     9A     -0.600365
      10A     -0.598551    11A     -0.597615    12A     -0.595038
      13A     -0.505623    14A     -0.496965    15A     -0.487666
      16A     -0.484557    17A     -0.483840    18A     -0.481571

    Virtual:

      19A      0.176457    20A      0.192914    21A      0.217616
      22A      0.239156    23A      0.246199    24A      0.262489
      25A      0.264648    26A      0.279898    27A      0.282437
      28A      0.285738    29A      0.289751    30A      0.309060
      31A      0.372620    32A      0.422564    33A      0.563565
      34A      0.593798    35A      0.600468    36A      0.601862
      37A      0.604310    38A      0.657294    39A      0.676538
      40A      0.683645    41A      0.703559    42A      0.719150
      43A      0.828290    44A      0.889588    45A      0.891985
      46A      0.893334    47A      0.894831    48A      0.898288
      49A      0.901368    50A      0.904154    51A      0.914421
      52A      0.918540    53A      0.919932    54A      0.943777
      55A      0.950458    56A      0.997990    57A      1.122210
      58A      1.127699    59A      1.130811    60A      1.136079
      61A      1.215522    62A      1.255145    63A      1.465484
      64A      1.476449    65A      1.479612    66A      1.485865
      67A      1.569204    68A      1.590216    69A      1.679681
      70A      1.682538    71A      1.695149    72A      1.695632
      73A      1.852037    74A      1.852347    75A      1.865922
      76A      1.880611    77A      1.891949    78A      1.917735
      79A      1.935720    80A      1.940997    81A      1.945126
      82A      1.949881    83A      1.952869    84A      1.958843
      85A      1.959376    86A      1.969233    87A      1.970011
      88A      2.078366    89A      2.089413    90A      2.098824
      91A      2.116608    92A      2.120054    93A      2.296069
      94A      2.305435    95A      2.310915    96A      2.365072
      97A      2.446011    98A      2.454196    99A      2.461297
     100A      2.478801   101A      2.550162   102A      2.566204
     103A      2.575273   104A      2.577762   105A      2.753495
     106A      2.767622   107A      2.785026   108A      2.798333
     109A      2.847291   110A      2.853758   111A      2.859940
     112A      2.862917   113A      2.941192   114A      2.948267
     115A      2.951072   116A      2.965355

    Final Occupation by Irrep:
              A
    DOCC [    18 ]

  @RHF Final Energy:  -158.46720839376724

   => Energetics <=

    Nuclear Repulsion Energy =            118.2260048552603422
    One-Electron Energy =                -445.5697615214073721
    Two-Electron Energy =                 168.8765482723798073
    Total Energy =                       -158.4672083937672369

Computation Completed

Properties will be evaluated at   0.000000,   0.000000,   0.000000 [a0]

Properties computed using the SCF density matrix

  Nuclear Dipole Moment: [e a0]
     X:    -0.0077      Y:     0.0016      Z:    -0.0464

  Electronic Dipole Moment: [e a0]
     X:     0.0055      Y:    -0.0006      Z:     0.0364

  Dipole Moment: [e a0]
     X:    -0.0022      Y:     0.0010      Z:    -0.0100     Total:     0.0103

  Dipole Moment: [D]
     X:    -0.0056      Y:     0.0026      Z:    -0.0255     Total:     0.0263

*** tstop() called on ds3 at Mon Apr 27 22:37:13 2020
Module time:
	user time   =       7.68 seconds =       0.13 minutes
	system time =       3.00 seconds =       0.05 minutes
	total time  =         11 seconds =       0.18 minutes
Total time:
	user time   =       7.68 seconds =       0.13 minutes
	system time =       3.00 seconds =       0.05 minutes
	total time  =         11 seconds =       0.18 minutes
                                     G D M A

                                 by Anthony Stone

                           version 2.2.06, 22 June 2011

               Distributed Multipoles from Gaussian wavefunctions

Starting at 22:37:13 on 27 Apr 2020

Using SCF density matrix from file ./SSI/SSI-023LEU-097LEU-1-dimer.test.31460.fchk

                         Distributed Multipole Analysis

Standard DMA

Positions and radii in angstrom
Multipole moments in atomic units, ea_0^k for rank k

C          x = -1.525077  y = -0.330036  z = -1.091210 angstrom
           Maximum rank =  0   Radius =  0.650 angstrom
                   Q00  =  -0.232615

C          x = -2.842077  y = -0.626036  z = -1.811210 angstrom
           Maximum rank =  0   Radius =  0.650 angstrom
                   Q00  =  -0.242485

H          x = -0.809077  y =  0.080964  z = -1.801210 angstrom
           Maximum rank =  0   Radius =  0.325 angstrom
                   Q00  =   0.079533

H          x = -1.688077  y =  0.391964  z = -0.291210 angstrom
           Maximum rank =  0   Radius =  0.325 angstrom
                   Q00  =   0.077961

H          x = -1.094077  y = -1.241036  z = -0.678210 angstrom
           Maximum rank =  0   Radius =  0.325 angstrom
                   Q00  =   0.080209

H          x = -2.644077  y = -1.377036  z = -2.575210 angstrom
           Maximum rank =  0   Radius =  0.325 angstrom
                   Q00  =   0.077214

H          x = -3.585587  y = -1.020466  z = -1.102960 angstrom
           Maximum rank =  0   Radius =  0.325 angstrom
                   Q00  =   0.079610

H          x = -3.236117  y =  0.258949  z = -2.332300 angstrom
           Maximum rank =  0   Radius =  0.325 angstrom
                   Q00  =   0.080817

C          x =  1.755923  y =  0.318964  z =  0.846790 angstrom
           Maximum rank =  0   Radius =  0.650 angstrom
                   Q00  =  -0.223737

C          x =  2.611923  y =  0.636964  z =  2.059790 angstrom
           Maximum rank =  0   Radius =  0.650 angstrom
                   Q00  =  -0.243976

H          x =  1.506923  y =  1.243964  z =  0.328790 angstrom
           Maximum rank =  0   Radius =  0.325 angstrom
                   Q00  =   0.076624

H          x =  2.297923  y = -0.331036  z =  0.161790 angstrom
           Maximum rank =  0   Radius =  0.325 angstrom
                   Q00  =   0.077772

H          x =  0.828923  y = -0.161036  z =  1.156790 angstrom
           Maximum rank =  0   Radius =  0.325 angstrom
                   Q00  =   0.079832

H          x =  2.039923  y =  1.267964  z =  2.731790 angstrom
           Maximum rank =  0   Radius =  0.325 angstrom
                   Q00  =   0.077507

H          x =  2.856202  y = -0.294034  z =  2.592300 angstrom
           Maximum rank =  0   Radius =  0.325 angstrom
                   Q00  =   0.077056

H          x =  3.518852  y =  1.182556  z =  1.760110 angstrom
           Maximum rank =  0   Radius =  0.325 angstrom
                   Q00  =   0.078679

Total multipoles referred to origin at
           x =   0.000000,  y =    0.000000,  z =    0.000000 angstrom
                   Q00  =  -0.000000

Finished at 22:37:13 on 27 Apr 2020

  DMA results are available in the Python driver through the
	  variable('DMA DISTRIBUTED MULTIPOLES')
  and
	  variable('DMA TOTAL MULTIPOLES')
  commands.

    Psi4 stopped on: Monday, 27 April 2020 10:37PM
    Psi4 wall time for execution: 0:00:10.90

*** Psi4 exiting successfully. Buy a developer a beer!
