                               Psi4 1.3.2 release

  ==> Input File <==

--------------------------------------------------------------------------
import numpy as np
set {scf_type pk
basis cc-pvdz
d_convergence 10
gdma_switch   0
gdma_limit    0
gdma_origin   [ 0.0,  0.0,  0.0 ]
}
molecule test {
    units Angstrom
    0 1
    --
    0 1
    C                0.891883322879105    -1.246322916727874     1.518645844948346
    C                1.121883322879105    -2.315322916727874     0.450645844948346
    H                1.608883322879106    -0.432322916727874     1.407645844948346
    H               -0.110116677120895    -0.833322916727874     1.404645844948346
    H                0.968883322879106    -1.670322916727874     2.519645844948346
    H                0.991883322879106    -1.857322916727874    -0.529354155051654
    H                2.136708322879105    -2.735200916727874     0.512555844948346
    H                0.374343322879105    -3.115334916727874     0.556305844948346
    C               -0.461116677120895     1.281677083272126    -0.815354155051654
    C               -1.548116677120895     2.280677083272126    -1.151354155051654
    H                0.252883322879105     1.202677083272126    -1.635354155051654
    H                0.057883322879105     1.591677083272126     0.090645844948346
    H               -0.906116677120895     0.300677083272126    -0.643354155051654
    H               -2.216116677120895     2.361677083272126    -0.294354155051654
    H               -2.121396677120895     1.928121083272126    -2.021444155051654
    H               -1.091698677120895     3.250564083272126    -1.398344155051654

}
e, wfn = energy('scf', return_wfn=True)
gdma(wfn)
dmavals = variable('DMA DISTRIBUTED MULTIPOLES')
charges = np.array(dmavals)
print(charges)
np.save('SSI-051VAL-071ALA-1-dimer.npy', np.array(charges))--------------------------------------------------------------------------

*** tstart() called on ds3
*** at Mon Apr 27 22:49:31 2020

   => Loading Basis Set <=

    Name: CC-PVDZ
    Role: ORBITAL
    Keyword: BASIS
    atoms 1-2, 9-10  entry C          line   138 file /theoryfs2/ds/metcalf/miniconda2/envs/tf2gpu/share/psi4/basis/cc-pvdz.gbs
    atoms 3-8, 11-16 entry H          line    22 file /theoryfs2/ds/metcalf/miniconda2/envs/tf2gpu/share/psi4/basis/cc-pvdz.gbs

         ---------------------------------------------------------
                                   SCF
               by Justin Turney, Rob Parrish, Andy Simmonett
                          and Daniel G. A. Smith
                              RHF Reference
                        1 Threads,    500 MiB Core
         ---------------------------------------------------------

  ==> Geometry <==

    Molecular point group: c1
    Full point group: C1

    Geometry (in Angstrom), charge = 0, multiplicity = 1:

       Center              X                  Y                   Z               Mass
    ------------   -----------------  -----------------  -----------------  -----------------
         C            0.891883322879    -1.246322916728     1.518645844948    12.000000000000
         C            1.121883322879    -2.315322916728     0.450645844948    12.000000000000
         H            1.608883322879    -0.432322916728     1.407645844948     1.007825032230
         H           -0.110116677121    -0.833322916728     1.404645844948     1.007825032230
         H            0.968883322879    -1.670322916728     2.519645844948     1.007825032230
         H            0.991883322879    -1.857322916728    -0.529354155052     1.007825032230
         H            2.136708322879    -2.735200916728     0.512555844948     1.007825032230
         H            0.374343322879    -3.115334916728     0.556305844948     1.007825032230
         C           -0.461116677121     1.281677083272    -0.815354155052    12.000000000000
         C           -1.548116677121     2.280677083272    -1.151354155052    12.000000000000
         H            0.252883322879     1.202677083272    -1.635354155052     1.007825032230
         H            0.057883322879     1.591677083272     0.090645844948     1.007825032230
         H           -0.906116677121     0.300677083272    -0.643354155052     1.007825032230
         H           -2.216116677121     2.361677083272    -0.294354155052     1.007825032230
         H           -2.121396677121     1.928121083272    -2.021444155052     1.007825032230
         H           -1.091698677121     3.250564083272    -1.398344155052     1.007825032230

  Running in c1 symmetry.

  Rotational constants: A =      0.53099  B =      0.04933  C =      0.04726 [cm^-1]
  Rotational constants: A =  15918.65837  B =   1478.90400  C =   1416.74514 [MHz]
  Nuclear repulsion =  122.937718525642353

  Charge       = 0
  Multiplicity = 1
  Electrons    = 36
  Nalpha       = 18
  Nbeta        = 18

  ==> Algorithm <==

  SCF Algorithm Type is PK.
  DIIS enabled.
  MOM disabled.
  Fractional occupation disabled.
  Guess Type is SAD.
  Energy threshold   = 1.00e-06
  Density threshold  = 1.00e-10
  Integral threshold = 0.00e+00

  ==> Primary Basis <==

  Basis Set: CC-PVDZ
    Blend: CC-PVDZ
    Number of shells: 60
    Number of basis function: 116
    Number of Cartesian functions: 120
    Spherical Harmonics?: true
    Max angular momentum: 2

  ==> Pre-Iterations <==

   -------------------------------------------------------
    Irrep   Nso     Nmo     Nalpha   Nbeta   Ndocc  Nsocc
   -------------------------------------------------------
     A        116     116       0       0       0       0
   -------------------------------------------------------
    Total     116     116      18      18      18       0
   -------------------------------------------------------

  ==> Integral Setup <==

  Using integral reordering PK algorithm.
  Sizing the integral batches needed.
  Building batch lookup table.
   Calculation information:
      Number of atoms:                  16
      Number of AO shells:              60
      Number of primitives:            148
      Number of atomic orbitals:       120
      Number of basis functions:       116

      Integral cutoff                 1.00e-12
      Number of threads:                 1

	Batch   1 pq = [       0,    6786] index = [             0,23028291] size =     23028291
  Task number: 3
  Buffer size: 11059200
  Buffer per thread: 2
  We computed 1441248 shell quartets total.
  Whereas there are 1675365 unique shell quartets.

  ==> DiskJK: Disk-Based J/K Matrices <==

    J tasked:                  Yes
    K tasked:                  Yes
    wK tasked:                  No
    Memory [MiB]:              375
    Schwarz Cutoff:          1E-12

    OpenMP threads:              1

  Minimum eigenvalue in the overlap matrix is 6.6250829659E-03.
  Using Symmetric Orthogonalization.

  SCF Guess: Superposition of Atomic Densities via on-the-fly atomic UHF.

  ==> Iterations <==

                        Total Energy        Delta E     RMS |[F,P]|

   @RHF iter SAD:  -157.37373921107786   -1.57374e+02   0.00000e+00
   @RHF iter   1:  -158.30612555246375   -9.32386e-01   4.23813e-03 DIIS
   @RHF iter   2:  -158.44084286950942   -1.34717e-01   1.81117e-03 DIIS
   @RHF iter   3:  -158.46461441147534   -2.37715e-02   3.50627e-04 DIIS
   @RHF iter   4:  -158.46645639653741   -1.84199e-03   3.84606e-05 DIIS
   @RHF iter   5:  -158.46647966633643   -2.32698e-05   6.25419e-06 DIIS
   @RHF iter   6:  -158.46648025550192   -5.89165e-07   9.31782e-07 DIIS
   @RHF iter   7:  -158.46648026437640   -8.87448e-09   2.85022e-07 DIIS
   @RHF iter   8:  -158.46648026505378   -6.77375e-10   3.81407e-08 DIIS
   @RHF iter   9:  -158.46648026507296   -1.91847e-11   7.68807e-09 DIIS
   @RHF iter  10:  -158.46648026507387   -9.09495e-13   2.03942e-09 DIIS
   @RHF iter  11:  -158.46648026507395   -8.52651e-14   6.67971e-10 DIIS
   @RHF iter  12:  -158.46648026507353    4.26326e-13   1.72892e-10 DIIS
   @RHF iter  13:  -158.46648026507353    0.00000e+00   2.24856e-11 DIIS
  Energy and wave function converged.

  ==> Post-Iterations <==

    Orbital Energies [Eh]
    ---------------------

    Doubly Occupied:

       1A    -11.218561     2A    -11.218483     3A    -11.215600
       4A    -11.215582     5A     -1.023065     6A     -1.016730
       7A     -0.837473     8A     -0.833559     9A     -0.604966
      10A     -0.599551    11A     -0.596867    12A     -0.593972
      13A     -0.503805    14A     -0.498372    15A     -0.489559
      16A     -0.487317    17A     -0.481193    18A     -0.480416

    Virtual:

      19A      0.173652    20A      0.195600    21A      0.226097
      22A      0.232419    23A      0.243560    24A      0.259489
      25A      0.263675    26A      0.275974    27A      0.282225
      28A      0.292769    29A      0.302372    30A      0.336347
      31A      0.396078    32A      0.401160    33A      0.562740
      34A      0.598562    35A      0.601032    36A      0.606965
      37A      0.609765    38A      0.640704    39A      0.668220
      40A      0.682249    41A      0.699894    42A      0.785492
      43A      0.844779    44A      0.858683    45A      0.877768
      46A      0.890264    47A      0.894667    48A      0.896921
      49A      0.901004    50A      0.909431    51A      0.915914
      52A      0.931008    53A      0.937387    54A      0.957387
      55A      0.971940    56A      0.995831    57A      1.126098
      58A      1.129719    59A      1.133891    60A      1.154498
      61A      1.222837    62A      1.254044    63A      1.470001
      64A      1.478322    65A      1.483122    66A      1.484218
      67A      1.573482    68A      1.584899    69A      1.675538
      70A      1.685290    71A      1.691564    72A      1.700493
      73A      1.855146    74A      1.860147    75A      1.870371
      76A      1.881721    77A      1.902564    78A      1.926614
      79A      1.941789    80A      1.944533    81A      1.949336
      82A      1.950219    83A      1.957596    84A      1.958177
      85A      1.963273    86A      1.965198    87A      1.976729
      88A      2.040293    89A      2.102733    90A      2.108560
      91A      2.115071    92A      2.118677    93A      2.294797
      94A      2.306896    95A      2.312624    96A      2.336598
      97A      2.450374    98A      2.461911    99A      2.463607
     100A      2.469318   101A      2.562119   102A      2.566194
     103A      2.573866   104A      2.575858   105A      2.762875
     106A      2.763413   107A      2.788096   108A      2.796740
     109A      2.844040   110A      2.852728   111A      2.859162
     112A      2.863120   113A      2.932730   114A      2.959488
     115A      2.963187   116A      2.972758

    Final Occupation by Irrep:
              A
    DOCC [    18 ]

  @RHF Final Energy:  -158.46648026507353

   => Energetics <=

    Nuclear Repulsion Energy =            122.9377185256423530
    One-Electron Energy =                -454.9782554145917857
    Two-Electron Energy =                 173.5740566238758902
    Total Energy =                       -158.4664802650735282

Computation Completed

Properties will be evaluated at   0.000000,   0.000000,   0.000000 [a0]

Properties computed using the SCF density matrix

  Nuclear Dipole Moment: [e a0]
     X:    -0.0506      Y:    -0.0079      Z:    -0.0288

  Electronic Dipole Moment: [e a0]
     X:     0.0422      Y:     0.0204      Z:     0.0253

  Dipole Moment: [e a0]
     X:    -0.0084      Y:     0.0125      Z:    -0.0036     Total:     0.0155

  Dipole Moment: [D]
     X:    -0.0215      Y:     0.0317      Z:    -0.0091     Total:     0.0393

*** tstop() called on ds3 at Mon Apr 27 22:49:43 2020
Module time:
	user time   =       9.60 seconds =       0.16 minutes
	system time =       3.89 seconds =       0.06 minutes
	total time  =         12 seconds =       0.20 minutes
Total time:
	user time   =       9.60 seconds =       0.16 minutes
	system time =       3.89 seconds =       0.06 minutes
	total time  =         12 seconds =       0.20 minutes
                                     G D M A

                                 by Anthony Stone

                           version 2.2.06, 22 June 2011

               Distributed Multipoles from Gaussian wavefunctions

Starting at 22:49:44 on 27 Apr 2020

Using SCF density matrix from file ./SSI/SSI-051VAL-071ALA-1-dimer.test.20198.fchk

                         Distributed Multipole Analysis

Standard DMA

Positions and radii in angstrom
Multipole moments in atomic units, ea_0^k for rank k

C          x =  0.891883  y = -1.246323  z =  1.518646 angstrom
           Maximum rank =  0   Radius =  0.650 angstrom
                   Q00  =  -0.240506

C          x =  1.121883  y = -2.315323  z =  0.450646 angstrom
           Maximum rank =  0   Radius =  0.650 angstrom
                   Q00  =  -0.232821

H          x =  1.608883  y = -0.432323  z =  1.407646 angstrom
           Maximum rank =  0   Radius =  0.325 angstrom
                   Q00  =   0.080040

H          x = -0.110117  y = -0.833323  z =  1.404646 angstrom
           Maximum rank =  0   Radius =  0.325 angstrom
                   Q00  =   0.078569

H          x =  0.968883  y = -1.670323  z =  2.519646 angstrom
           Maximum rank =  0   Radius =  0.325 angstrom
                   Q00  =   0.078322

H          x =  0.991883  y = -1.857323  z = -0.529354 angstrom
           Maximum rank =  0   Radius =  0.325 angstrom
                   Q00  =   0.079189

H          x =  2.136708  y = -2.735201  z =  0.512556 angstrom
           Maximum rank =  0   Radius =  0.325 angstrom
                   Q00  =   0.080048

H          x =  0.374343  y = -3.115335  z =  0.556306 angstrom
           Maximum rank =  0   Radius =  0.325 angstrom
                   Q00  =   0.077556

C          x = -0.461117  y =  1.281677  z = -0.815354 angstrom
           Maximum rank =  0   Radius =  0.650 angstrom
                   Q00  =  -0.221478

C          x = -1.548117  y =  2.280677  z = -1.151354 angstrom
           Maximum rank =  0   Radius =  0.650 angstrom
                   Q00  =  -0.243148

H          x =  0.252883  y =  1.202677  z = -1.635354 angstrom
           Maximum rank =  0   Radius =  0.325 angstrom
                   Q00  =   0.077727

H          x =  0.057883  y =  1.591677  z =  0.090646 angstrom
           Maximum rank =  0   Radius =  0.325 angstrom
                   Q00  =   0.078450

H          x = -0.906117  y =  0.300677  z = -0.643354 angstrom
           Maximum rank =  0   Radius =  0.325 angstrom
                   Q00  =   0.075237

H          x = -2.216117  y =  2.361677  z = -0.294354 angstrom
           Maximum rank =  0   Radius =  0.325 angstrom
                   Q00  =   0.078848

H          x = -2.121397  y =  1.928121  z = -2.021444 angstrom
           Maximum rank =  0   Radius =  0.325 angstrom
                   Q00  =   0.076240

H          x = -1.091699  y =  3.250564  z = -1.398344 angstrom
           Maximum rank =  0   Radius =  0.325 angstrom
                   Q00  =   0.077726

Total multipoles referred to origin at
           x =   0.000000,  y =    0.000000,  z =    0.000000 angstrom
                   Q00  =  -0.000000

Finished at 22:49:44 on 27 Apr 2020

  DMA results are available in the Python driver through the
	  variable('DMA DISTRIBUTED MULTIPOLES')
  and
	  variable('DMA TOTAL MULTIPOLES')
  commands.

    Psi4 stopped on: Monday, 27 April 2020 10:49PM
    Psi4 wall time for execution: 0:00:13.12

*** Psi4 exiting successfully. Buy a developer a beer!
