                               Psi4 1.3.2 release

  ==> Input File <==

--------------------------------------------------------------------------
import numpy as np
set {scf_type pk
basis cc-pvdz
d_convergence 10
gdma_switch   0
gdma_limit    0
gdma_origin   [ 0.0,  0.0,  0.0 ]
}
molecule test {
    units Angstrom
    0 1
    --
    0 1
    C                0.734215693648524     3.052160975507260     2.573945923526360
    C                0.789215693648524     0.918160975507259     1.326945923526361
    N                0.665215693648524     0.330160975507259     0.157945923526360
    N                0.577215693648524     2.225160975507259     1.378945923526360
    N                1.139215693648524     0.215160975507259     2.399945923526360
    H                0.729215693648524     0.871160975507259    -0.688054076473640
    H                0.720215693648524    -0.673839024492741     0.086945923526360
    H                0.310215693648524     2.684160975507259     0.521945923526360
    H                1.243215693648524     0.681160975507259     3.285945923526360
    H                1.304215693648524    -0.775839024492741     2.326945923526360
    H                1.787215693648524     3.053160975507260     2.864945923526360
    H                0.147215693648524     2.646160975507259     3.401945923526360
    H                0.430215693648524     4.093414975507259     2.391255923526360
    C               -2.046784306351476    -1.165839024492741    -2.794054076473640
    C               -0.930784306351476    -1.697839024492741    -1.916054076473640
    O               -1.180784306351476    -2.011839024492740    -0.737054076473640
    O                0.204215693648524    -1.837839024492740    -2.421054076473640
    H               -2.614784306351476    -2.019839024492740    -3.169054076473639
    H               -1.599784306351476    -0.671839024492741    -3.661054076473640
    H               -2.735580306351476    -0.461359024492741    -2.304904076473640

}
e, wfn = energy('scf', return_wfn=True)
gdma(wfn)
dmavals = variable('DMA DISTRIBUTED MULTIPOLES')
charges = np.array(dmavals)
print(charges)
np.save('SSI-047ARG-050GLU-1-dimer.npy', np.array(charges))--------------------------------------------------------------------------

*** tstart() called on ds3
*** at Sun Apr 26 20:12:59 2020

   => Loading Basis Set <=

    Name: CC-PVDZ
    Role: ORBITAL
    Keyword: BASIS
    atoms 1-2, 14-15  entry C          line   138 file /theoryfs2/ds/metcalf/miniconda2/envs/tf2gpu/share/psi4/basis/cc-pvdz.gbs
    atoms 3-5         entry N          line   168 file /theoryfs2/ds/metcalf/miniconda2/envs/tf2gpu/share/psi4/basis/cc-pvdz.gbs
    atoms 6-13, 18-20 entry H          line    22 file /theoryfs2/ds/metcalf/miniconda2/envs/tf2gpu/share/psi4/basis/cc-pvdz.gbs
    atoms 16-17       entry O          line   198 file /theoryfs2/ds/metcalf/miniconda2/envs/tf2gpu/share/psi4/basis/cc-pvdz.gbs

         ---------------------------------------------------------
                                   SCF
               by Justin Turney, Rob Parrish, Andy Simmonett
                          and Daniel G. A. Smith
                              RHF Reference
                        1 Threads,    500 MiB Core
         ---------------------------------------------------------

  ==> Geometry <==

    Molecular point group: c1
    Full point group: C1

    Geometry (in Angstrom), charge = 0, multiplicity = 1:

       Center              X                  Y                   Z               Mass
    ------------   -----------------  -----------------  -----------------  -----------------
         C            0.734215693649     3.052160975507     2.573945923526    12.000000000000
         C            0.789215693649     0.918160975507     1.326945923526    12.000000000000
         N            0.665215693649     0.330160975507     0.157945923526    14.003074004430
         N            0.577215693649     2.225160975507     1.378945923526    14.003074004430
         N            1.139215693649     0.215160975507     2.399945923526    14.003074004430
         H            0.729215693649     0.871160975507    -0.688054076474     1.007825032230
         H            0.720215693649    -0.673839024493     0.086945923526     1.007825032230
         H            0.310215693649     2.684160975507     0.521945923526     1.007825032230
         H            1.243215693649     0.681160975507     3.285945923526     1.007825032230
         H            1.304215693649    -0.775839024493     2.326945923526     1.007825032230
         H            1.787215693649     3.053160975507     2.864945923526     1.007825032230
         H            0.147215693649     2.646160975507     3.401945923526     1.007825032230
         H            0.430215693649     4.093414975507     2.391255923526     1.007825032230
         C           -2.046784306351    -1.165839024493    -2.794054076474    12.000000000000
         C           -0.930784306351    -1.697839024493    -1.916054076474    12.000000000000
         O           -1.180784306351    -2.011839024493    -0.737054076474    15.994914619570
         O            0.204215693649    -1.837839024493    -2.421054076474    15.994914619570
         H           -2.614784306351    -2.019839024493    -3.169054076474     1.007825032230
         H           -1.599784306351    -0.671839024493    -3.661054076474     1.007825032230
         H           -2.735580306351    -0.461359024493    -2.304904076474     1.007825032230

  Running in c1 symmetry.

  Rotational constants: A =      0.11187  B =      0.01719  C =      0.01631 [cm^-1]
  Rotational constants: A =   3353.88006  B =    515.33040  C =    488.97422 [MHz]
  Nuclear repulsion =  443.318118856027411

  Charge       = 0
  Multiplicity = 1
  Electrons    = 72
  Nalpha       = 36
  Nbeta        = 36

  ==> Algorithm <==

  SCF Algorithm Type is PK.
  DIIS enabled.
  MOM disabled.
  Fractional occupation disabled.
  Guess Type is SAD.
  Energy threshold   = 1.00e-06
  Density threshold  = 1.00e-10
  Integral threshold = 0.00e+00

  ==> Primary Basis <==

  Basis Set: CC-PVDZ
    Blend: CC-PVDZ
    Number of shells: 87
    Number of basis function: 181
    Number of Cartesian functions: 190
    Spherical Harmonics?: true
    Max angular momentum: 2

  ==> Pre-Iterations <==

   -------------------------------------------------------
    Irrep   Nso     Nmo     Nalpha   Nbeta   Ndocc  Nsocc
   -------------------------------------------------------
     A        181     181       0       0       0       0
   -------------------------------------------------------
    Total     181     181      36      36      36       0
   -------------------------------------------------------

  ==> Integral Setup <==

  Using integral reordering PK algorithm.
  Sizing the integral batches needed.
  Building batch lookup table.
   Calculation information:
      Number of atoms:                  20
      Number of AO shells:              87
      Number of primitives:            253
      Number of atomic orbitals:       190
      Number of basis functions:       181

      Integral cutoff                 1.00e-12
      Number of threads:                 1

	Batch   1 pq = [       0,    9405] index = [             0,44231715] size =     44231715
	Batch   2 pq = [    9405,   13301] index = [      44231715,88464951] size =     44233236
	Batch   3 pq = [   13301,   16471] index = [      88464951,135655156] size =     47190205
  Task number: 13
  Buffer size: 11059200
  Buffer per thread: 2
  We computed 5377801 shell quartets total.
  Whereas there are 7328706 unique shell quartets.

  ==> DiskJK: Disk-Based J/K Matrices <==

    J tasked:                  Yes
    K tasked:                  Yes
    wK tasked:                  No
    Memory [MiB]:              375
    Schwarz Cutoff:          1E-12

    OpenMP threads:              1

  Minimum eigenvalue in the overlap matrix is 3.9167512586E-03.
  Using Symmetric Orthogonalization.

  SCF Guess: Superposition of Atomic Densities via on-the-fly atomic UHF.

  ==> Iterations <==

                        Total Energy        Delta E     RMS |[F,P]|

   @RHF iter SAD:  -469.63784922488031   -4.69638e+02   0.00000e+00
   @RHF iter   1:  -470.64994645382939   -1.01210e+00   4.33746e-03 DIIS
   @RHF iter   2:  -470.88353926391977   -2.33593e-01   2.28740e-03 DIIS
   @RHF iter   3:  -470.94518980538015   -6.16505e-02   3.89145e-04 DIIS
   @RHF iter   4:  -470.94842947674607   -3.23967e-03   1.34946e-04 DIIS
   @RHF iter   5:  -470.94880965424932   -3.80178e-04   2.42923e-05 DIIS
   @RHF iter   6:  -470.94882902341857   -1.93692e-05   8.63077e-06 DIIS
   @RHF iter   7:  -470.94883084139633   -1.81798e-06   2.65427e-06 DIIS
   @RHF iter   8:  -470.94883110590746   -2.64511e-07   1.13652e-06 DIIS
   @RHF iter   9:  -470.94883113789405   -3.19866e-08   3.74649e-07 DIIS
   @RHF iter  10:  -470.94883114376324   -5.86920e-09   1.23804e-07 DIIS
   @RHF iter  11:  -470.94883114448294   -7.19695e-10   3.82394e-08 DIIS
   @RHF iter  12:  -470.94883114454399   -6.10498e-11   1.74113e-08 DIIS
   @RHF iter  13:  -470.94883114455740   -1.34150e-11   5.12876e-09 DIIS
   @RHF iter  14:  -470.94883114455729    1.13687e-13   1.79816e-09 DIIS
   @RHF iter  15:  -470.94883114455968   -2.38742e-12   6.57574e-10 DIIS
   @RHF iter  16:  -470.94883114455604    3.63798e-12   2.06732e-10 DIIS
   @RHF iter  17:  -470.94883114455757   -1.53477e-12   7.10540e-11 DIIS
  Energy and wave function converged.

  ==> Post-Iterations <==

    Orbital Energies [Eh]
    ---------------------

    Doubly Occupied:

       1A    -20.374126     2A    -20.371887     3A    -15.677232
       4A    -15.676734     5A    -15.641642     6A    -11.468593
       7A    -11.351717     8A    -11.226174     9A    -11.148767
      10A     -1.425705    11A     -1.290896    12A     -1.267871
      13A     -1.261814    14A     -1.150598    15A     -1.039581
      16A     -0.924867    17A     -0.897543    18A     -0.857398
      19A     -0.811194    20A     -0.750555    21A     -0.733902
      22A     -0.711393    23A     -0.683634    24A     -0.635782
      25A     -0.630962    26A     -0.609246    27A     -0.518433
      28A     -0.513763    29A     -0.509281    30A     -0.497933
      31A     -0.466594    32A     -0.448030    33A     -0.415395
      34A     -0.297751    35A     -0.284367    36A     -0.277069

    Virtual:

      37A      0.099233    38A      0.128707    39A      0.134781
      40A      0.154235    41A      0.180160    42A      0.201639
      43A      0.208920    44A      0.224589    45A      0.259424
      46A      0.269310    47A      0.294693    48A      0.315605
      49A      0.324817    50A      0.382906    51A      0.395663
      52A      0.442513    53A      0.456157    54A      0.479319
      55A      0.549018    56A      0.561666    57A      0.585387
      58A      0.598690    59A      0.619158    60A      0.624437
      61A      0.642686    62A      0.655342    63A      0.677631
      64A      0.716464    65A      0.731063    66A      0.776197
      67A      0.780306    68A      0.791432    69A      0.802729
      70A      0.820278    71A      0.841968    72A      0.856586
      73A      0.866941    74A      0.881259    75A      0.914465
      76A      0.924304    77A      0.933792    78A      0.940905
      79A      0.943522    80A      0.970549    81A      0.982195
      82A      0.989996    83A      1.026578    84A      1.030890
      85A      1.057548    86A      1.066111    87A      1.092350
      88A      1.127784    89A      1.145068    90A      1.200080
      91A      1.214295    92A      1.240509    93A      1.252988
      94A      1.271220    95A      1.292436    96A      1.306829
      97A      1.320056    98A      1.351205    99A      1.428539
     100A      1.440316   101A      1.468705   102A      1.475388
     103A      1.493768   104A      1.504939   105A      1.560446
     106A      1.575472   107A      1.580723   108A      1.592300
     109A      1.628152   110A      1.629275   111A      1.640531
     112A      1.672744   113A      1.728799   114A      1.746687
     115A      1.750838   116A      1.775112   117A      1.816708
     118A      1.827274   119A      1.843278   120A      1.862436
     121A      1.865359   122A      1.900459   123A      1.926302
     124A      1.938776   125A      1.958696   126A      1.962529
     127A      1.974388   128A      1.995228   129A      2.024487
     130A      2.031514   131A      2.103811   132A      2.132808
     133A      2.146748   134A      2.156501   135A      2.181801
     136A      2.192559   137A      2.244474   138A      2.281961
     139A      2.288853   140A      2.327129   141A      2.338245
     142A      2.368726   143A      2.383842   144A      2.410354
     145A      2.420215   146A      2.457662   147A      2.480069
     148A      2.502646   149A      2.555348   150A      2.571436
     151A      2.600071   152A      2.607081   153A      2.650176
     154A      2.672607   155A      2.682901   156A      2.709425
     157A      2.735134   158A      2.806469   159A      2.813966
     160A      2.862167   161A      2.867991   162A      2.887680
     163A      2.897030   164A      2.945776   165A      2.978821
     166A      3.019314   167A      3.127112   168A      3.162493
     169A      3.178057   170A      3.189979   171A      3.227133
     172A      3.248931   173A      3.252095   174A      3.532946
     175A      3.666038   176A      3.693355   177A      3.728689
     178A      3.744989   179A      3.961973   180A      3.969060
     181A      4.091633

    Final Occupation by Irrep:
              A
    DOCC [    36 ]

  @RHF Final Energy:  -470.94883114455757

   => Energetics <=

    Nuclear Repulsion Energy =            443.3181188560274109
    One-Electron Energy =               -1522.8370463094859133
    Two-Electron Energy =                 608.5700963089009292
    Total Energy =                       -470.9488311445575164

Computation Completed

Properties will be evaluated at   0.000000,   0.000000,   0.000000 [a0]

Properties computed using the SCF density matrix

  Nuclear Dipole Moment: [e a0]
     X:    -0.2726      Y:     8.8105      Z:     4.7140

  Electronic Dipole Moment: [e a0]
     X:     2.3325      Y:    -3.6325      Z:     0.1130

  Dipole Moment: [e a0]
     X:     2.0598      Y:     5.1780      Z:     4.8271     Total:     7.3726

  Dipole Moment: [D]
     X:     5.2356      Y:    13.1613      Z:    12.2692     Total:    18.7394

*** tstop() called on ds3 at Sun Apr 26 20:13:57 2020
Module time:
	user time   =      40.25 seconds =       0.67 minutes
	system time =      20.60 seconds =       0.34 minutes
	total time  =         58 seconds =       0.97 minutes
Total time:
	user time   =      40.25 seconds =       0.67 minutes
	system time =      20.60 seconds =       0.34 minutes
	total time  =         58 seconds =       0.97 minutes
                                     G D M A

                                 by Anthony Stone

                           version 2.2.06, 22 June 2011

               Distributed Multipoles from Gaussian wavefunctions

Starting at 20:13:57 on 26 Apr 2020

Using SCF density matrix from file ./SSI/SSI-047ARG-050GLU-1-dimer.test.20272.fchk

                         Distributed Multipole Analysis

Standard DMA

Positions and radii in angstrom
Multipole moments in atomic units, ea_0^k for rank k

C          x =  0.734216  y =  3.052161  z =  2.573946 angstrom
           Maximum rank =  0   Radius =  0.650 angstrom
                   Q00  =  -0.116546

C          x =  0.789216  y =  0.918161  z =  1.326946 angstrom
           Maximum rank =  0   Radius =  0.650 angstrom
                   Q00  =   1.062396

N          x =  0.665216  y =  0.330161  z =  0.157946 angstrom
           Maximum rank =  0   Radius =  0.650 angstrom
                   Q00  =  -0.555494

N          x =  0.577216  y =  2.225161  z =  1.378946 angstrom
           Maximum rank =  0   Radius =  0.650 angstrom
                   Q00  =  -0.490548

N          x =  1.139216  y =  0.215161  z =  2.399946 angstrom
           Maximum rank =  0   Radius =  0.650 angstrom
                   Q00  =  -0.577890

H          x =  0.729216  y =  0.871161  z = -0.688054 angstrom
           Maximum rank =  0   Radius =  0.325 angstrom
                   Q00  =   0.260353

H          x =  0.720216  y = -0.673839  z =  0.086946 angstrom
           Maximum rank =  0   Radius =  0.325 angstrom
                   Q00  =   0.290087

H          x =  0.310216  y =  2.684161  z =  0.521946 angstrom
           Maximum rank =  0   Radius =  0.325 angstrom
                   Q00  =   0.228685

H          x =  1.243216  y =  0.681161  z =  3.285946 angstrom
           Maximum rank =  0   Radius =  0.325 angstrom
                   Q00  =   0.248044

H          x =  1.304216  y = -0.775839  z =  2.326946 angstrom
           Maximum rank =  0   Radius =  0.325 angstrom
                   Q00  =   0.277909

H          x =  1.787216  y =  3.053161  z =  2.864946 angstrom
           Maximum rank =  0   Radius =  0.325 angstrom
                   Q00  =   0.100367

H          x =  0.147216  y =  2.646161  z =  3.401946 angstrom
           Maximum rank =  0   Radius =  0.325 angstrom
                   Q00  =   0.105952

H          x =  0.430216  y =  4.093415  z =  2.391256 angstrom
           Maximum rank =  0   Radius =  0.325 angstrom
                   Q00  =   0.152148

C          x = -2.046784  y = -1.165839  z = -2.794054 angstrom
           Maximum rank =  0   Radius =  0.650 angstrom
                   Q00  =  -0.278564

C          x = -0.930784  y = -1.697839  z = -1.916054 angstrom
           Maximum rank =  0   Radius =  0.650 angstrom
                   Q00  =   0.921582

O          x = -1.180784  y = -2.011839  z = -0.737054 angstrom
           Maximum rank =  0   Radius =  0.650 angstrom
                   Q00  =  -0.929317

O          x =  0.204216  y = -1.837839  z = -2.421054 angstrom
           Maximum rank =  0   Radius =  0.650 angstrom
                   Q00  =  -0.923868

H          x = -2.614784  y = -2.019839  z = -3.169054 angstrom
           Maximum rank =  0   Radius =  0.325 angstrom
                   Q00  =   0.108082

H          x = -1.599784  y = -0.671839  z = -3.661054 angstrom
           Maximum rank =  0   Radius =  0.325 angstrom
                   Q00  =   0.060145

H          x = -2.735580  y = -0.461359  z = -2.304904 angstrom
           Maximum rank =  0   Radius =  0.325 angstrom
                   Q00  =   0.056477

Total multipoles referred to origin at
           x =   0.000000,  y =    0.000000,  z =    0.000000 angstrom
                   Q00  =  -0.000000

Finished at 20:13:57 on 26 Apr 2020

  DMA results are available in the Python driver through the
	  variable('DMA DISTRIBUTED MULTIPOLES')
  and
	  variable('DMA TOTAL MULTIPOLES')
  commands.

    Psi4 stopped on: Sunday, 26 April 2020 08:13PM
    Psi4 wall time for execution: 0:00:58.91

*** Psi4 exiting successfully. Buy a developer a beer!
