                               Psi4 1.3.2 release

  ==> Input File <==

--------------------------------------------------------------------------
import numpy as np
set {scf_type pk
basis cc-pvdz
d_convergence 10
gdma_switch   0
gdma_limit    0
gdma_origin   [ 0.0,  0.0,  0.0 ]
}
molecule test {
    units Angstrom
    -1 1
    --
    -1 1
    C                0.236012173992496    -1.469258982163404    -4.075889840124983
    C                0.858012173992496    -0.090258982163404    -3.951889840124983
    O                0.467012173992496     0.831741017836596    -4.703889840124983
    O                1.750012173992496     0.058741017836596    -3.067889840124983
    H               -0.398987826007504    -1.618258982163405    -3.197889840124983
    H                0.999012173992496    -2.239258982163404    -4.012889840124983
    H               -0.412247826007504    -1.591398982163404    -4.956138840124983
    C               -1.732987826007504    -1.798258982163405     3.585110159875017
    C                0.317012173992496     0.733741017836596     1.794110159875016
    C               -0.689987826007504    -0.257258982163404     1.777110159875017
    C               -0.787987826007504    -0.773258982163404     3.104110159875017
    C                0.138012173992496    -0.107258982163404     3.843110159875017
    C               -0.004987826007504     1.161741017836595    -0.492889840124983
    C                0.657012173992496     1.454741017836595     0.673110159875017
    C               -1.008987826007504     0.187741017836596    -0.538889840124983
    C               -1.351987826007504    -0.528258982163404     0.581110159875017
    N                0.778012173992496     0.819741017836596     3.076110159875017
    H                0.244012173992496     1.703741017836595    -1.395889840124984
    H                1.422012173992496     2.217741017836595     0.709110159875017
    H               -1.507987826007504    -0.012258982163404    -1.477889840124984
    H               -2.121987826007504    -1.282258982163405     0.550110159875017
    H                1.505012173992496     1.441741017836595     3.414110159875016
    H                0.317012173992496    -0.274258982163404     4.899110159875017
    H               -1.299987826007504    -2.355258982163404     4.415110159875017
    H               -1.929987826007503    -2.500258982163404     2.773110159875016
    H               -2.675307826007504    -1.320628982163405     3.891540159875016

}
e, wfn = energy('scf', return_wfn=True)
gdma(wfn)
dmavals = variable('DMA DISTRIBUTED MULTIPOLES')
charges = np.array(dmavals)
print(charges)
np.save('SSI-016GLU-035TRP-1-dimer.npy', np.array(charges))--------------------------------------------------------------------------

*** tstart() called on ds3
*** at Tue Apr 28 16:08:08 2020

   => Loading Basis Set <=

    Name: CC-PVDZ
    Role: ORBITAL
    Keyword: BASIS
    atoms 1-2, 8-16  entry C          line   138 file /theoryfs2/ds/metcalf/miniconda2/envs/tf2gpu/share/psi4/basis/cc-pvdz.gbs
    atoms 3-4        entry O          line   198 file /theoryfs2/ds/metcalf/miniconda2/envs/tf2gpu/share/psi4/basis/cc-pvdz.gbs
    atoms 5-7, 18-26 entry H          line    22 file /theoryfs2/ds/metcalf/miniconda2/envs/tf2gpu/share/psi4/basis/cc-pvdz.gbs
    atoms 17         entry N          line   168 file /theoryfs2/ds/metcalf/miniconda2/envs/tf2gpu/share/psi4/basis/cc-pvdz.gbs

         ---------------------------------------------------------
                                   SCF
               by Justin Turney, Rob Parrish, Andy Simmonett
                          and Daniel G. A. Smith
                              RHF Reference
                        1 Threads,    500 MiB Core
         ---------------------------------------------------------

  ==> Geometry <==

    Molecular point group: c1
    Full point group: C1

    Geometry (in Angstrom), charge = -1, multiplicity = 1:

       Center              X                  Y                   Z               Mass
    ------------   -----------------  -----------------  -----------------  -----------------
         C            0.236012173992    -1.469258982163    -4.075889840125    12.000000000000
         C            0.858012173992    -0.090258982163    -3.951889840125    12.000000000000
         O            0.467012173992     0.831741017837    -4.703889840125    15.994914619570
         O            1.750012173992     0.058741017837    -3.067889840125    15.994914619570
         H           -0.398987826008    -1.618258982163    -3.197889840125     1.007825032230
         H            0.999012173992    -2.239258982163    -4.012889840125     1.007825032230
         H           -0.412247826008    -1.591398982163    -4.956138840125     1.007825032230
         C           -1.732987826008    -1.798258982163     3.585110159875    12.000000000000
         C            0.317012173992     0.733741017837     1.794110159875    12.000000000000
         C           -0.689987826008    -0.257258982163     1.777110159875    12.000000000000
         C           -0.787987826008    -0.773258982163     3.104110159875    12.000000000000
         C            0.138012173992    -0.107258982163     3.843110159875    12.000000000000
         C           -0.004987826008     1.161741017837    -0.492889840125    12.000000000000
         C            0.657012173992     1.454741017837     0.673110159875    12.000000000000
         C           -1.008987826008     0.187741017837    -0.538889840125    12.000000000000
         C           -1.351987826008    -0.528258982163     0.581110159875    12.000000000000
         N            0.778012173992     0.819741017837     3.076110159875    14.003074004430
         H            0.244012173992     1.703741017837    -1.395889840125     1.007825032230
         H            1.422012173992     2.217741017837     0.709110159875     1.007825032230
         H           -1.507987826008    -0.012258982163    -1.477889840125     1.007825032230
         H           -2.121987826008    -1.282258982163     0.550110159875     1.007825032230
         H            1.505012173992     1.441741017837     3.414110159875     1.007825032230
         H            0.317012173992    -0.274258982163     4.899110159875     1.007825032230
         H           -1.299987826008    -2.355258982163     4.415110159875     1.007825032230
         H           -1.929987826008    -2.500258982163     2.773110159875     1.007825032230
         H           -2.675307826008    -1.320628982163     3.891540159875     1.007825032230

  Running in c1 symmetry.

  Rotational constants: A =      0.05247  B =      0.00929  C =      0.00846 [cm^-1]
  Rotational constants: A =   1573.13060  B =    278.51052  C =    253.50300 [MHz]
  Nuclear repulsion =  801.507439067818837

  Charge       = -1
  Multiplicity = 1
  Electrons    = 102
  Nalpha       = 51
  Nbeta        = 51

  ==> Algorithm <==

  SCF Algorithm Type is PK.
  DIIS enabled.
  MOM disabled.
  Fractional occupation disabled.
  Guess Type is SAD.
  Energy threshold   = 1.00e-06
  Density threshold  = 1.00e-10
  Integral threshold = 0.00e+00

  ==> Primary Basis <==

  Basis Set: CC-PVDZ
    Blend: CC-PVDZ
    Number of shells: 120
    Number of basis function: 256
    Number of Cartesian functions: 270
    Spherical Harmonics?: true
    Max angular momentum: 2

  ==> Pre-Iterations <==

   -------------------------------------------------------
    Irrep   Nso     Nmo     Nalpha   Nbeta   Ndocc  Nsocc
   -------------------------------------------------------
     A        256     256       0       0       0       0
   -------------------------------------------------------
    Total     256     256      51      51      51       0
   -------------------------------------------------------

  ==> Integral Setup <==

  Using integral reordering PK algorithm.
  Sizing the integral batches needed.
  Building batch lookup table.
   Calculation information:
      Number of atoms:                  26
      Number of AO shells:             120
      Number of primitives:            368
      Number of atomic orbitals:       270
      Number of basis functions:       256

      Integral cutoff                 1.00e-12
      Number of threads:                 1

	Batch   1 pq = [       0,    9405] index = [             0,44231715] size =     44231715
	Batch   2 pq = [    9405,   13301] index = [      44231715,88464951] size =     44233236
	Batch   3 pq = [   13301,   16290] index = [      88464951,132690195] size =     44225244
	Batch   4 pq = [   16290,   18810] index = [     132690195,176917455] size =     44227260
	Batch   5 pq = [   18810,   21030] index = [     176917455,221140965] size =     44223510
	Batch   6 pq = [   21030,   23037] index = [     221140965,265363203] size =     44222238
	Batch   7 pq = [   23037,   24883] index = [     265363203,309594286] size =     44231083
	Batch   8 pq = [   24883,   26601] index = [     309594286,353819901] size =     44225615
	Batch   9 pq = [   26601,   28214] index = [     353819901,398029005] size =     44209104
	Batch  10 pq = [   28214,   29740] index = [     398029005,442248670] size =     44219665
	Batch  11 pq = [   29740,   31191] index = [     442248670,486454836] size =     44206166
	Batch  12 pq = [   31191,   32578] index = [     486454836,530679331] size =     44224495
	Batch  13 pq = [   32578,   32896] index = [     530679331,541089856] size =     10410525
  Task number: 49
  Buffer size: 11059200
  Buffer per thread: 2
  We computed 22650988 shell quartets total.
  Whereas there are 26357430 unique shell quartets.

  ==> DiskJK: Disk-Based J/K Matrices <==

    J tasked:                  Yes
    K tasked:                  Yes
    wK tasked:                  No
    Memory [MiB]:              375
    Schwarz Cutoff:          1E-12

    OpenMP threads:              1

  Minimum eigenvalue in the overlap matrix is 2.2720849805E-04.
  Using Symmetric Orthogonalization.

  SCF Guess: Superposition of Atomic Densities via on-the-fly atomic UHF.

  ==> Iterations <==

                        Total Energy        Delta E     RMS |[F,P]|

   @RHF iter SAD:  -626.71929228409772   -6.26719e+02   0.00000e+00
   @RHF iter   1:  -627.37365810067695   -6.54366e-01   3.30207e-03 DIIS
   @RHF iter   2:  -627.68362769983059   -3.09970e-01   1.80541e-03 DIIS
   @RHF iter   3:  -627.76880520041220   -8.51775e-02   3.24402e-04 DIIS
   @RHF iter   4:  -627.77344556025309   -4.64036e-03   1.24539e-04 DIIS
   @RHF iter   5:  -627.77411823827197   -6.72678e-04   2.41440e-05 DIIS
   @RHF iter   6:  -627.77416018068516   -4.19424e-05   1.32748e-05 DIIS
   @RHF iter   7:  -627.77417198446710   -1.18038e-05   4.62224e-06 DIIS
   @RHF iter   8:  -627.77417539233659   -3.40787e-06   2.14857e-06 DIIS
   @RHF iter   9:  -627.77417615752563   -7.65189e-07   9.17433e-07 DIIS
   @RHF iter  10:  -627.77417630178104   -1.44255e-07   3.83513e-07 DIIS
   @RHF iter  11:  -627.77417632999413   -2.82131e-08   1.27572e-07 DIIS
   @RHF iter  12:  -627.77417633239759   -2.40345e-09   5.10390e-08 DIIS
   @RHF iter  13:  -627.77417633261598   -2.18392e-10   1.87475e-08 DIIS
   @RHF iter  14:  -627.77417633264201   -2.60343e-11   4.91912e-09 DIIS
   @RHF iter  15:  -627.77417633264531   -3.29692e-12   1.94063e-09 DIIS
   @RHF iter  16:  -627.77417633263974    5.57066e-12   7.53648e-10 DIIS
   @RHF iter  17:  -627.77417633264304   -3.29692e-12   3.70568e-10 DIIS
   @RHF iter  18:  -627.77417633264258    4.54747e-13   1.20070e-10 DIIS
   @RHF iter  19:  -627.77417633263849    4.09273e-12   4.78274e-11 DIIS
  Energy and wave function converged.

  ==> Post-Iterations <==

    Orbital Energies [Eh]
    ---------------------

    Doubly Occupied:

       1A    -20.259407     2A    -20.253927     3A    -15.510751
       4A    -11.171936     5A    -11.161466     6A    -11.149194
       7A    -11.126933     8A    -11.125524     9A    -11.118419
      10A    -11.117653    11A    -11.115153    12A    -11.112264
      13A    -11.108967    14A    -11.048213    15A     -1.209443
      16A     -1.141211    17A     -1.031304    18A     -1.029528
      19A     -0.988645    20A     -0.902636    21A     -0.889785
      22A     -0.847505    23A     -0.795404    24A     -0.739932
      25A     -0.705668    26A     -0.662067    27A     -0.626704
      28A     -0.564723    29A     -0.541100    30A     -0.511853
      31A     -0.509604    32A     -0.499902    33A     -0.492881
      34A     -0.478617    35A     -0.472548    36A     -0.453007
      37A     -0.426187    38A     -0.409647    39A     -0.403327
      40A     -0.398628    41A     -0.390703    42A     -0.371748
      43A     -0.361195    44A     -0.339516    45A     -0.296394
      46A     -0.278306    47A     -0.195655    48A     -0.180653
      49A     -0.177505    50A     -0.169154    51A     -0.155961

    Virtual:

      52A      0.229119    53A      0.259773    54A      0.265469
      55A      0.276658    56A      0.298552    57A      0.308326
      58A      0.321812    59A      0.326435    60A      0.348442
      61A      0.368835    62A      0.372299    63A      0.398447
      64A      0.410909    65A      0.414630    66A      0.426619
      67A      0.453879    68A      0.487632    69A      0.495961
      70A      0.513573    71A      0.529850    72A      0.546163
      73A      0.571470    74A      0.580199    75A      0.582335
      76A      0.600276    77A      0.611748    78A      0.687372
      79A      0.700168    80A      0.702775    81A      0.712845
      82A      0.722919    83A      0.743881    84A      0.767232
      85A      0.792747    86A      0.801664    87A      0.806330
      88A      0.815230    89A      0.830576    90A      0.836498
      91A      0.840636    92A      0.846517    93A      0.848715
      94A      0.861957    95A      0.873191    96A      0.882636
      97A      0.887827    98A      0.898129    99A      0.906215
     100A      0.938277   101A      0.944643   102A      0.953874
     103A      0.957055   104A      0.970278   105A      0.982864
     106A      1.000308   107A      1.008954   108A      1.016034
     109A      1.022146   110A      1.029401   111A      1.038586
     112A      1.045739   113A      1.051701   114A      1.062589
     115A      1.069628   116A      1.090513   117A      1.103205
     118A      1.108185   119A      1.112110   120A      1.141053
     121A      1.154871   122A      1.165923   123A      1.196993
     124A      1.211079   125A      1.231835   126A      1.248349
     127A      1.252321   128A      1.266339   129A      1.292160
     130A      1.314388   131A      1.318679   132A      1.327003
     133A      1.335996   134A      1.338184   135A      1.356943
     136A      1.374479   137A      1.379818   138A      1.388936
     139A      1.396819   140A      1.412800   141A      1.435720
     142A      1.443447   143A      1.464293   144A      1.475498
     145A      1.510393   146A      1.540316   147A      1.559408
     148A      1.572430   149A      1.591179   150A      1.604263
     151A      1.621819   152A      1.656056   153A      1.662459
     154A      1.677792   155A      1.695443   156A      1.701831
     157A      1.711986   158A      1.729084   159A      1.737508
     160A      1.745571   161A      1.775488   162A      1.796629
     163A      1.838352   164A      1.846401   165A      1.861902
     166A      1.865874   167A      1.891150   168A      1.896330
     169A      1.921065   170A      1.926629   171A      1.935756
     172A      1.979219   173A      1.985240   174A      1.994551
     175A      1.997213   176A      2.013338   177A      2.033793
     178A      2.045738   179A      2.056563   180A      2.064129
     181A      2.078190   182A      2.092296   183A      2.101405
     184A      2.111589   185A      2.118000   186A      2.119658
     187A      2.139688   188A      2.150343   189A      2.172019
     190A      2.190999   191A      2.197358   192A      2.208451
     193A      2.210066   194A      2.218942   195A      2.233080
     196A      2.254452   197A      2.264128   198A      2.273912
     199A      2.294928   200A      2.298969   201A      2.333471
     202A      2.356678   203A      2.365002   204A      2.373213
     205A      2.401789   206A      2.424669   207A      2.438132
     208A      2.450741   209A      2.453256   210A      2.478128
     211A      2.496877   212A      2.516944   213A      2.550614
     214A      2.575238   215A      2.601004   216A      2.634847
     217A      2.665748   218A      2.683121   219A      2.708039
     220A      2.733113   221A      2.739471   222A      2.765613
     223A      2.778519   224A      2.793700   225A      2.814504
     226A      2.849486   227A      2.886074   228A      2.896184
     229A      2.916983   230A      2.924599   231A      2.927996
     232A      2.950982   233A      2.968714   234A      2.983537
     235A      3.001062   236A      3.030101   237A      3.074773
     238A      3.141121   239A      3.165321   240A      3.199139
     241A      3.239238   242A      3.246478   243A      3.279436
     244A      3.297794   245A      3.328048   246A      3.362451
     247A      3.435933   248A      3.494431   249A      3.627018
     250A      3.791520   251A      3.829090   252A      3.854346
     253A      4.050863   254A      4.082209   255A      4.094614
     256A      4.183842

    Final Occupation by Irrep:
              A
    DOCC [    51 ]

  @RHF Final Energy:  -627.77417633263849

   => Energetics <=

    Nuclear Repulsion Energy =            801.5074390678188365
    One-Electron Energy =               -2460.5063315577854155
    Two-Electron Energy =                1031.2247161573282028
    Total Energy =                       -627.7741763326384898

Computation Completed

Properties will be evaluated at   0.000000,   0.000000,   0.000000 [a0]

Properties computed using the SCF density matrix

  Nuclear Dipole Moment: [e a0]
     X:    -5.4846      Y:    -7.3391      Z:     5.2143

  Electronic Dipole Moment: [e a0]
     X:     3.9376      Y:     6.7539      Z:     1.6803

  Dipole Moment: [e a0]
     X:    -1.5470      Y:    -0.5851      Z:     6.8947     Total:     7.0903

  Dipole Moment: [D]
     X:    -3.9321      Y:    -1.4872      Z:    17.5245     Total:    18.0217

*** tstop() called on ds3 at Tue Apr 28 16:19:21 2020
Module time:
	user time   =     203.97 seconds =       3.40 minutes
	system time =      87.66 seconds =       1.46 minutes
	total time  =        673 seconds =      11.22 minutes
Total time:
	user time   =     203.97 seconds =       3.40 minutes
	system time =      87.66 seconds =       1.46 minutes
	total time  =        673 seconds =      11.22 minutes
                                     G D M A

                                 by Anthony Stone

                           version 2.2.06, 22 June 2011

               Distributed Multipoles from Gaussian wavefunctions

Starting at 16:19:22 on 28 Apr 2020

Using SCF density matrix from file ./SSI/SSI-016GLU-035TRP-1-dimer.test.32364.fchk

                         Distributed Multipole Analysis

Standard DMA

Positions and radii in angstrom
Multipole moments in atomic units, ea_0^k for rank k

C          x =  0.236012  y = -1.469259  z = -4.075890 angstrom
           Maximum rank =  0   Radius =  0.650 angstrom
                   Q00  =  -0.277964

C          x =  0.858012  y = -0.090259  z = -3.951890 angstrom
           Maximum rank =  0   Radius =  0.650 angstrom
                   Q00  =   0.967984

O          x =  0.467012  y =  0.831741  z = -4.703890 angstrom
           Maximum rank =  0   Radius =  0.650 angstrom
                   Q00  =  -0.921255

O          x =  1.750012  y =  0.058741  z = -3.067890 angstrom
           Maximum rank =  0   Radius =  0.650 angstrom
                   Q00  =  -0.942743

H          x = -0.398988  y = -1.618259  z = -3.197890 angstrom
           Maximum rank =  0   Radius =  0.325 angstrom
                   Q00  =   0.069402

H          x =  0.999012  y = -2.239259  z = -4.012890 angstrom
           Maximum rank =  0   Radius =  0.325 angstrom
                   Q00  =   0.067433

H          x = -0.412248  y = -1.591399  z = -4.956139 angstrom
           Maximum rank =  0   Radius =  0.325 angstrom
                   Q00  =   0.045001

C          x = -1.732988  y = -1.798259  z =  3.585110 angstrom
           Maximum rank =  0   Radius =  0.650 angstrom
                   Q00  =  -0.208999

C          x =  0.317012  y =  0.733741  z =  1.794110 angstrom
           Maximum rank =  0   Radius =  0.650 angstrom
                   Q00  =   0.226209

C          x = -0.689988  y = -0.257259  z =  1.777110 angstrom
           Maximum rank =  0   Radius =  0.650 angstrom
                   Q00  =  -0.059950

C          x = -0.787988  y = -0.773259  z =  3.104110 angstrom
           Maximum rank =  0   Radius =  0.650 angstrom
                   Q00  =  -0.119334

C          x =  0.138012  y = -0.107259  z =  3.843110 angstrom
           Maximum rank =  0   Radius =  0.650 angstrom
                   Q00  =   0.043714

C          x = -0.004988  y =  1.161741  z = -0.492890 angstrom
           Maximum rank =  0   Radius =  0.650 angstrom
                   Q00  =   0.061647

C          x =  0.657012  y =  1.454741  z =  0.673110 angstrom
           Maximum rank =  0   Radius =  0.650 angstrom
                   Q00  =  -0.122831

C          x = -1.008988  y =  0.187741  z = -0.538890 angstrom
           Maximum rank =  0   Radius =  0.650 angstrom
                   Q00  =  -0.079327

C          x = -1.351988  y = -0.528259  z =  0.581110 angstrom
           Maximum rank =  0   Radius =  0.650 angstrom
                   Q00  =  -0.106632

N          x =  0.778012  y =  0.819741  z =  3.076110 angstrom
           Maximum rank =  0   Radius =  0.650 angstrom
                   Q00  =  -0.474456

H          x =  0.244012  y =  1.703741  z = -1.395890 angstrom
           Maximum rank =  0   Radius =  0.325 angstrom
                   Q00  =   0.102621

H          x =  1.422012  y =  2.217741  z =  0.709110 angstrom
           Maximum rank =  0   Radius =  0.325 angstrom
                   Q00  =   0.057583

H          x = -1.507988  y = -0.012259  z = -1.477890 angstrom
           Maximum rank =  0   Radius =  0.325 angstrom
                   Q00  =   0.067443

H          x = -2.121988  y = -1.282259  z =  0.550110 angstrom
           Maximum rank =  0   Radius =  0.325 angstrom
                   Q00  =   0.045480

H          x =  1.505012  y =  1.441741  z =  3.414110 angstrom
           Maximum rank =  0   Radius =  0.325 angstrom
                   Q00  =   0.204807

H          x =  0.317012  y = -0.274259  z =  4.899110 angstrom
           Maximum rank =  0   Radius =  0.325 angstrom
                   Q00  =   0.076748

H          x = -1.299988  y = -2.355259  z =  4.415110 angstrom
           Maximum rank =  0   Radius =  0.325 angstrom
                   Q00  =   0.091565

H          x = -1.929988  y = -2.500259  z =  2.773110 angstrom
           Maximum rank =  0   Radius =  0.325 angstrom
                   Q00  =   0.101067

H          x = -2.675308  y = -1.320629  z =  3.891540 angstrom
           Maximum rank =  0   Radius =  0.325 angstrom
                   Q00  =   0.084787

Total multipoles referred to origin at
           x =   0.000000,  y =    0.000000,  z =    0.000000 angstrom
                   Q00  =  -1.000000

Finished at 16:19:22 on 28 Apr 2020

  DMA results are available in the Python driver through the
	  variable('DMA DISTRIBUTED MULTIPOLES')
  and
	  variable('DMA TOTAL MULTIPOLES')
  commands.

    Psi4 stopped on: Tuesday, 28 April 2020 04:19PM
    Psi4 wall time for execution: 0:11:13.52

*** Psi4 exiting successfully. Buy a developer a beer!
