                               Psi4 1.3.2 release

  ==> Input File <==

--------------------------------------------------------------------------
import numpy as np
set {scf_type pk
basis cc-pvdz
d_convergence 10
gdma_switch   0
gdma_limit    0
gdma_origin   [ 0.0,  0.0,  0.0 ]
}
molecule test {
    units Angstrom
    0 1
    --
    0 1
    C                0.840645272334784    -1.523139525215795    -0.019492036738342
    C                0.769645272334784    -3.040139525215795    -0.045492036738342
    H                1.590645272334784    -1.163139525215795    -0.728492036738342
    H               -0.132354727665216    -1.128139525215795    -0.309492036738342
    H                1.077645272334784    -1.153139525215795     0.977507963261658
    H                0.072645272334784    -3.379139525215795     0.721507963261658
    H                1.764125272334784    -3.467169525215795     0.151100263261658
    H                0.399805272334784    -3.372489525215794    -1.026694036738342
    C               -0.751354727665216     1.553860474784205    -0.185492036738342
    C               -0.851354727665216     3.005860474784205     0.256507963261658
    H               -0.508354727665216     0.926860474784205     0.671507963261658
    H               -1.706354727665216     1.231860474784205    -0.602492036738342
    H                0.016645272334784     1.447860474784205    -0.947492036738342
    H               -1.208354727665216     3.582860474784205    -0.596492036738342
    H                0.130855272334784     3.404440474784205     0.550458263261658
    H               -1.587214727665216     3.111700474784206     1.067251563261658

}
e, wfn = energy('scf', return_wfn=True)
gdma(wfn)
dmavals = variable('DMA DISTRIBUTED MULTIPOLES')
charges = np.array(dmavals)
print(charges)
np.save('SSI-030VAL-033VAL-1-dimer.npy', np.array(charges))--------------------------------------------------------------------------

*** tstart() called on ds3
*** at Tue Apr 28 14:13:41 2020

   => Loading Basis Set <=

    Name: CC-PVDZ
    Role: ORBITAL
    Keyword: BASIS
    atoms 1-2, 9-10  entry C          line   138 file /theoryfs2/ds/metcalf/miniconda2/envs/tf2gpu/share/psi4/basis/cc-pvdz.gbs
    atoms 3-8, 11-16 entry H          line    22 file /theoryfs2/ds/metcalf/miniconda2/envs/tf2gpu/share/psi4/basis/cc-pvdz.gbs

         ---------------------------------------------------------
                                   SCF
               by Justin Turney, Rob Parrish, Andy Simmonett
                          and Daniel G. A. Smith
                              RHF Reference
                        1 Threads,    500 MiB Core
         ---------------------------------------------------------

  ==> Geometry <==

    Molecular point group: c1
    Full point group: C1

    Geometry (in Angstrom), charge = 0, multiplicity = 1:

       Center              X                  Y                   Z               Mass
    ------------   -----------------  -----------------  -----------------  -----------------
         C            0.840645272335    -1.523139525216    -0.019492036738    12.000000000000
         C            0.769645272335    -3.040139525216    -0.045492036738    12.000000000000
         H            1.590645272335    -1.163139525216    -0.728492036738     1.007825032230
         H           -0.132354727665    -1.128139525216    -0.309492036738     1.007825032230
         H            1.077645272335    -1.153139525216     0.977507963262     1.007825032230
         H            0.072645272335    -3.379139525216     0.721507963262     1.007825032230
         H            1.764125272335    -3.467169525216     0.151100263262     1.007825032230
         H            0.399805272335    -3.372489525216    -1.026694036738     1.007825032230
         C           -0.751354727665     1.553860474784    -0.185492036738    12.000000000000
         C           -0.851354727665     3.005860474784     0.256507963262    12.000000000000
         H           -0.508354727665     0.926860474784     0.671507963262     1.007825032230
         H           -1.706354727665     1.231860474784    -0.602492036738     1.007825032230
         H            0.016645272335     1.447860474784    -0.947492036738     1.007825032230
         H           -1.208354727665     3.582860474784    -0.596492036738     1.007825032230
         H            0.130855272335     3.404440474784     0.550458263262     1.007825032230
         H           -1.587214727665     3.111700474784     1.067251563262     1.007825032230

  Running in c1 symmetry.

  Rotational constants: A =      0.95546  B =      0.04247  C =      0.04212 [cm^-1]
  Rotational constants: A =  28644.07420  B =   1273.14347  C =   1262.81137 [MHz]
  Nuclear repulsion =  121.797248811216164

  Charge       = 0
  Multiplicity = 1
  Electrons    = 36
  Nalpha       = 18
  Nbeta        = 18

  ==> Algorithm <==

  SCF Algorithm Type is PK.
  DIIS enabled.
  MOM disabled.
  Fractional occupation disabled.
  Guess Type is SAD.
  Energy threshold   = 1.00e-06
  Density threshold  = 1.00e-10
  Integral threshold = 0.00e+00

  ==> Primary Basis <==

  Basis Set: CC-PVDZ
    Blend: CC-PVDZ
    Number of shells: 60
    Number of basis function: 116
    Number of Cartesian functions: 120
    Spherical Harmonics?: true
    Max angular momentum: 2

  ==> Pre-Iterations <==

   -------------------------------------------------------
    Irrep   Nso     Nmo     Nalpha   Nbeta   Ndocc  Nsocc
   -------------------------------------------------------
     A        116     116       0       0       0       0
   -------------------------------------------------------
    Total     116     116      18      18      18       0
   -------------------------------------------------------

  ==> Integral Setup <==

  Using integral reordering PK algorithm.
  Sizing the integral batches needed.
  Building batch lookup table.
   Calculation information:
      Number of atoms:                  16
      Number of AO shells:              60
      Number of primitives:            148
      Number of atomic orbitals:       120
      Number of basis functions:       116

      Integral cutoff                 1.00e-12
      Number of threads:                 1

	Batch   1 pq = [       0,    6786] index = [             0,23028291] size =     23028291
  Task number: 3
  Buffer size: 11059200
  Buffer per thread: 2
  We computed 1394593 shell quartets total.
  Whereas there are 1675365 unique shell quartets.

  ==> DiskJK: Disk-Based J/K Matrices <==

    J tasked:                  Yes
    K tasked:                  Yes
    wK tasked:                  No
    Memory [MiB]:              375
    Schwarz Cutoff:          1E-12

    OpenMP threads:              1

  Minimum eigenvalue in the overlap matrix is 5.6993664073E-03.
  Using Symmetric Orthogonalization.

  SCF Guess: Superposition of Atomic Densities via on-the-fly atomic UHF.

  ==> Iterations <==

                        Total Energy        Delta E     RMS |[F,P]|

   @RHF iter SAD:  -157.39639013237775   -1.57396e+02   0.00000e+00
   @RHF iter   1:  -158.30393297767790   -9.07543e-01   4.23876e-03 DIIS
   @RHF iter   2:  -158.43909858185808   -1.35166e-01   1.80197e-03 DIIS
   @RHF iter   3:  -158.46266965983347   -2.35711e-02   3.53091e-04 DIIS
   @RHF iter   4:  -158.46453918748605   -1.86953e-03   3.97697e-05 DIIS
   @RHF iter   5:  -158.46456406845772   -2.48810e-05   7.28097e-06 DIIS
   @RHF iter   6:  -158.46456481472117   -7.46263e-07   1.46324e-06 DIIS
   @RHF iter   7:  -158.46456483537051   -2.06493e-08   3.49611e-07 DIIS
   @RHF iter   8:  -158.46456483671454   -1.34403e-09   5.47085e-08 DIIS
   @RHF iter   9:  -158.46456483677142   -5.68718e-11   1.16402e-08 DIIS
   @RHF iter  10:  -158.46456483677397   -2.55795e-12   2.67518e-09 DIIS
   @RHF iter  11:  -158.46456483677457   -5.96856e-13   6.37947e-10 DIIS
   @RHF iter  12:  -158.46456483677406    5.11591e-13   1.94013e-10 DIIS
   @RHF iter  13:  -158.46456483677451   -4.54747e-13   3.23980e-11 DIIS
  Energy and wave function converged.

  ==> Post-Iterations <==

    Orbital Energies [Eh]
    ---------------------

    Doubly Occupied:

       1A    -11.217532     2A    -11.217420     3A    -11.214355
       4A    -11.214178     5A     -1.021222     6A     -1.017925
       7A     -0.839899     8A     -0.829417     9A     -0.601355
      10A     -0.599246    11A     -0.597886    12A     -0.595039
      13A     -0.508337    14A     -0.497187    15A     -0.488277
      16A     -0.485237    17A     -0.482122    18A     -0.474018

    Virtual:

      19A      0.178528    20A      0.193386    21A      0.226547
      22A      0.235129    23A      0.238695    24A      0.263391
      25A      0.265773    26A      0.279662    27A      0.281689
      28A      0.297160    29A      0.307441    30A      0.314000
      31A      0.393621    32A      0.417142    33A      0.568212
      34A      0.597559    35A      0.599569    36A      0.604607
      37A      0.608013    38A      0.648830    39A      0.666783
      40A      0.701940    41A      0.715501    42A      0.765615
      43A      0.864913    44A      0.885340    45A      0.890817
      46A      0.892182    47A      0.894379    48A      0.895162
      49A      0.901804    50A      0.911717    51A      0.915637
      52A      0.924549    53A      0.932252    54A      0.948300
      55A      0.962636    56A      1.007316    57A      1.122699
      58A      1.129558    59A      1.140640    60A      1.161055
      61A      1.234574    62A      1.248968    63A      1.471478
      64A      1.473790    65A      1.490744    66A      1.493348
      67A      1.578431    68A      1.590665    69A      1.679337
      70A      1.680180    71A      1.693858    72A      1.694269
      73A      1.854912    74A      1.859598    75A      1.868254
      76A      1.883489    77A      1.905977    78A      1.924123
      79A      1.932322    80A      1.940951    81A      1.944259
      82A      1.948878    83A      1.950851    84A      1.954276
      85A      1.957779    86A      1.973781    87A      2.039801
      88A      2.057313    89A      2.095722    90A      2.108971
      91A      2.124403    92A      2.139232    93A      2.298247
      94A      2.306324    95A      2.325190    96A      2.342707
      97A      2.442894    98A      2.467562    99A      2.469736
     100A      2.478692   101A      2.561470   102A      2.563108
     103A      2.585423   104A      2.589083   105A      2.755723
     106A      2.764203   107A      2.779969   108A      2.811225
     109A      2.846887   110A      2.851871   111A      2.855792
     112A      2.863067   113A      2.943123   114A      2.950657
     115A      2.956384   116A      2.977918

    Final Occupation by Irrep:
              A
    DOCC [    18 ]

  @RHF Final Energy:  -158.46456483677451

   => Energetics <=

    Nuclear Repulsion Energy =            121.7972488112161642
    One-Electron Energy =                -452.7223275366429789
    Two-Electron Energy =                 172.4605138886523150
    Total Energy =                       -158.4645648367745139

Computation Completed

Properties will be evaluated at   0.000000,   0.000000,   0.000000 [a0]

Properties computed using the SCF density matrix

  Nuclear Dipole Moment: [e a0]
     X:    -0.0846      Y:     0.0397      Z:    -0.0673

  Electronic Dipole Moment: [e a0]
     X:     0.0701      Y:    -0.0359      Z:     0.0574

  Dipole Moment: [e a0]
     X:    -0.0145      Y:     0.0038      Z:    -0.0100     Total:     0.0180

  Dipole Moment: [D]
     X:    -0.0369      Y:     0.0097      Z:    -0.0254     Total:     0.0458

*** tstop() called on ds3 at Tue Apr 28 14:13:53 2020
Module time:
	user time   =       7.71 seconds =       0.13 minutes
	system time =       2.98 seconds =       0.05 minutes
	total time  =         12 seconds =       0.20 minutes
Total time:
	user time   =       7.71 seconds =       0.13 minutes
	system time =       2.98 seconds =       0.05 minutes
	total time  =         12 seconds =       0.20 minutes
                                     G D M A

                                 by Anthony Stone

                           version 2.2.06, 22 June 2011

               Distributed Multipoles from Gaussian wavefunctions

Starting at 14:13:53 on 28 Apr 2020

Using SCF density matrix from file ./SSI/SSI-030VAL-033VAL-1-dimer.test.9223.fchk

                         Distributed Multipole Analysis

Standard DMA

Positions and radii in angstrom
Multipole moments in atomic units, ea_0^k for rank k

C          x =  0.840645  y = -1.523140  z = -0.019492 angstrom
           Maximum rank =  0   Radius =  0.650 angstrom
                   Q00  =  -0.238035

C          x =  0.769645  y = -3.040140  z = -0.045492 angstrom
           Maximum rank =  0   Radius =  0.650 angstrom
                   Q00  =  -0.231136

H          x =  1.590645  y = -1.163140  z = -0.728492 angstrom
           Maximum rank =  0   Radius =  0.325 angstrom
                   Q00  =   0.077989

H          x = -0.132355  y = -1.128140  z = -0.309492 angstrom
           Maximum rank =  0   Radius =  0.325 angstrom
                   Q00  =   0.077970

H          x =  1.077645  y = -1.153140  z =  0.977508 angstrom
           Maximum rank =  0   Radius =  0.325 angstrom
                   Q00  =   0.077270

H          x =  0.072645  y = -3.379140  z =  0.721508 angstrom
           Maximum rank =  0   Radius =  0.325 angstrom
                   Q00  =   0.078145

H          x =  1.764125  y = -3.467170  z =  0.151100 angstrom
           Maximum rank =  0   Radius =  0.325 angstrom
                   Q00  =   0.076939

H          x =  0.399805  y = -3.372490  z = -1.026694 angstrom
           Maximum rank =  0   Radius =  0.325 angstrom
                   Q00  =   0.077568

C          x = -0.751355  y =  1.553860  z = -0.185492 angstrom
           Maximum rank =  0   Radius =  0.650 angstrom
                   Q00  =  -0.235518

C          x = -0.851355  y =  3.005860  z =  0.256508 angstrom
           Maximum rank =  0   Radius =  0.650 angstrom
                   Q00  =  -0.230540

H          x = -0.508355  y =  0.926860  z =  0.671508 angstrom
           Maximum rank =  0   Radius =  0.325 angstrom
                   Q00  =   0.078593

H          x = -1.706355  y =  1.231860  z = -0.602492 angstrom
           Maximum rank =  0   Radius =  0.325 angstrom
                   Q00  =   0.076464

H          x =  0.016645  y =  1.447860  z = -0.947492 angstrom
           Maximum rank =  0   Radius =  0.325 angstrom
                   Q00  =   0.080016

H          x = -1.208355  y =  3.582860  z = -0.596492 angstrom
           Maximum rank =  0   Radius =  0.325 angstrom
                   Q00  =   0.075087

H          x =  0.130855  y =  3.404440  z =  0.550458 angstrom
           Maximum rank =  0   Radius =  0.325 angstrom
                   Q00  =   0.080236

H          x = -1.587215  y =  3.111700  z =  1.067252 angstrom
           Maximum rank =  0   Radius =  0.325 angstrom
                   Q00  =   0.078950

Total multipoles referred to origin at
           x =   0.000000,  y =    0.000000,  z =    0.000000 angstrom
                   Q00  =  -0.000000

Finished at 14:13:53 on 28 Apr 2020

  DMA results are available in the Python driver through the
	  variable('DMA DISTRIBUTED MULTIPOLES')
  and
	  variable('DMA TOTAL MULTIPOLES')
  commands.

    Psi4 stopped on: Tuesday, 28 April 2020 02:13PM
    Psi4 wall time for execution: 0:00:12.61

*** Psi4 exiting successfully. Buy a developer a beer!
