                               Psi4 1.3.2 release

  ==> Input File <==

--------------------------------------------------------------------------
import numpy as np
set {scf_type pk
basis cc-pvdz
d_convergence 10
gdma_switch   0
gdma_limit    0
gdma_origin   [ 0.0,  0.0,  0.0 ]
}
molecule test {
    units Angstrom
    0 1
    --
    0 1
    C               -0.542232202314902     1.276255022032299     1.545599437464361
    C               -0.191232202314901     2.191255022032299     0.383599437464361
    C                0.629767797685098     1.364255022032299     2.465599437464361
    H               -0.735232202314901     0.257255022032299     1.218599437464361
    H               -1.425232202314902     1.668255022032299     2.051599437464361
    H                0.327767797685099     1.631255022032299    -0.392400562535639
    H               -1.097232202314901     2.641255022032299    -0.002400562535639
    H                1.352767797685098     0.603255022032299     2.162599437464361
    H                0.339767797685099     1.191255022032299     3.494599437464361
    H                0.472438797685099     2.948884022032299     0.825799437464361
    H                1.044565797685099     2.373980022032299     2.329969437464361
    C                0.012767797685099    -1.554744977967701    -0.827400562535639
    C               -0.785232202314901    -0.766744977967701    -1.848400562535639
    C                0.839767797685098    -2.535744977967701    -1.666400562535639
    H               -0.687232202314901    -2.097744977967701    -0.193400562535639
    H                0.652767797685099    -0.905744977967701    -0.230400562535639
    H               -1.684232202314901    -0.333744977967701    -1.409400562535639
    H               -0.175232202314901     0.010255022032299    -2.292400562535639
    H                1.741767797685098    -2.030744977967701    -2.015400562535639
    H               -1.025836202314901    -1.531016977967701    -2.602060562535639
    H                0.204253797685099    -2.737578977967701    -2.541260562535639
    H                1.127459797685099    -3.385807977967701    -1.030300562535639

}
e, wfn = energy('scf', return_wfn=True)
gdma(wfn)
dmavals = variable('DMA DISTRIBUTED MULTIPOLES')
charges = np.array(dmavals)
print(charges)
np.save('SSI-078PRO-115PRO-1-dimer.npy', np.array(charges))--------------------------------------------------------------------------

*** tstart() called on ds3
*** at Mon Apr 27 22:15:12 2020

   => Loading Basis Set <=

    Name: CC-PVDZ
    Role: ORBITAL
    Keyword: BASIS
    atoms 1-3, 12-14  entry C          line   138 file /theoryfs2/ds/metcalf/miniconda2/envs/tf2gpu/share/psi4/basis/cc-pvdz.gbs
    atoms 4-11, 15-22 entry H          line    22 file /theoryfs2/ds/metcalf/miniconda2/envs/tf2gpu/share/psi4/basis/cc-pvdz.gbs

         ---------------------------------------------------------
                                   SCF
               by Justin Turney, Rob Parrish, Andy Simmonett
                          and Daniel G. A. Smith
                              RHF Reference
                        1 Threads,    500 MiB Core
         ---------------------------------------------------------

  ==> Geometry <==

    Molecular point group: c1
    Full point group: C1

    Geometry (in Angstrom), charge = 0, multiplicity = 1:

       Center              X                  Y                   Z               Mass
    ------------   -----------------  -----------------  -----------------  -----------------
         C           -0.542232202315     1.276255022032     1.545599437464    12.000000000000
         C           -0.191232202315     2.191255022032     0.383599437464    12.000000000000
         C            0.629767797685     1.364255022032     2.465599437464    12.000000000000
         H           -0.735232202315     0.257255022032     1.218599437464     1.007825032230
         H           -1.425232202315     1.668255022032     2.051599437464     1.007825032230
         H            0.327767797685     1.631255022032    -0.392400562536     1.007825032230
         H           -1.097232202315     2.641255022032    -0.002400562536     1.007825032230
         H            1.352767797685     0.603255022032     2.162599437464     1.007825032230
         H            0.339767797685     1.191255022032     3.494599437464     1.007825032230
         H            0.472438797685     2.948884022032     0.825799437464     1.007825032230
         H            1.044565797685     2.373980022032     2.329969437464     1.007825032230
         C            0.012767797685    -1.554744977968    -0.827400562536    12.000000000000
         C           -0.785232202315    -0.766744977968    -1.848400562536    12.000000000000
         C            0.839767797685    -2.535744977968    -1.666400562536    12.000000000000
         H           -0.687232202315    -2.097744977968    -0.193400562536     1.007825032230
         H            0.652767797685    -0.905744977968    -0.230400562536     1.007825032230
         H           -1.684232202315    -0.333744977968    -1.409400562536     1.007825032230
         H           -0.175232202315     0.010255022032    -2.292400562536     1.007825032230
         H            1.741767797685    -2.030744977968    -2.015400562536     1.007825032230
         H           -1.025836202315    -1.531016977968    -2.602060562536     1.007825032230
         H            0.204253797685    -2.737578977968    -2.541260562536     1.007825032230
         H            1.127459797685    -3.385807977968    -1.030300562536     1.007825032230

  Running in c1 symmetry.

  Rotational constants: A =      0.16351  B =      0.03553  C =      0.03173 [cm^-1]
  Rotational constants: A =   4902.02914  B =   1065.17990  C =    951.12965 [MHz]
  Nuclear repulsion =  247.999326529541463

  Charge       = 0
  Multiplicity = 1
  Electrons    = 52
  Nalpha       = 26
  Nbeta        = 26

  ==> Algorithm <==

  SCF Algorithm Type is PK.
  DIIS enabled.
  MOM disabled.
  Fractional occupation disabled.
  Guess Type is SAD.
  Energy threshold   = 1.00e-06
  Density threshold  = 1.00e-10
  Integral threshold = 0.00e+00

  ==> Primary Basis <==

  Basis Set: CC-PVDZ
    Blend: CC-PVDZ
    Number of shells: 84
    Number of basis function: 164
    Number of Cartesian functions: 170
    Spherical Harmonics?: true
    Max angular momentum: 2

  ==> Pre-Iterations <==

   -------------------------------------------------------
    Irrep   Nso     Nmo     Nalpha   Nbeta   Ndocc  Nsocc
   -------------------------------------------------------
     A        164     164       0       0       0       0
   -------------------------------------------------------
    Total     164     164      26      26      26       0
   -------------------------------------------------------

  ==> Integral Setup <==

  Using integral reordering PK algorithm.
  Sizing the integral batches needed.
  Building batch lookup table.
   Calculation information:
      Number of atoms:                  22
      Number of AO shells:              84
      Number of primitives:            212
      Number of atomic orbitals:       170
      Number of basis functions:       164

      Integral cutoff                 1.00e-12
      Number of threads:                 1

	Batch   1 pq = [       0,    9405] index = [             0,44231715] size =     44231715
	Batch   2 pq = [    9405,   13530] index = [      44231715,91537215] size =     47305500
  Task number: 9
  Buffer size: 11059200
  Buffer per thread: 2
  We computed 5817630 shell quartets total.
  Whereas there are 6374235 unique shell quartets.

  ==> DiskJK: Disk-Based J/K Matrices <==

    J tasked:                  Yes
    K tasked:                  Yes
    wK tasked:                  No
    Memory [MiB]:              375
    Schwarz Cutoff:          1E-12

    OpenMP threads:              1

  Minimum eigenvalue in the overlap matrix is 4.7449230914E-03.
  Using Symmetric Orthogonalization.

  SCF Guess: Superposition of Atomic Densities via on-the-fly atomic UHF.

  ==> Iterations <==

                        Total Energy        Delta E     RMS |[F,P]|

   @RHF iter SAD:  -235.69899604471607   -2.35699e+02   0.00000e+00
   @RHF iter   1:  -236.27262043938197   -5.73624e-01   3.58896e-03 DIIS
   @RHF iter   2:  -236.46456136121969   -1.91941e-01   1.58386e-03 DIIS
   @RHF iter   3:  -236.50054144370418   -3.59801e-02   3.11448e-04 DIIS
   @RHF iter   4:  -236.50317464139681   -2.63320e-03   4.87689e-05 DIIS
   @RHF iter   5:  -236.50322633824351   -5.16968e-05   1.38318e-05 DIIS
   @RHF iter   6:  -236.50323068204227   -4.34380e-06   2.46456e-06 DIIS
   @RHF iter   7:  -236.50323083343770   -1.51395e-07   4.68300e-07 DIIS
   @RHF iter   8:  -236.50323084007672   -6.63903e-09   8.48736e-08 DIIS
   @RHF iter   9:  -236.50323084031061   -2.33882e-10   2.43383e-08 DIIS
   @RHF iter  10:  -236.50323084032792   -1.73088e-11   6.87380e-09 DIIS
   @RHF iter  11:  -236.50323084032934   -1.42109e-12   1.45058e-09 DIIS
   @RHF iter  12:  -236.50323084032794    1.39266e-12   3.72418e-10 DIIS
   @RHF iter  13:  -236.50323084032834   -3.97904e-13   9.20935e-11 DIIS
  Energy and wave function converged.

  ==> Post-Iterations <==

    Orbital Energies [Eh]
    ---------------------

    Doubly Occupied:

       1A    -11.217577     2A    -11.216722     3A    -11.213065
       4A    -11.211043     5A    -11.210376     6A    -11.209556
       7A     -1.070456     8A     -1.065297     9A     -0.918038
      10A     -0.914634    11A     -0.801541    12A     -0.795296
      13A     -0.646501    14A     -0.630141    15A     -0.615173
      16A     -0.611940    17A     -0.545966    18A     -0.542174
      19A     -0.519180    20A     -0.511005    21A     -0.489485
      22A     -0.479188    23A     -0.471577    24A     -0.463174
      25A     -0.459135    26A     -0.457241

    Virtual:

      27A      0.171670    28A      0.198874    29A      0.206926
      30A      0.214049    31A      0.227066    32A      0.233849
      33A      0.242701    34A      0.263444    35A      0.274023
      36A      0.276157    37A      0.291328    38A      0.314135
      39A      0.323026    40A      0.331108    41A      0.345014
      42A      0.354174    43A      0.371180    44A      0.407887
      45A      0.437497    46A      0.443485    47A      0.552742
      48A      0.565423    49A      0.581386    50A      0.614285
      51A      0.622341    52A      0.633857    53A      0.642100
      54A      0.659190    55A      0.694248    56A      0.750408
      57A      0.783201    58A      0.801524    59A      0.816247
      60A      0.829844    61A      0.848330    62A      0.856373
      63A      0.858904    64A      0.876628    65A      0.884970
      66A      0.893699    67A      0.895620    68A      0.904341
      69A      0.906919    70A      0.914150    71A      0.917600
      72A      0.928986    73A      0.934240    74A      0.941467
      75A      0.948934    76A      0.961388    77A      0.965722
      78A      1.002787    79A      1.028715    80A      1.039686
      81A      1.086269    82A      1.089604    83A      1.114336
      84A      1.131146    85A      1.203589    86A      1.234520
      87A      1.394041    88A      1.422919    89A      1.459452
      90A      1.468366    91A      1.502351    92A      1.513222
      93A      1.608536    94A      1.618700    95A      1.622237
      96A      1.623570    97A      1.635373    98A      1.651750
      99A      1.714360   100A      1.721817   101A      1.737127
     102A      1.742829   103A      1.786924   104A      1.798637
     105A      1.851160   106A      1.872175   107A      1.884619
     108A      1.895903   109A      1.916117   110A      1.921374
     111A      1.934827   112A      1.939392   113A      1.942964
     114A      1.948440   115A      1.955085   116A      1.968659
     117A      1.987782   118A      1.999953   119A      2.013238
     120A      2.023323   121A      2.035412   122A      2.041770
     123A      2.069061   124A      2.081394   125A      2.101188
     126A      2.122077   127A      2.140305   128A      2.168408
     129A      2.194221   130A      2.223799   131A      2.232521
     132A      2.248837   133A      2.298199   134A      2.314384
     135A      2.348237   136A      2.367617   137A      2.430272
     138A      2.458658   139A      2.466443   140A      2.482356
     141A      2.491452   142A      2.508106   143A      2.560601
     144A      2.566827   145A      2.636779   146A      2.650454
     147A      2.677935   148A      2.707989   149A      2.755926
     150A      2.761494   151A      2.783900   152A      2.799879
     153A      2.815039   154A      2.818703   155A      2.846462
     156A      2.861726   157A      2.871304   158A      2.878799
     159A      2.922358   160A      2.939682   161A      2.947146
     162A      2.960911   163A      3.055579   164A      3.079309

    Final Occupation by Irrep:
              A
    DOCC [    26 ]

  @RHF Final Energy:  -236.50323084032834

   => Energetics <=

    Nuclear Repulsion Energy =            247.9993265295414631
    One-Electron Energy =                -808.4341517217201272
    Two-Electron Energy =                 323.9315943518503218
    Total Energy =                       -236.5032308403283423

Computation Completed

Properties will be evaluated at   0.000000,   0.000000,   0.000000 [a0]

Properties computed using the SCF density matrix

  Nuclear Dipole Moment: [e a0]
     X:     0.4062      Y:     0.2843      Z:    -0.5871

  Electronic Dipole Moment: [e a0]
     X:    -0.4393      Y:    -0.3062      Z:     0.6138

  Dipole Moment: [e a0]
     X:    -0.0331      Y:    -0.0219      Z:     0.0267     Total:     0.0478

  Dipole Moment: [D]
     X:    -0.0840      Y:    -0.0556      Z:     0.0679     Total:     0.1214

*** tstop() called on ds3 at Mon Apr 27 22:15:51 2020
Module time:
	user time   =      29.22 seconds =       0.49 minutes
	system time =      10.58 seconds =       0.18 minutes
	total time  =         39 seconds =       0.65 minutes
Total time:
	user time   =      29.22 seconds =       0.49 minutes
	system time =      10.58 seconds =       0.18 minutes
	total time  =         39 seconds =       0.65 minutes
                                     G D M A

                                 by Anthony Stone

                           version 2.2.06, 22 June 2011

               Distributed Multipoles from Gaussian wavefunctions

Starting at 22:15:51 on 27 Apr 2020

Using SCF density matrix from file ./SSI/SSI-078PRO-115PRO-1-dimer.test.4242.fchk

                         Distributed Multipole Analysis

Standard DMA

Positions and radii in angstrom
Multipole moments in atomic units, ea_0^k for rank k

C          x = -0.542232  y =  1.276255  z =  1.545599 angstrom
           Maximum rank =  0   Radius =  0.650 angstrom
                   Q00  =  -0.109302

C          x = -0.191232  y =  2.191255  z =  0.383599 angstrom
           Maximum rank =  0   Radius =  0.650 angstrom
                   Q00  =  -0.230865

C          x =  0.629768  y =  1.364255  z =  2.465599 angstrom
           Maximum rank =  0   Radius =  0.650 angstrom
                   Q00  =  -0.202637

H          x = -0.735232  y =  0.257255  z =  1.218599 angstrom
           Maximum rank =  0   Radius =  0.325 angstrom
                   Q00  =   0.055996

H          x = -1.425232  y =  1.668255  z =  2.051599 angstrom
           Maximum rank =  0   Radius =  0.325 angstrom
                   Q00  =   0.048307

H          x =  0.327768  y =  1.631255  z = -0.392401 angstrom
           Maximum rank =  0   Radius =  0.325 angstrom
                   Q00  =   0.078464

H          x = -1.097232  y =  2.641255  z = -0.002401 angstrom
           Maximum rank =  0   Radius =  0.325 angstrom
                   Q00  =   0.087047

H          x =  1.352768  y =  0.603255  z =  2.162599 angstrom
           Maximum rank =  0   Radius =  0.325 angstrom
                   Q00  =   0.076909

H          x =  0.339768  y =  1.191255  z =  3.494599 angstrom
           Maximum rank =  0   Radius =  0.325 angstrom
                   Q00  =   0.079220

H          x =  0.472439  y =  2.948884  z =  0.825799 angstrom
           Maximum rank =  0   Radius =  0.325 angstrom
                   Q00  =   0.062699

H          x =  1.044566  y =  2.373980  z =  2.329969 angstrom
           Maximum rank =  0   Radius =  0.325 angstrom
                   Q00  =   0.052247

C          x =  0.012768  y = -1.554745  z = -0.827401 angstrom
           Maximum rank =  0   Radius =  0.650 angstrom
                   Q00  =  -0.107630

C          x = -0.785232  y = -0.766745  z = -1.848401 angstrom
           Maximum rank =  0   Radius =  0.650 angstrom
                   Q00  =  -0.216974

C          x =  0.839768  y = -2.535745  z = -1.666401 angstrom
           Maximum rank =  0   Radius =  0.650 angstrom
                   Q00  =  -0.188499

H          x = -0.687232  y = -2.097745  z = -0.193401 angstrom
           Maximum rank =  0   Radius =  0.325 angstrom
                   Q00  =   0.050123

H          x =  0.652768  y = -0.905745  z = -0.230401 angstrom
           Maximum rank =  0   Radius =  0.325 angstrom
                   Q00  =   0.053330

H          x = -1.684232  y = -0.333745  z = -1.409401 angstrom
           Maximum rank =  0   Radius =  0.325 angstrom
                   Q00  =   0.082375

H          x = -0.175232  y =  0.010255  z = -2.292401 angstrom
           Maximum rank =  0   Radius =  0.325 angstrom
                   Q00  =   0.078625

H          x =  1.741768  y = -2.030745  z = -2.015401 angstrom
           Maximum rank =  0   Radius =  0.325 angstrom
                   Q00  =   0.079033

H          x = -1.025836  y = -1.531017  z = -2.602061 angstrom
           Maximum rank =  0   Radius =  0.325 angstrom
                   Q00  =   0.051144

H          x =  0.204254  y = -2.737579  z = -2.541261 angstrom
           Maximum rank =  0   Radius =  0.325 angstrom
                   Q00  =   0.047696

H          x =  1.127460  y = -3.385808  z = -1.030301 angstrom
           Maximum rank =  0   Radius =  0.325 angstrom
                   Q00  =   0.072690

Total multipoles referred to origin at
           x =   0.000000,  y =    0.000000,  z =    0.000000 angstrom
                   Q00  =  -0.000000

Finished at 22:15:51 on 27 Apr 2020

  DMA results are available in the Python driver through the
	  variable('DMA DISTRIBUTED MULTIPOLES')
  and
	  variable('DMA TOTAL MULTIPOLES')
  commands.

    Psi4 stopped on: Monday, 27 April 2020 10:15PM
    Psi4 wall time for execution: 0:00:38.77

*** Psi4 exiting successfully. Buy a developer a beer!
