                               Psi4 1.3.2 release

  ==> Input File <==

--------------------------------------------------------------------------
import numpy as np
set {scf_type pk
basis cc-pvdz
d_convergence 10
gdma_switch   0
gdma_limit    0
gdma_origin   [ 0.0,  0.0,  0.0 ]
}
molecule test {
    units Angstrom
    0 1
    --
    0 1
    C               -2.286225854319749    -0.830969879560187    -0.007471173129904
    C               -2.469225854319749    -2.246969879560187    -0.433471173129904
    C               -3.412225854319749    -0.308969879560187     0.892528826870096
    H               -1.342225854319748    -0.751969879560187     0.530528826870096
    H               -2.237225854319749    -0.204969879560187    -0.897471173129904
    H               -3.409225854319748    -2.331969879560188    -0.982471173129904
    H               -2.571225854319748    -2.841969879560188     0.476528826870096
    H               -4.365225854319748    -0.443969879560187     0.375528826870096
    H               -3.454225854319749    -0.887969879560187     1.816528826870096
    H               -1.660452854319748    -2.686219879560188    -1.035921173129904
    H               -3.273557854319749     0.762900120439813     1.097158826870096
    C               -0.114225854319749     1.061030120439812    -2.678471173129904
    C                0.179774145680251     1.490030120439813    -0.187471173129904
    C                0.543774145680251     0.782030120439813    -1.346471173129904
    C                0.721774145680251     1.188030120439812     1.053528826870096
    C                1.493774145680252    -0.239969879560187    -1.202471173129904
    C                1.673774145680252     0.177030120439813     1.165528826870096
    C                2.073774145680252    -0.537969879560187     0.032528826870096
    O                2.196774145680251    -0.090969879560187     2.388528826870096
    H               -0.560225854319749     2.276030120439813    -0.262471173129904
    H                0.430774145680252     1.744030120439813     1.931528826870096
    H               -1.189225854319748     1.098030120439813    -2.505471173129905
    H                0.045774145680251     0.203030120439813    -3.319471173129904
    H                1.794774145680252    -0.805969879560187    -2.075471173129904
    H                2.825774145680251    -1.307969879560188     0.107528826870096
    H                2.945774145680252    -0.698969879560187     2.359528826870096
    H                0.150017145680252     1.971760120439813    -3.235911173129904

}
e, wfn = energy('scf', return_wfn=True)
gdma(wfn)
dmavals = variable('DMA DISTRIBUTED MULTIPOLES')
charges = np.array(dmavals)
print(charges)
np.save('SSI-076ARG-208TYR-1-dimer.npy', np.array(charges))--------------------------------------------------------------------------

*** tstart() called on ds3
*** at Sun Apr 26 17:55:18 2020

   => Loading Basis Set <=

    Name: CC-PVDZ
    Role: ORBITAL
    Keyword: BASIS
    atoms 1-3, 12-18  entry C          line   138 file /theoryfs2/ds/metcalf/miniconda2/envs/tf2gpu/share/psi4/basis/cc-pvdz.gbs
    atoms 4-11, 20-27 entry H          line    22 file /theoryfs2/ds/metcalf/miniconda2/envs/tf2gpu/share/psi4/basis/cc-pvdz.gbs
    atoms 19          entry O          line   198 file /theoryfs2/ds/metcalf/miniconda2/envs/tf2gpu/share/psi4/basis/cc-pvdz.gbs

         ---------------------------------------------------------
                                   SCF
               by Justin Turney, Rob Parrish, Andy Simmonett
                          and Daniel G. A. Smith
                              RHF Reference
                        1 Threads,    500 MiB Core
         ---------------------------------------------------------

  ==> Geometry <==

    Molecular point group: c1
    Full point group: C1

    Geometry (in Angstrom), charge = 0, multiplicity = 1:

       Center              X                  Y                   Z               Mass
    ------------   -----------------  -----------------  -----------------  -----------------
         C           -2.286225854320    -0.830969879560    -0.007471173130    12.000000000000
         C           -2.469225854320    -2.246969879560    -0.433471173130    12.000000000000
         C           -3.412225854320    -0.308969879560     0.892528826870    12.000000000000
         H           -1.342225854320    -0.751969879560     0.530528826870     1.007825032230
         H           -2.237225854320    -0.204969879560    -0.897471173130     1.007825032230
         H           -3.409225854320    -2.331969879560    -0.982471173130     1.007825032230
         H           -2.571225854320    -2.841969879560     0.476528826870     1.007825032230
         H           -4.365225854320    -0.443969879560     0.375528826870     1.007825032230
         H           -3.454225854320    -0.887969879560     1.816528826870     1.007825032230
         H           -1.660452854320    -2.686219879560    -1.035921173130     1.007825032230
         H           -3.273557854320     0.762900120440     1.097158826870     1.007825032230
         C           -0.114225854320     1.061030120440    -2.678471173130    12.000000000000
         C            0.179774145680     1.490030120440    -0.187471173130    12.000000000000
         C            0.543774145680     0.782030120440    -1.346471173130    12.000000000000
         C            0.721774145680     1.188030120440     1.053528826870    12.000000000000
         C            1.493774145680    -0.239969879560    -1.202471173130    12.000000000000
         C            1.673774145680     0.177030120440     1.165528826870    12.000000000000
         C            2.073774145680    -0.537969879560     0.032528826870    12.000000000000
         O            2.196774145680    -0.090969879560     2.388528826870    15.994914619570
         H           -0.560225854320     2.276030120440    -0.262471173130     1.007825032230
         H            0.430774145680     1.744030120440     1.931528826870     1.007825032230
         H           -1.189225854320     1.098030120440    -2.505471173130     1.007825032230
         H            0.045774145680     0.203030120440    -3.319471173130     1.007825032230
         H            1.794774145680    -0.805969879560    -2.075471173130     1.007825032230
         H            2.825774145680    -1.307969879560     0.107528826870     1.007825032230
         H            2.945774145680    -0.698969879560     2.359528826870     1.007825032230
         H            0.150017145680     1.971760120440    -3.235911173130     1.007825032230

  Running in c1 symmetry.

  Rotational constants: A =      0.03803  B =      0.02266  C =      0.01832 [cm^-1]
  Rotational constants: A =   1139.98682  B =    679.23139  C =    549.10142 [MHz]
  Nuclear repulsion =  597.406915244760512

  Charge       = 0
  Multiplicity = 1
  Electrons    = 84
  Nalpha       = 42
  Nbeta        = 42

  ==> Algorithm <==

  SCF Algorithm Type is PK.
  DIIS enabled.
  MOM disabled.
  Fractional occupation disabled.
  Guess Type is SAD.
  Energy threshold   = 1.00e-06
  Density threshold  = 1.00e-10
  Integral threshold = 0.00e+00

  ==> Primary Basis <==

  Basis Set: CC-PVDZ
    Blend: CC-PVDZ
    Number of shells: 114
    Number of basis function: 234
    Number of Cartesian functions: 245
    Spherical Harmonics?: true
    Max angular momentum: 2

  ==> Pre-Iterations <==

   -------------------------------------------------------
    Irrep   Nso     Nmo     Nalpha   Nbeta   Ndocc  Nsocc
   -------------------------------------------------------
     A        234     234       0       0       0       0
   -------------------------------------------------------
    Total     234     234      42      42      42       0
   -------------------------------------------------------

  ==> Integral Setup <==

  Using integral reordering PK algorithm.
  Sizing the integral batches needed.
  Building batch lookup table.
   Calculation information:
      Number of atoms:                  27
      Number of AO shells:             114
      Number of primitives:            322
      Number of atomic orbitals:       245
      Number of basis functions:       234

      Integral cutoff                 1.00e-12
      Number of threads:                 1

	Batch   1 pq = [       0,    9405] index = [             0,44231715] size =     44231715
	Batch   2 pq = [    9405,   13301] index = [      44231715,88464951] size =     44233236
	Batch   3 pq = [   13301,   16290] index = [      88464951,132690195] size =     44225244
	Batch   4 pq = [   16290,   18810] index = [     132690195,176917455] size =     44227260
	Batch   5 pq = [   18810,   21030] index = [     176917455,221140965] size =     44223510
	Batch   6 pq = [   21030,   23037] index = [     221140965,265363203] size =     44222238
	Batch   7 pq = [   23037,   24883] index = [     265363203,309594286] size =     44231083
	Batch   8 pq = [   24883,   26601] index = [     309594286,353819901] size =     44225615
	Batch   9 pq = [   26601,   27495] index = [     353819901,378001260] size =     24181359
  Task number: 35
  Buffer size: 11059200
  Buffer per thread: 2
  We computed 22334078 shell quartets total.
  Whereas there are 21487290 unique shell quartets.
     3.94 percent of shell quartets recomputed by reordering.

  ==> DiskJK: Disk-Based J/K Matrices <==

    J tasked:                  Yes
    K tasked:                  Yes
    wK tasked:                  No
    Memory [MiB]:              375
    Schwarz Cutoff:          1E-12

    OpenMP threads:              1

  Minimum eigenvalue in the overlap matrix is 3.2406461636E-04.
  Using Symmetric Orthogonalization.

  SCF Guess: Superposition of Atomic Densities via on-the-fly atomic UHF.

  ==> Iterations <==

                        Total Energy        Delta E     RMS |[F,P]|

   @RHF iter SAD:  -461.73977865187351   -4.61740e+02   0.00000e+00
   @RHF iter   1:  -462.59739444178967   -8.57616e-01   2.83840e-03 DIIS
   @RHF iter   2:  -462.84266792142932   -2.45273e-01   1.21350e-03 DIIS
   @RHF iter   3:  -462.88346064914873   -4.07927e-02   2.70806e-04 DIIS
   @RHF iter   4:  -462.88676011139074   -3.29946e-03   1.06894e-04 DIIS
   @RHF iter   5:  -462.88712670674306   -3.66595e-04   2.10585e-05 DIIS
   @RHF iter   6:  -462.88714785588115   -2.11491e-05   6.78898e-06 DIIS
   @RHF iter   7:  -462.88715033511085   -2.47923e-06   2.18668e-06 DIIS
   @RHF iter   8:  -462.88715074733705   -4.12226e-07   8.89409e-07 DIIS
   @RHF iter   9:  -462.88715084168086   -9.43438e-08   4.58780e-07 DIIS
   @RHF iter  10:  -462.88715086611899   -2.44381e-08   1.93682e-07 DIIS
   @RHF iter  11:  -462.88715087307588   -6.95690e-09   6.83684e-08 DIIS
   @RHF iter  12:  -462.88715087366955   -5.93673e-10   2.77703e-08 DIIS
   @RHF iter  13:  -462.88715087373026   -6.07088e-11   8.58968e-09 DIIS
   @RHF iter  14:  -462.88715087373771   -7.44649e-12   2.46386e-09 DIIS
   @RHF iter  15:  -462.88715087373760    1.13687e-13   1.12042e-09 DIIS
   @RHF iter  16:  -462.88715087373868   -1.08002e-12   5.05848e-10 DIIS
   @RHF iter  17:  -462.88715087373760    1.08002e-12   2.13189e-10 DIIS
   @RHF iter  18:  -462.88715087373924   -1.64846e-12   8.33384e-11 DIIS
  Energy and wave function converged.

  ==> Post-Iterations <==

    Orbital Energies [Eh]
    ---------------------

    Doubly Occupied:

       1A    -20.584769     2A    -11.302039     3A    -11.241384
       4A    -11.238717     5A    -11.235913     6A    -11.234329
       7A    -11.229249     8A    -11.228151     9A    -11.211377
      10A    -11.206645    11A    -11.205216    12A     -1.402519
      13A     -1.148074    14A     -1.052021    15A     -1.035775
      16A     -1.017239    17A     -0.927648    18A     -0.918457
      19A     -0.843144    20A     -0.804362    21A     -0.787755
      22A     -0.733336    23A     -0.667292    24A     -0.643470
      25A     -0.622864    26A     -0.605120    27A     -0.595994
      28A     -0.586474    29A     -0.586041    30A     -0.569217
      31A     -0.565204    32A     -0.539894    33A     -0.525051
      34A     -0.522470    35A     -0.502478    36A     -0.481959
      37A     -0.476410    38A     -0.471850    39A     -0.455784
      40A     -0.447833    41A     -0.338205    42A     -0.300579

    Virtual:

      43A      0.130081    44A      0.150784    45A      0.174573
      46A      0.179125    47A      0.200953    48A      0.205441
      49A      0.215882    50A      0.244132    51A      0.248787
      52A      0.254577    53A      0.261975    54A      0.266790
      55A      0.270201    56A      0.292007    57A      0.299645
      58A      0.306559    59A      0.314504    60A      0.349888
      61A      0.367422    62A      0.372463    63A      0.389500
      64A      0.430418    65A      0.440943    66A      0.460972
      67A      0.479091    68A      0.496294    69A      0.516339
      70A      0.581662    71A      0.590797    72A      0.600148
      73A      0.609003    74A      0.611562    75A      0.626202
      76A      0.649528    77A      0.657549    78A      0.669269
      79A      0.692775    80A      0.712617    81A      0.729277
      82A      0.731766    83A      0.742179    84A      0.764721
      85A      0.766531    86A      0.781934    87A      0.793648
      88A      0.814436    89A      0.817735    90A      0.829611
      91A      0.841918    92A      0.850757    93A      0.862480
      94A      0.878520    95A      0.879575    96A      0.888687
      97A      0.895952    98A      0.898834    99A      0.906135
     100A      0.909775   101A      0.915711   102A      0.918583
     103A      0.925572   104A      0.930375   105A      0.936180
     106A      0.953309   107A      0.971790   108A      0.985400
     109A      0.989823   110A      0.996496   111A      1.019236
     112A      1.044346   113A      1.048993   114A      1.083169
     115A      1.125088   116A      1.129543   117A      1.143066
     118A      1.150659   119A      1.160715   120A      1.195213
     121A      1.208697   122A      1.233088   123A      1.250714
     124A      1.255035   125A      1.264736   126A      1.282538
     127A      1.303915   128A      1.307989   129A      1.308660
     130A      1.353885   131A      1.363262   132A      1.389314
     133A      1.400199   134A      1.478280   135A      1.486825
     136A      1.489968   137A      1.516702   138A      1.527039
     139A      1.544719   140A      1.584943   141A      1.621211
     142A      1.624192   143A      1.639483   144A      1.686890
     145A      1.695417   146A      1.699343   147A      1.704046
     148A      1.725633   149A      1.744743   150A      1.749352
     151A      1.793082   152A      1.804078   153A      1.819985
     154A      1.867679   155A      1.879054   156A      1.889396
     157A      1.891309   158A      1.895301   159A      1.907004
     160A      1.912525   161A      1.915422   162A      1.925441
     163A      1.931017   164A      1.941817   165A      1.950964
     166A      1.955613   167A      1.967826   168A      1.980679
     169A      1.997284   170A      1.997528   171A      2.005584
     172A      2.015398   173A      2.020177   174A      2.022245
     175A      2.041249   176A      2.046322   177A      2.054271
     178A      2.068021   179A      2.089400   180A      2.095276
     181A      2.132245   182A      2.145217   183A      2.152941
     184A      2.168622   185A      2.178770   186A      2.201083
     187A      2.214598   188A      2.257561   189A      2.269908
     190A      2.300271   191A      2.306821   192A      2.318722
     193A      2.344868   194A      2.347354   195A      2.359767
     196A      2.366120   197A      2.418544   198A      2.449184
     199A      2.480760   200A      2.496935   201A      2.516990
     202A      2.521570   203A      2.556095   204A      2.560741
     205A      2.594320   206A      2.609885   207A      2.628590
     208A      2.647300   209A      2.649873   210A      2.754612
     211A      2.766906   212A      2.771777   213A      2.779784
     214A      2.791380   215A      2.794455   216A      2.805897
     217A      2.823338   218A      2.870578   219A      2.896291
     220A      2.941391   221A      2.971557   222A      2.979531
     223A      3.000880   224A      3.007086   225A      3.081691
     226A      3.111743   227A      3.137401   228A      3.245975
     229A      3.275860   230A      3.354722   231A      3.566666
     232A      3.667473   233A      3.956843   234A      4.188996

    Final Occupation by Irrep:
              A
    DOCC [    42 ]

  @RHF Final Energy:  -462.88715087373924

   => Energetics <=

    Nuclear Repulsion Energy =            597.4069152447605120
    One-Electron Energy =               -1812.4035140899029557
    Two-Electron Energy =                 752.1094479714031422
    Total Energy =                       -462.8871508737393015

Computation Completed

Properties will be evaluated at   0.000000,   0.000000,   0.000000 [a0]

Properties computed using the SCF density matrix

  Nuclear Dipole Moment: [e a0]
     X:   -14.8670      Y:    -4.5998      Z:    -5.2569

  Electronic Dipole Moment: [e a0]
     X:    15.2655      Y:     4.3444      Z:     4.9201

  Dipole Moment: [e a0]
     X:     0.3985      Y:    -0.2554      Z:    -0.3368     Total:     0.5809

  Dipole Moment: [D]
     X:     1.0128      Y:    -0.6491      Z:    -0.8560     Total:     1.4765

*** tstop() called on ds3 at Sun Apr 26 17:58:53 2020
Module time:
	user time   =     162.21 seconds =       2.70 minutes
	system time =      60.43 seconds =       1.01 minutes
	total time  =        215 seconds =       3.58 minutes
Total time:
	user time   =     162.21 seconds =       2.70 minutes
	system time =      60.43 seconds =       1.01 minutes
	total time  =        215 seconds =       3.58 minutes
                                     G D M A

                                 by Anthony Stone

                           version 2.2.06, 22 June 2011

               Distributed Multipoles from Gaussian wavefunctions

Starting at 17:58:53 on 26 Apr 2020

Using SCF density matrix from file ./SSI/SSI-076ARG-208TYR-1-dimer.test.30813.fchk

                         Distributed Multipole Analysis

Standard DMA

Positions and radii in angstrom
Multipole moments in atomic units, ea_0^k for rank k

C          x = -2.286226  y = -0.830970  z = -0.007471 angstrom
           Maximum rank =  0   Radius =  0.650 angstrom
                   Q00  =  -0.075970

C          x = -2.469226  y = -2.246970  z = -0.433471 angstrom
           Maximum rank =  0   Radius =  0.650 angstrom
                   Q00  =  -0.229545

C          x = -3.412226  y = -0.308970  z =  0.892529 angstrom
           Maximum rank =  0   Radius =  0.650 angstrom
                   Q00  =  -0.237637

H          x = -1.342226  y = -0.751970  z =  0.530529 angstrom
           Maximum rank =  0   Radius =  0.325 angstrom
                   Q00  =   0.054460

H          x = -2.237226  y = -0.204970  z = -0.897471 angstrom
           Maximum rank =  0   Radius =  0.325 angstrom
                   Q00  =   0.031000

H          x = -3.409226  y = -2.331970  z = -0.982471 angstrom
           Maximum rank =  0   Radius =  0.325 angstrom
                   Q00  =   0.064825

H          x = -2.571226  y = -2.841970  z =  0.476529 angstrom
           Maximum rank =  0   Radius =  0.325 angstrom
                   Q00  =   0.066129

H          x = -4.365226  y = -0.443970  z =  0.375529 angstrom
           Maximum rank =  0   Radius =  0.325 angstrom
                   Q00  =   0.070074

H          x = -3.454226  y = -0.887970  z =  1.816529 angstrom
           Maximum rank =  0   Radius =  0.325 angstrom
                   Q00  =   0.078802

H          x = -1.660453  y = -2.686220  z = -1.035921 angstrom
           Maximum rank =  0   Radius =  0.325 angstrom
                   Q00  =   0.083825

H          x = -3.273558  y =  0.762900  z =  1.097159 angstrom
           Maximum rank =  0   Radius =  0.325 angstrom
                   Q00  =   0.082514

C          x = -0.114226  y =  1.061030  z = -2.678471 angstrom
           Maximum rank =  0   Radius =  0.650 angstrom
                   Q00  =  -0.207848

C          x =  0.179774  y =  1.490030  z = -0.187471 angstrom
           Maximum rank =  0   Radius =  0.650 angstrom
                   Q00  =   0.036744

C          x =  0.543774  y =  0.782030  z = -1.346471 angstrom
           Maximum rank =  0   Radius =  0.650 angstrom
                   Q00  =  -0.123534

C          x =  0.721774  y =  1.188030  z =  1.053529 angstrom
           Maximum rank =  0   Radius =  0.650 angstrom
                   Q00  =  -0.113258

C          x =  1.493774  y = -0.239970  z = -1.202471 angstrom
           Maximum rank =  0   Radius =  0.650 angstrom
                   Q00  =  -0.019698

C          x =  1.673774  y =  0.177030  z =  1.165529 angstrom
           Maximum rank =  0   Radius =  0.650 angstrom
                   Q00  =   0.318257

C          x =  2.073774  y = -0.537970  z =  0.032529 angstrom
           Maximum rank =  0   Radius =  0.650 angstrom
                   Q00  =  -0.200349

O          x =  2.196774  y = -0.090970  z =  2.388529 angstrom
           Maximum rank =  0   Radius =  0.650 angstrom
                   Q00  =  -0.664027

H          x = -0.560226  y =  2.276030  z = -0.262471 angstrom
           Maximum rank =  0   Radius =  0.325 angstrom
                   Q00  =   0.061575

H          x =  0.430774  y =  1.744030  z =  1.931529 angstrom
           Maximum rank =  0   Radius =  0.325 angstrom
                   Q00  =   0.079813

H          x = -1.189226  y =  1.098030  z = -2.505471 angstrom
           Maximum rank =  0   Radius =  0.325 angstrom
                   Q00  =   0.091043

H          x =  0.045774  y =  0.203030  z = -3.319471 angstrom
           Maximum rank =  0   Radius =  0.325 angstrom
                   Q00  =   0.098010

H          x =  1.794774  y = -0.805970  z = -2.075471 angstrom
           Maximum rank =  0   Radius =  0.325 angstrom
                   Q00  =   0.069755

H          x =  2.825774  y = -1.307970  z =  0.107529 angstrom
           Maximum rank =  0   Radius =  0.325 angstrom
                   Q00  =   0.074346

H          x =  2.945774  y = -0.698970  z =  2.359529 angstrom
           Maximum rank =  0   Radius =  0.325 angstrom
                   Q00  =   0.408253

H          x =  0.150017  y =  1.971760  z = -3.235911 angstrom
           Maximum rank =  0   Radius =  0.325 angstrom
                   Q00  =   0.102443

Total multipoles referred to origin at
           x =   0.000000,  y =    0.000000,  z =    0.000000 angstrom
                   Q00  =  -0.000000

Finished at 17:58:53 on 26 Apr 2020

  DMA results are available in the Python driver through the
	  variable('DMA DISTRIBUTED MULTIPOLES')
  and
	  variable('DMA TOTAL MULTIPOLES')
  commands.

    Psi4 stopped on: Sunday, 26 April 2020 05:58PM
    Psi4 wall time for execution: 0:03:35.26

*** Psi4 exiting successfully. Buy a developer a beer!
