                               Psi4 1.3.2 release

  ==> Input File <==

--------------------------------------------------------------------------
import numpy as np
set {scf_type pk
basis cc-pvdz
d_convergence 10
gdma_switch   0
gdma_limit    0
gdma_origin   [ 0.0,  0.0,  0.0 ]
}
molecule test {
    units Angstrom
    0 1
    --
    0 1
    C               -1.208294491274226     0.976509606132233     0.293622571405925
    C               -0.724294491274226     1.976509606132233    -0.758377428594075
    C               -2.054294491274226    -0.137490393867767    -0.308377428594075
    H               -0.380294491274226     0.591509606132233     0.877622571405925
    H               -1.894294491274226     1.507509606132233     0.952622571405925
    H               -1.438294491274226     2.029509606132233    -1.581377428594075
    H                0.236705508725774     1.649509606132233    -1.155377428594075
    H               -2.512294491274226     0.229509606132233    -1.233377428594075
    H               -1.406294491274226    -0.979490393867767    -0.575377428594075
    H               -0.626034491274226     2.985789606132233    -0.332127428594075
    H               -2.851754491274226    -0.456770393867767     0.378732571405925
    C                1.425705508725774    -1.698490393867767     0.844622571405925
    C                2.488705508725774    -1.053490393867767    -0.049377428594075
    H                0.886705508725774    -0.957490393867767     1.424622571405925
    H                0.725705508725774    -2.279490393867767     0.240622571405925
    H                1.903705508725774    -2.373490393867767     1.551622571405925
    H                3.219705508725774    -1.808490393867767    -0.341377428594075
    H                2.993195508725774    -0.235570393867767     0.485882571405925
    H                2.006455508725774    -0.659200393867767    -0.956007428594075

}
e, wfn = energy('scf', return_wfn=True)
gdma(wfn)
dmavals = variable('DMA DISTRIBUTED MULTIPOLES')
charges = np.array(dmavals)
print(charges)
np.save('SSI-099LYS-104THR-1-dimer.npy', np.array(charges))--------------------------------------------------------------------------

*** tstart() called on ds3
*** at Tue Apr 28 13:32:57 2020

   => Loading Basis Set <=

    Name: CC-PVDZ
    Role: ORBITAL
    Keyword: BASIS
    atoms 1-3, 12-13  entry C          line   138 file /theoryfs2/ds/metcalf/miniconda2/envs/tf2gpu/share/psi4/basis/cc-pvdz.gbs
    atoms 4-11, 14-19 entry H          line    22 file /theoryfs2/ds/metcalf/miniconda2/envs/tf2gpu/share/psi4/basis/cc-pvdz.gbs

         ---------------------------------------------------------
                                   SCF
               by Justin Turney, Rob Parrish, Andy Simmonett
                          and Daniel G. A. Smith
                              RHF Reference
                        1 Threads,    500 MiB Core
         ---------------------------------------------------------

  ==> Geometry <==

    Molecular point group: c1
    Full point group: C1

    Geometry (in Angstrom), charge = 0, multiplicity = 1:

       Center              X                  Y                   Z               Mass
    ------------   -----------------  -----------------  -----------------  -----------------
         C           -1.208294491274     0.976509606132     0.293622571406    12.000000000000
         C           -0.724294491274     1.976509606132    -0.758377428594    12.000000000000
         C           -2.054294491274    -0.137490393868    -0.308377428594    12.000000000000
         H           -0.380294491274     0.591509606132     0.877622571406     1.007825032230
         H           -1.894294491274     1.507509606132     0.952622571406     1.007825032230
         H           -1.438294491274     2.029509606132    -1.581377428594     1.007825032230
         H            0.236705508726     1.649509606132    -1.155377428594     1.007825032230
         H           -2.512294491274     0.229509606132    -1.233377428594     1.007825032230
         H           -1.406294491274    -0.979490393868    -0.575377428594     1.007825032230
         H           -0.626034491274     2.985789606132    -0.332127428594     1.007825032230
         H           -2.851754491274    -0.456770393868     0.378732571406     1.007825032230
         C            1.425705508726    -1.698490393868     0.844622571406    12.000000000000
         C            2.488705508726    -1.053490393868    -0.049377428594    12.000000000000
         H            0.886705508726    -0.957490393868     1.424622571406     1.007825032230
         H            0.725705508726    -2.279490393868     0.240622571406     1.007825032230
         H            1.903705508726    -2.373490393868     1.551622571406     1.007825032230
         H            3.219705508726    -1.808490393868    -0.341377428594     1.007825032230
         H            2.993195508726    -0.235570393868     0.485882571406     1.007825032230
         H            2.006455508726    -0.659200393868    -0.956007428594     1.007825032230

  Running in c1 symmetry.

  Rotational constants: A =      0.18680  B =      0.05176  C =      0.04446 [cm^-1]
  Rotational constants: A =   5600.08054  B =   1551.68907  C =   1332.90500 [MHz]
  Nuclear repulsion =  182.737633336276645

  Charge       = 0
  Multiplicity = 1
  Electrons    = 44
  Nalpha       = 22
  Nbeta        = 22

  ==> Algorithm <==

  SCF Algorithm Type is PK.
  DIIS enabled.
  MOM disabled.
  Fractional occupation disabled.
  Guess Type is SAD.
  Energy threshold   = 1.00e-06
  Density threshold  = 1.00e-10
  Integral threshold = 0.00e+00

  ==> Primary Basis <==

  Basis Set: CC-PVDZ
    Blend: CC-PVDZ
    Number of shells: 72
    Number of basis function: 140
    Number of Cartesian functions: 145
    Spherical Harmonics?: true
    Max angular momentum: 2

  ==> Pre-Iterations <==

   -------------------------------------------------------
    Irrep   Nso     Nmo     Nalpha   Nbeta   Ndocc  Nsocc
   -------------------------------------------------------
     A        140     140       0       0       0       0
   -------------------------------------------------------
    Total     140     140      22      22      22       0
   -------------------------------------------------------

  ==> Integral Setup <==

  Using integral reordering PK algorithm.
  Sizing the integral batches needed.
  Building batch lookup table.
   Calculation information:
      Number of atoms:                  19
      Number of AO shells:              72
      Number of primitives:            180
      Number of atomic orbitals:       145
      Number of basis functions:       140

      Integral cutoff                 1.00e-12
      Number of threads:                 1

	Batch   1 pq = [       0,    9405] index = [             0,44231715] size =     44231715
	Batch   2 pq = [    9405,    9870] index = [      44231715,48713385] size =      4481670
  Task number: 5
  Buffer size: 11059200
  Buffer per thread: 2
  We computed 3116773 shell quartets total.
  Whereas there are 3454506 unique shell quartets.

  ==> DiskJK: Disk-Based J/K Matrices <==

    J tasked:                  Yes
    K tasked:                  Yes
    wK tasked:                  No
    Memory [MiB]:              375
    Schwarz Cutoff:          1E-12

    OpenMP threads:              1

  Minimum eigenvalue in the overlap matrix is 5.1512451136E-03.
  Using Symmetric Orthogonalization.

  SCF Guess: Superposition of Atomic Densities via on-the-fly atomic UHF.

  ==> Iterations <==

                        Total Energy        Delta E     RMS |[F,P]|

   @RHF iter SAD:  -196.39953158612977   -1.96400e+02   0.00000e+00
   @RHF iter   1:  -197.30267437276035   -9.03143e-01   3.80976e-03 DIIS
   @RHF iter   2:  -197.46247389057621   -1.59800e-01   1.65060e-03 DIIS
   @RHF iter   3:  -197.49120060490264   -2.87267e-02   3.26163e-04 DIIS
   @RHF iter   4:  -197.49340609569921   -2.20549e-03   4.95799e-05 DIIS
   @RHF iter   5:  -197.49344607436677   -3.99787e-05   1.49524e-05 DIIS
   @RHF iter   6:  -197.49344951375707   -3.43939e-06   2.43889e-06 DIIS
   @RHF iter   7:  -197.49344962449715   -1.10740e-07   4.74150e-07 DIIS
   @RHF iter   8:  -197.49344962941618   -4.91903e-09   1.25158e-07 DIIS
   @RHF iter   9:  -197.49344962974425   -3.28072e-10   3.90400e-08 DIIS
   @RHF iter  10:  -197.49344962978060   -3.63514e-11   8.24189e-09 DIIS
   @RHF iter  11:  -197.49344962978225   -1.64846e-12   1.54852e-09 DIIS
   @RHF iter  12:  -197.49344962978262   -3.69482e-13   3.35862e-10 DIIS
   @RHF iter  13:  -197.49344962978211    5.11591e-13   7.17812e-11 DIIS
  Energy and wave function converged.

  ==> Post-Iterations <==

    Orbital Energies [Eh]
    ---------------------

    Doubly Occupied:

       1A    -11.221062     2A    -11.216935     3A    -11.216044
       4A    -11.215090     5A    -11.214836     6A     -1.054684
       7A     -1.019032     8A     -0.922156     9A     -0.839157
      10A     -0.797048    11A     -0.631131    12A     -0.601322
      13A     -0.597559    14A     -0.594452    15A     -0.544189
      16A     -0.532235    17A     -0.501826    18A     -0.493712
      19A     -0.485015    20A     -0.473944    21A     -0.467514
      22A     -0.454922

    Virtual:

      23A      0.162885    24A      0.203070    25A      0.215486
      26A      0.221637    27A      0.238308    28A      0.241819
      29A      0.250014    30A      0.269332    31A      0.282146
      32A      0.291886    33A      0.306552    34A      0.320037
      35A      0.342973    36A      0.372669    37A      0.391793
      38A      0.430897    39A      0.448648    40A      0.562310
      41A      0.580322    42A      0.597514    43A      0.605430
      44A      0.617905    45A      0.621833    46A      0.646852
      47A      0.668313    48A      0.708034    49A      0.762368
      50A      0.790724    51A      0.817387    52A      0.846286
      53A      0.860863    54A      0.863651    55A      0.874478
      56A      0.889799    57A      0.892763    58A      0.902214
      59A      0.906950    60A      0.915525    61A      0.919234
      62A      0.923489    63A      0.941052    64A      0.951105
      65A      0.961945    66A      0.985028    67A      0.995522
      68A      1.009117    69A      1.086526    70A      1.101671
      71A      1.124275    72A      1.136703    73A      1.216101
      74A      1.266260    75A      1.406347    76A      1.466680
      77A      1.478067    78A      1.490913    79A      1.502580
      80A      1.542442    81A      1.575691    82A      1.625110
      83A      1.657788    84A      1.684151    85A      1.698485
      86A      1.711668    87A      1.720259    88A      1.824193
      89A      1.853799    90A      1.872934    91A      1.878702
      92A      1.882368    93A      1.915536    94A      1.921921
      95A      1.928884    96A      1.934151    97A      1.936068
      98A      1.941871    99A      1.948775   100A      1.951482
     101A      1.965065   102A      1.975372   103A      1.987273
     104A      2.004952   105A      2.026375   106A      2.038994
     107A      2.069211   108A      2.128365   109A      2.135277
     110A      2.161101   111A      2.231135   112A      2.272975
     113A      2.284356   114A      2.295151   115A      2.318858
     116A      2.330898   117A      2.400888   118A      2.429840
     119A      2.440938   120A      2.461302   121A      2.509694
     122A      2.530676   123A      2.587297   124A      2.598003
     125A      2.622219   126A      2.691635   127A      2.761670
     128A      2.775624   129A      2.787097   130A      2.789954
     131A      2.800401   132A      2.806465   133A      2.838394
     134A      2.854716   135A      2.901093   136A      2.930093
     137A      2.933881   138A      2.955883   139A      2.971114
     140A      3.071332

    Final Occupation by Irrep:
              A
    DOCC [    22 ]

  @RHF Final Energy:  -197.49344962978211

   => Energetics <=

    Nuclear Repulsion Energy =            182.7376333362766445
    One-Electron Energy =                -626.2744336587068119
    Two-Electron Energy =                 246.0433506926480618
    Total Energy =                       -197.4934496297821056

Computation Completed

Properties will be evaluated at   0.000000,   0.000000,   0.000000 [a0]

Properties computed using the SCF density matrix

  Nuclear Dipole Moment: [e a0]
     X:     0.8090      Y:    -0.7093      Z:    -0.2468

  Electronic Dipole Moment: [e a0]
     X:    -0.7983      Y:     0.6992      Z:     0.2823

  Dipole Moment: [e a0]
     X:     0.0107      Y:    -0.0101      Z:     0.0354     Total:     0.0384

  Dipole Moment: [D]
     X:     0.0272      Y:    -0.0258      Z:     0.0901     Total:     0.0976

*** tstop() called on ds3 at Tue Apr 28 13:33:21 2020
Module time:
	user time   =      18.01 seconds =       0.30 minutes
	system time =       6.57 seconds =       0.11 minutes
	total time  =         24 seconds =       0.40 minutes
Total time:
	user time   =      18.01 seconds =       0.30 minutes
	system time =       6.57 seconds =       0.11 minutes
	total time  =         24 seconds =       0.40 minutes
                                     G D M A

                                 by Anthony Stone

                           version 2.2.06, 22 June 2011

               Distributed Multipoles from Gaussian wavefunctions

Starting at 13:33:21 on 28 Apr 2020

Using SCF density matrix from file ./SSI/SSI-099LYS-104THR-1-dimer.test.16351.fchk

                         Distributed Multipole Analysis

Standard DMA

Positions and radii in angstrom
Multipole moments in atomic units, ea_0^k for rank k

C          x = -1.208294  y =  0.976510  z =  0.293623 angstrom
           Maximum rank =  0   Radius =  0.650 angstrom
                   Q00  =  -0.093962

C          x = -0.724294  y =  1.976510  z = -0.758377 angstrom
           Maximum rank =  0   Radius =  0.650 angstrom
                   Q00  =  -0.241107

C          x = -2.054294  y = -0.137490  z = -0.308377 angstrom
           Maximum rank =  0   Radius =  0.650 angstrom
                   Q00  =  -0.237519

H          x = -0.380294  y =  0.591510  z =  0.877623 angstrom
           Maximum rank =  0   Radius =  0.325 angstrom
                   Q00  =   0.057236

H          x = -1.894294  y =  1.507510  z =  0.952623 angstrom
           Maximum rank =  0   Radius =  0.325 angstrom
                   Q00  =   0.046995

H          x = -1.438294  y =  2.029510  z = -1.581377 angstrom
           Maximum rank =  0   Radius =  0.325 angstrom
                   Q00  =   0.074574

H          x =  0.236706  y =  1.649510  z = -1.155377 angstrom
           Maximum rank =  0   Radius =  0.325 angstrom
                   Q00  =   0.077454

H          x = -2.512294  y =  0.229510  z = -1.233377 angstrom
           Maximum rank =  0   Radius =  0.325 angstrom
                   Q00  =   0.072487

H          x = -1.406294  y = -0.979490  z = -0.575377 angstrom
           Maximum rank =  0   Radius =  0.325 angstrom
                   Q00  =   0.075372

H          x = -0.626034  y =  2.985790  z = -0.332127 angstrom
           Maximum rank =  0   Radius =  0.325 angstrom
                   Q00  =   0.081416

H          x = -2.851754  y = -0.456770  z =  0.378733 angstrom
           Maximum rank =  0   Radius =  0.325 angstrom
                   Q00  =   0.087636

C          x =  1.425706  y = -1.698490  z =  0.844623 angstrom
           Maximum rank =  0   Radius =  0.650 angstrom
                   Q00  =  -0.231900

C          x =  2.488706  y = -1.053490  z = -0.049377 angstrom
           Maximum rank =  0   Radius =  0.650 angstrom
                   Q00  =  -0.246632

H          x =  0.886706  y = -0.957490  z =  1.424623 angstrom
           Maximum rank =  0   Radius =  0.325 angstrom
                   Q00  =   0.081739

H          x =  0.725706  y = -2.279490  z =  0.240623 angstrom
           Maximum rank =  0   Radius =  0.325 angstrom
                   Q00  =   0.079697

H          x =  1.903706  y = -2.373490  z =  1.551623 angstrom
           Maximum rank =  0   Radius =  0.325 angstrom
                   Q00  =   0.077505

H          x =  3.219706  y = -1.808490  z = -0.341377 angstrom
           Maximum rank =  0   Radius =  0.325 angstrom
                   Q00  =   0.081422

H          x =  2.993196  y = -0.235570  z =  0.485883 angstrom
           Maximum rank =  0   Radius =  0.325 angstrom
                   Q00  =   0.080035

H          x =  2.006456  y = -0.659200  z = -0.956007 angstrom
           Maximum rank =  0   Radius =  0.325 angstrom
                   Q00  =   0.077552

Total multipoles referred to origin at
           x =   0.000000,  y =    0.000000,  z =    0.000000 angstrom
                   Q00  =  -0.000000

Finished at 13:33:21 on 28 Apr 2020

  DMA results are available in the Python driver through the
	  variable('DMA DISTRIBUTED MULTIPOLES')
  and
	  variable('DMA TOTAL MULTIPOLES')
  commands.

    Psi4 stopped on: Tuesday, 28 April 2020 01:33PM
    Psi4 wall time for execution: 0:00:23.80

*** Psi4 exiting successfully. Buy a developer a beer!
