                               Psi4 1.3.2 release

  ==> Input File <==

--------------------------------------------------------------------------
import numpy as np
set {scf_type pk
basis cc-pvdz
d_convergence 10
gdma_switch   0
gdma_limit    0
gdma_origin   [ 0.0,  0.0,  0.0 ]
}
molecule test {
    units Angstrom
    0 1
    --
    0 1
    C                1.995385609034867     2.161835856887418     0.382084078101182
    C                2.604385609034867     3.378835856887418     1.041084078101182
    C                2.366385609034867     1.060835856887418     1.351084078101182
    H                2.414385609034867     1.986835856887418    -0.609915921898818
    H                0.911385609034867     2.271835856887418     0.331084078101182
    H                3.617385609034867     3.280835856887418     0.764084078101182
    H                2.140385609034867     4.298835856887418     0.685084078101182
    H                3.424385609034867     0.824835856887418     1.256084078101182
    H                1.757385609034867     0.167835856887418     1.205084078101182
    H                2.455085609034867     3.183025856887418     2.113174078101182
    H                2.164605609034867     1.533105856887418     2.323834078101182
    C               -3.033614390965133     0.028835856887418     0.615084078101182
    C               -0.879614390965133     0.128835856887418    -0.673915921898818
    C               -1.870614390965133    -0.638164143112582    -0.060915921898818
    C                0.233385609034867    -0.482164143112582    -1.257915921898818
    C               -1.738614390965133    -2.028164143112582    -0.043915921898818
    C                0.359385609034867    -1.870164143112582    -1.234915921898818
    C               -0.630614390965133    -2.644164143112582    -0.628915921898818
    H               -0.961614390965133     1.204835856887418    -0.691915921898818
    H                0.999385609034867     0.126835856887418    -1.718915921898818
    H               -3.885614390965133    -0.633164143112582     0.575084078101182
    H               -3.297614390965133     0.929835856887418     0.060084078101182
    H               -2.484614390965133    -2.644164143112582     0.425084078101182
    H                1.215385609034867    -2.350164143112582    -1.683915921898818
    H               -0.556614390965133    -3.718164143112582    -0.611915921898818
    H               -2.839334390965133     0.296505856887418     1.664184078101182

}
e, wfn = energy('scf', return_wfn=True)
gdma(wfn)
dmavals = variable('DMA DISTRIBUTED MULTIPOLES')
charges = np.array(dmavals)
print(charges)
np.save('SSI-093PRO-184PHE-1-dimer.npy', np.array(charges))--------------------------------------------------------------------------

*** tstart() called on ds3
*** at Sun Apr 26 21:19:56 2020

   => Loading Basis Set <=

    Name: CC-PVDZ
    Role: ORBITAL
    Keyword: BASIS
    atoms 1-3, 12-18  entry C          line   138 file /theoryfs2/ds/metcalf/miniconda2/envs/tf2gpu/share/psi4/basis/cc-pvdz.gbs
    atoms 4-11, 19-26 entry H          line    22 file /theoryfs2/ds/metcalf/miniconda2/envs/tf2gpu/share/psi4/basis/cc-pvdz.gbs

         ---------------------------------------------------------
                                   SCF
               by Justin Turney, Rob Parrish, Andy Simmonett
                          and Daniel G. A. Smith
                              RHF Reference
                        1 Threads,    500 MiB Core
         ---------------------------------------------------------

  ==> Geometry <==

    Molecular point group: c1
    Full point group: C1

    Geometry (in Angstrom), charge = 0, multiplicity = 1:

       Center              X                  Y                   Z               Mass
    ------------   -----------------  -----------------  -----------------  -----------------
         C            1.995385609035     2.161835856887     0.382084078101    12.000000000000
         C            2.604385609035     3.378835856887     1.041084078101    12.000000000000
         C            2.366385609035     1.060835856887     1.351084078101    12.000000000000
         H            2.414385609035     1.986835856887    -0.609915921899     1.007825032230
         H            0.911385609035     2.271835856887     0.331084078101     1.007825032230
         H            3.617385609035     3.280835856887     0.764084078101     1.007825032230
         H            2.140385609035     4.298835856887     0.685084078101     1.007825032230
         H            3.424385609035     0.824835856887     1.256084078101     1.007825032230
         H            1.757385609035     0.167835856887     1.205084078101     1.007825032230
         H            2.455085609035     3.183025856887     2.113174078101     1.007825032230
         H            2.164605609035     1.533105856887     2.323834078101     1.007825032230
         C           -3.033614390965     0.028835856887     0.615084078101    12.000000000000
         C           -0.879614390965     0.128835856887    -0.673915921899    12.000000000000
         C           -1.870614390965    -0.638164143113    -0.060915921899    12.000000000000
         C            0.233385609035    -0.482164143113    -1.257915921899    12.000000000000
         C           -1.738614390965    -2.028164143113    -0.043915921899    12.000000000000
         C            0.359385609035    -1.870164143113    -1.234915921899    12.000000000000
         C           -0.630614390965    -2.644164143113    -0.628915921899    12.000000000000
         H           -0.961614390965     1.204835856887    -0.691915921899     1.007825032230
         H            0.999385609035     0.126835856887    -1.718915921899     1.007825032230
         H           -3.885614390965    -0.633164143113     0.575084078101     1.007825032230
         H           -3.297614390965     0.929835856887     0.060084078101     1.007825032230
         H           -2.484614390965    -2.644164143113     0.425084078101     1.007825032230
         H            1.215385609035    -2.350164143113    -1.683915921899     1.007825032230
         H           -0.556614390965    -3.718164143113    -0.611915921899     1.007825032230
         H           -2.839334390965     0.296505856887     1.664184078101     1.007825032230

  Running in c1 symmetry.

  Rotational constants: A =      0.06365  B =      0.01933  C =      0.01648 [cm^-1]
  Rotational constants: A =   1908.25427  B =    579.37024  C =    493.90867 [MHz]
  Nuclear repulsion =  490.258106887434053

  Charge       = 0
  Multiplicity = 1
  Electrons    = 76
  Nalpha       = 38
  Nbeta        = 38

  ==> Algorithm <==

  SCF Algorithm Type is PK.
  DIIS enabled.
  MOM disabled.
  Fractional occupation disabled.
  Guess Type is SAD.
  Energy threshold   = 1.00e-06
  Density threshold  = 1.00e-10
  Integral threshold = 0.00e+00

  ==> Primary Basis <==

  Basis Set: CC-PVDZ
    Blend: CC-PVDZ
    Number of shells: 108
    Number of basis function: 220
    Number of Cartesian functions: 230
    Spherical Harmonics?: true
    Max angular momentum: 2

  ==> Pre-Iterations <==

   -------------------------------------------------------
    Irrep   Nso     Nmo     Nalpha   Nbeta   Ndocc  Nsocc
   -------------------------------------------------------
     A        220     220       0       0       0       0
   -------------------------------------------------------
    Total     220     220      38      38      38       0
   -------------------------------------------------------

  ==> Integral Setup <==

  Using integral reordering PK algorithm.
  Sizing the integral batches needed.
  Building batch lookup table.
   Calculation information:
      Number of atoms:                  26
      Number of AO shells:             108
      Number of primitives:            300
      Number of atomic orbitals:       230
      Number of basis functions:       220

      Integral cutoff                 1.00e-12
      Number of threads:                 1

	Batch   1 pq = [       0,    9405] index = [             0,44231715] size =     44231715
	Batch   2 pq = [    9405,   13301] index = [      44231715,88464951] size =     44233236
	Batch   3 pq = [   13301,   16290] index = [      88464951,132690195] size =     44225244
	Batch   4 pq = [   16290,   18810] index = [     132690195,176917455] size =     44227260
	Batch   5 pq = [   18810,   21030] index = [     176917455,221140965] size =     44223510
	Batch   6 pq = [   21030,   23037] index = [     221140965,265363203] size =     44222238
	Batch   7 pq = [   23037,   24310] index = [     265363203,295500205] size =     30137002
  Task number: 27
  Buffer size: 11059200
  Buffer per thread: 2
  We computed 15417025 shell quartets total.
  Whereas there are 17325441 unique shell quartets.

  ==> DiskJK: Disk-Based J/K Matrices <==

    J tasked:                  Yes
    K tasked:                  Yes
    wK tasked:                  No
    Memory [MiB]:              375
    Schwarz Cutoff:          1E-12

    OpenMP threads:              1

  Minimum eigenvalue in the overlap matrix is 3.1180299854E-04.
  Using Symmetric Orthogonalization.

  SCF Guess: Superposition of Atomic Densities via on-the-fly atomic UHF.

  ==> Iterations <==

                        Total Energy        Delta E     RMS |[F,P]|

   @RHF iter SAD:  -387.09158030061280   -3.87092e+02   0.00000e+00
   @RHF iter   1:  -387.74385520293907   -6.52275e-01   2.79452e-03 DIIS
   @RHF iter   2:  -387.96629534158529   -2.22440e-01   1.17840e-03 DIIS
   @RHF iter   3:  -388.00259638093451   -3.63010e-02   2.53690e-04 DIIS
   @RHF iter   4:  -388.00549017948248   -2.89380e-03   5.22611e-05 DIIS
   @RHF iter   5:  -388.00557986067946   -8.96812e-05   1.64602e-05 DIIS
   @RHF iter   6:  -388.00558845272246   -8.59204e-06   5.02819e-06 DIIS
   @RHF iter   7:  -388.00558934703690   -8.94314e-07   1.20427e-06 DIIS
   @RHF iter   8:  -388.00558940650791   -5.94710e-08   2.66778e-07 DIIS
   @RHF iter   9:  -388.00558941127792   -4.77002e-09   8.85592e-08 DIIS
   @RHF iter  10:  -388.00558941187256   -5.94639e-10   4.00384e-08 DIIS
   @RHF iter  11:  -388.00558941202655   -1.53989e-10   1.71851e-08 DIIS
   @RHF iter  12:  -388.00558941206759   -4.10409e-11   8.36396e-09 DIIS
   @RHF iter  13:  -388.00558941207862   -1.10276e-11   3.65317e-09 DIIS
   @RHF iter  14:  -388.00558941207987   -1.25056e-12   1.04900e-09 DIIS
   @RHF iter  15:  -388.00558941208146   -1.59162e-12   3.54143e-10 DIIS
   @RHF iter  16:  -388.00558941207908    2.38742e-12   1.18261e-10 DIIS
   @RHF iter  17:  -388.00558941207748    1.59162e-12   5.10805e-11 DIIS
  Energy and wave function converged.

  ==> Post-Iterations <==

    Orbital Energies [Eh]
    ---------------------

    Doubly Occupied:

       1A    -11.240753     2A    -11.236062     3A    -11.235681
       4A    -11.231875     5A    -11.230338     6A    -11.230253
       7A    -11.227971     8A    -11.211250     9A    -11.207018
      10A    -11.206350    11A     -1.150913    12A     -1.071146
      13A     -1.044371    14A     -1.010523    15A     -0.931651
      16A     -0.911007    17A     -0.824379    18A     -0.798644
      19A     -0.792310    20A     -0.690650    21A     -0.644846
      22A     -0.631115    23A     -0.630261    24A     -0.611776
      25A     -0.582295    26A     -0.577358    27A     -0.563058
      28A     -0.538837    29A     -0.535919    30A     -0.510782
      31A     -0.487036    32A     -0.485659    33A     -0.481965
      34A     -0.479127    35A     -0.469157    36A     -0.451118
      37A     -0.330494    38A     -0.321766

    Virtual:

      39A      0.134323    40A      0.139406    41A      0.176679
      42A      0.195020    43A      0.201525    44A      0.214002
      45A      0.224684    46A      0.234599    47A      0.248235
      48A      0.254538    49A      0.257688    50A      0.262902
      51A      0.280255    52A      0.287479    53A      0.307431
      54A      0.321624    55A      0.336138    56A      0.351380
      57A      0.362477    58A      0.382265    59A      0.383556
      60A      0.424544    61A      0.457609    62A      0.463801
      63A      0.481054    64A      0.491315    65A      0.556069
      66A      0.585050    67A      0.592003    68A      0.595937
      69A      0.612803    70A      0.641580    71A      0.645799
      72A      0.655597    73A      0.685388    74A      0.696495
      75A      0.705119    76A      0.719653    77A      0.741514
      78A      0.742639    79A      0.750714    80A      0.763304
      81A      0.771023    82A      0.775770    83A      0.783972
      84A      0.813941    85A      0.817335    86A      0.845934
      87A      0.860926    88A      0.864520    89A      0.866159
      90A      0.873268    91A      0.876011    92A      0.889002
      93A      0.894553    94A      0.898881    95A      0.906599
      96A      0.919835    97A      0.925438    98A      0.930568
      99A      0.931507   100A      0.941524   101A      0.945038
     102A      0.965333   103A      0.984757   104A      0.992424
     105A      1.008740   106A      1.017525   107A      1.037525
     108A      1.062526   109A      1.110542   110A      1.120695
     111A      1.133724   112A      1.147903   113A      1.159722
     114A      1.164622   115A      1.188736   116A      1.205612
     117A      1.245003   118A      1.248819   119A      1.257061
     120A      1.263843   121A      1.294715   122A      1.311729
     123A      1.319730   124A      1.330637   125A      1.411940
     126A      1.416238   127A      1.461704   128A      1.506213
     129A      1.518423   130A      1.528572   131A      1.566340
     132A      1.600087   133A      1.612039   134A      1.624027
     135A      1.657358   136A      1.678318   137A      1.704269
     138A      1.734450   139A      1.738013   140A      1.742583
     141A      1.760308   142A      1.767686   143A      1.791731
     144A      1.802014   145A      1.812586   146A      1.849724
     147A      1.860361   148A      1.880200   149A      1.883424
     150A      1.904164   151A      1.908131   152A      1.916120
     153A      1.920099   154A      1.923867   155A      1.931378
     156A      1.943309   157A      1.950780   158A      1.955720
     159A      1.962151   160A      1.974348   161A      1.985306
     162A      1.998528   163A      2.011156   164A      2.024240
     165A      2.044392   166A      2.057404   167A      2.067250
     168A      2.072962   169A      2.089112   170A      2.108525
     171A      2.117695   172A      2.143760   173A      2.155702
     174A      2.160491   175A      2.170561   176A      2.179260
     177A      2.193159   178A      2.208200   179A      2.253441
     180A      2.266548   181A      2.291711   182A      2.293280
     183A      2.306379   184A      2.313362   185A      2.328532
     186A      2.331911   187A      2.366295   188A      2.444949
     189A      2.474402   190A      2.484973   191A      2.489321
     192A      2.492528   193A      2.516884   194A      2.543246
     195A      2.558597   196A      2.624632   197A      2.643592
     198A      2.727817   199A      2.746520   200A      2.753056
     201A      2.763709   202A      2.775008   203A      2.786319
     204A      2.798947   205A      2.820208   206A      2.828602
     207A      2.851622   208A      2.867727   209A      2.881840
     210A      2.921028   211A      2.952635   212A      2.961198
     213A      2.981744   214A      3.014527   215A      3.031818
     216A      3.069819   217A      3.154992   218A      3.205483
     219A      3.294224   220A      3.963348

    Final Occupation by Irrep:
              A
    DOCC [    38 ]

  @RHF Final Energy:  -388.00558941207748

   => Energetics <=

    Nuclear Repulsion Energy =            490.2581068874340531
    One-Electron Energy =               -1494.8959651677571401
    Two-Electron Energy =                 616.6322688682456601
    Total Energy =                       -388.0055894120774838

Computation Completed

Properties will be evaluated at   0.000000,   0.000000,   0.000000 [a0]

Properties computed using the SCF density matrix

  Nuclear Dipole Moment: [e a0]
     X:     6.6320      Y:    10.0867      Z:     5.7057

  Electronic Dipole Moment: [e a0]
     X:    -6.7577      Y:   -10.0974      Z:    -5.6776

  Dipole Moment: [e a0]
     X:    -0.1256      Y:    -0.0107      Z:     0.0281     Total:     0.1292

  Dipole Moment: [D]
     X:    -0.3194      Y:    -0.0271      Z:     0.0714     Total:     0.3284

*** tstop() called on ds3 at Sun Apr 26 21:24:47 2020
Module time:
	user time   =     109.98 seconds =       1.83 minutes
	system time =      41.69 seconds =       0.69 minutes
	total time  =        291 seconds =       4.85 minutes
Total time:
	user time   =     109.98 seconds =       1.83 minutes
	system time =      41.69 seconds =       0.69 minutes
	total time  =        291 seconds =       4.85 minutes
                                     G D M A

                                 by Anthony Stone

                           version 2.2.06, 22 June 2011

               Distributed Multipoles from Gaussian wavefunctions

Starting at 21:24:47 on 26 Apr 2020

Using SCF density matrix from file ./SSI/SSI-093PRO-184PHE-1-dimer.test.11316.fchk

                         Distributed Multipole Analysis

Standard DMA

Positions and radii in angstrom
Multipole moments in atomic units, ea_0^k for rank k

C          x =  1.995386  y =  2.161836  z =  0.382084 angstrom
           Maximum rank =  0   Radius =  0.650 angstrom
                   Q00  =  -0.098773

C          x =  2.604386  y =  3.378836  z =  1.041084 angstrom
           Maximum rank =  0   Radius =  0.650 angstrom
                   Q00  =  -0.186473

C          x =  2.366386  y =  1.060836  z =  1.351084 angstrom
           Maximum rank =  0   Radius =  0.650 angstrom
                   Q00  =  -0.224194

H          x =  2.414386  y =  1.986836  z = -0.609916 angstrom
           Maximum rank =  0   Radius =  0.325 angstrom
                   Q00  =   0.051284

H          x =  0.911386  y =  2.271836  z =  0.331084 angstrom
           Maximum rank =  0   Radius =  0.325 angstrom
                   Q00  =   0.047166

H          x =  3.617386  y =  3.280836  z =  0.764084 angstrom
           Maximum rank =  0   Radius =  0.325 angstrom
                   Q00  =   0.067819

H          x =  2.140386  y =  4.298836  z =  0.685084 angstrom
           Maximum rank =  0   Radius =  0.325 angstrom
                   Q00  =   0.065764

H          x =  3.424386  y =  0.824836  z =  1.256084 angstrom
           Maximum rank =  0   Radius =  0.325 angstrom
                   Q00  =   0.073611

H          x =  1.757386  y =  0.167836  z =  1.205084 angstrom
           Maximum rank =  0   Radius =  0.325 angstrom
                   Q00  =   0.096469

H          x =  2.455086  y =  3.183026  z =  2.113174 angstrom
           Maximum rank =  0   Radius =  0.325 angstrom
                   Q00  =   0.062088

H          x =  2.164606  y =  1.533106  z =  2.323834 angstrom
           Maximum rank =  0   Radius =  0.325 angstrom
                   Q00  =   0.045476

C          x = -3.033614  y =  0.028836  z =  0.615084 angstrom
           Maximum rank =  0   Radius =  0.650 angstrom
                   Q00  =  -0.204579

C          x = -0.879614  y =  0.128836  z = -0.673916 angstrom
           Maximum rank =  0   Radius =  0.650 angstrom
                   Q00  =  -0.018558

C          x = -1.870614  y = -0.638164  z = -0.060916 angstrom
           Maximum rank =  0   Radius =  0.650 angstrom
                   Q00  =  -0.097284

C          x =  0.233386  y = -0.482164  z = -1.257916 angstrom
           Maximum rank =  0   Radius =  0.650 angstrom
                   Q00  =  -0.079919

C          x = -1.738614  y = -2.028164  z = -0.043916 angstrom
           Maximum rank =  0   Radius =  0.650 angstrom
                   Q00  =  -0.055844

C          x =  0.359386  y = -1.870164  z = -1.234916 angstrom
           Maximum rank =  0   Radius =  0.650 angstrom
                   Q00  =  -0.086149

C          x = -0.630614  y = -2.644164  z = -0.628916 angstrom
           Maximum rank =  0   Radius =  0.650 angstrom
                   Q00  =  -0.069858

H          x = -0.961614  y =  1.204836  z = -0.691916 angstrom
           Maximum rank =  0   Radius =  0.325 angstrom
                   Q00  =   0.058272

H          x =  0.999386  y =  0.126836  z = -1.718916 angstrom
           Maximum rank =  0   Radius =  0.325 angstrom
                   Q00  =   0.067467

H          x = -3.885614  y = -0.633164  z =  0.575084 angstrom
           Maximum rank =  0   Radius =  0.325 angstrom
                   Q00  =   0.099854

H          x = -3.297614  y =  0.929836  z =  0.060084 angstrom
           Maximum rank =  0   Radius =  0.325 angstrom
                   Q00  =   0.097235

H          x = -2.484614  y = -2.644164  z =  0.425084 angstrom
           Maximum rank =  0   Radius =  0.325 angstrom
                   Q00  =   0.056817

H          x =  1.215386  y = -2.350164  z = -1.683916 angstrom
           Maximum rank =  0   Radius =  0.325 angstrom
                   Q00  =   0.061474

H          x = -0.556614  y = -3.718164  z = -0.611916 angstrom
           Maximum rank =  0   Radius =  0.325 angstrom
                   Q00  =   0.065687

H          x = -2.839334  y =  0.296506  z =  1.664184 angstrom
           Maximum rank =  0   Radius =  0.325 angstrom
                   Q00  =   0.105146

Total multipoles referred to origin at
           x =   0.000000,  y =    0.000000,  z =    0.000000 angstrom
                   Q00  =  -0.000000

Finished at 21:24:47 on 26 Apr 2020

  DMA results are available in the Python driver through the
	  variable('DMA DISTRIBUTED MULTIPOLES')
  and
	  variable('DMA TOTAL MULTIPOLES')
  commands.

    Psi4 stopped on: Sunday, 26 April 2020 09:24PM
    Psi4 wall time for execution: 0:04:51.65

*** Psi4 exiting successfully. Buy a developer a beer!
