                               Psi4 1.3.2 release

  ==> Input File <==

--------------------------------------------------------------------------
import numpy as np
set {scf_type pk
basis cc-pvdz
d_convergence 10
gdma_switch   0
gdma_limit    0
gdma_origin   [ 0.0,  0.0,  0.0 ]
}
molecule test {
    units Angstrom
    -1 1
    --
    -1 1
    C                1.902828174633922     1.254458210769152    -1.688930328320900
    C                1.522828174633922     1.302458210769152    -0.227930328320900
    O                0.544828174633922     2.010458210769152     0.082069671679100
    O                2.133828174633922     0.537458210769152     0.539069671679100
    H                1.359828174633921     0.430458210769152    -2.157930328320901
    H                2.968828174633921     1.055458210769152    -1.794930328320900
    H                1.643478174633922     2.189963210769152    -2.206200328320901
    C               -1.368171825366078    -0.961541789230848     0.130069671679100
    C               -1.218171825366078    -0.571541789230848     1.590069671679100
    C               -0.524171825366079    -2.183541789230848    -0.267930328320900
    O               -2.758171825366079    -1.241541789230848    -0.091930328320900
    H               -1.076171825366079    -0.122541789230848    -0.500930328320900
    H               -0.198171825366078    -0.234541789230848     1.769069671679100
    H               -0.860171825366079    -3.070541789230848     0.270069671679100
    H               -0.617171825366078    -2.357541789230848    -1.339930328320900
    H                0.521828174633921    -1.992541789230847    -0.035930328320900
    H               -2.822171825366078    -1.710541789230848    -0.936930328320901
    H               -1.505501825366079    -1.377411789230848     2.281459671679099
    H               -1.904961825366078     0.265125210769152     1.785779671679100

}
e, wfn = energy('scf', return_wfn=True)
gdma(wfn)
dmavals = variable('DMA DISTRIBUTED MULTIPOLES')
charges = np.array(dmavals)
print(charges)
np.save('SSI-011GLU-100THR-1-dimer.npy', np.array(charges))--------------------------------------------------------------------------

*** tstart() called on ds3
*** at Tue Apr 28 10:08:27 2020

   => Loading Basis Set <=

    Name: CC-PVDZ
    Role: ORBITAL
    Keyword: BASIS
    atoms 1-2, 8-10  entry C          line   138 file /theoryfs2/ds/metcalf/miniconda2/envs/tf2gpu/share/psi4/basis/cc-pvdz.gbs
    atoms 3-4, 11    entry O          line   198 file /theoryfs2/ds/metcalf/miniconda2/envs/tf2gpu/share/psi4/basis/cc-pvdz.gbs
    atoms 5-7, 12-19 entry H          line    22 file /theoryfs2/ds/metcalf/miniconda2/envs/tf2gpu/share/psi4/basis/cc-pvdz.gbs

         ---------------------------------------------------------
                                   SCF
               by Justin Turney, Rob Parrish, Andy Simmonett
                          and Daniel G. A. Smith
                              RHF Reference
                        1 Threads,    500 MiB Core
         ---------------------------------------------------------

  ==> Geometry <==

    Molecular point group: c1
    Full point group: C1

    Geometry (in Angstrom), charge = -1, multiplicity = 1:

       Center              X                  Y                   Z               Mass
    ------------   -----------------  -----------------  -----------------  -----------------
         C            1.902828174634     1.254458210769    -1.688930328321    12.000000000000
         C            1.522828174634     1.302458210769    -0.227930328321    12.000000000000
         O            0.544828174634     2.010458210769     0.082069671679    15.994914619570
         O            2.133828174634     0.537458210769     0.539069671679    15.994914619570
         H            1.359828174634     0.430458210769    -2.157930328321     1.007825032230
         H            2.968828174634     1.055458210769    -1.794930328321     1.007825032230
         H            1.643478174634     2.189963210769    -2.206200328321     1.007825032230
         C           -1.368171825366    -0.961541789231     0.130069671679    12.000000000000
         C           -1.218171825366    -0.571541789231     1.590069671679    12.000000000000
         C           -0.524171825366    -2.183541789231    -0.267930328321    12.000000000000
         O           -2.758171825366    -1.241541789231    -0.091930328321    15.994914619570
         H           -1.076171825366    -0.122541789231    -0.500930328321     1.007825032230
         H           -0.198171825366    -0.234541789231     1.769069671679     1.007825032230
         H           -0.860171825366    -3.070541789231     0.270069671679     1.007825032230
         H           -0.617171825366    -2.357541789231    -1.339930328321     1.007825032230
         H            0.521828174634    -1.992541789231    -0.035930328321     1.007825032230
         H           -2.822171825366    -1.710541789231    -0.936930328321     1.007825032230
         H           -1.505501825366    -1.377411789231     2.281459671679     1.007825032230
         H           -1.904961825366     0.265125210769     1.785779671679     1.007825032230

  Running in c1 symmetry.

  Rotational constants: A =      0.09774  B =      0.02896  C =      0.02799 [cm^-1]
  Rotational constants: A =   2930.28188  B =    868.31082  C =    839.00171 [MHz]
  Nuclear repulsion =  379.368821004325355

  Charge       = -1
  Multiplicity = 1
  Electrons    = 66
  Nalpha       = 33
  Nbeta        = 33

  ==> Algorithm <==

  SCF Algorithm Type is PK.
  DIIS enabled.
  MOM disabled.
  Fractional occupation disabled.
  Guess Type is SAD.
  Energy threshold   = 1.00e-06
  Density threshold  = 1.00e-10
  Integral threshold = 0.00e+00

  ==> Primary Basis <==

  Basis Set: CC-PVDZ
    Blend: CC-PVDZ
    Number of shells: 81
    Number of basis function: 167
    Number of Cartesian functions: 175
    Spherical Harmonics?: true
    Max angular momentum: 2

  ==> Pre-Iterations <==

   -------------------------------------------------------
    Irrep   Nso     Nmo     Nalpha   Nbeta   Ndocc  Nsocc
   -------------------------------------------------------
     A        167     167       0       0       0       0
   -------------------------------------------------------
    Total     167     167      33      33      33       0
   -------------------------------------------------------

  ==> Integral Setup <==

  Using integral reordering PK algorithm.
  Sizing the integral batches needed.
  Building batch lookup table.
   Calculation information:
      Number of atoms:                  19
      Number of AO shells:              81
      Number of primitives:            231
      Number of atomic orbitals:       175
      Number of basis functions:       167

      Integral cutoff                 1.00e-12
      Number of threads:                 1

	Batch   1 pq = [       0,    9405] index = [             0,44231715] size =     44231715
	Batch   2 pq = [    9405,   13301] index = [      44231715,88464951] size =     44233236
	Batch   3 pq = [   13301,   14028] index = [      88464951,98399406] size =      9934455
  Task number: 9
  Buffer size: 11059200
  Buffer per thread: 2
  We computed 4917684 shell quartets total.
  Whereas there are 5516181 unique shell quartets.

  ==> DiskJK: Disk-Based J/K Matrices <==

    J tasked:                  Yes
    K tasked:                  Yes
    wK tasked:                  No
    Memory [MiB]:              375
    Schwarz Cutoff:          1E-12

    OpenMP threads:              1

  Minimum eigenvalue in the overlap matrix is 4.4712918944E-03.
  Using Symmetric Orthogonalization.

  SCF Guess: Superposition of Atomic Densities via on-the-fly atomic UHF.

  ==> Iterations <==

                        Total Energy        Delta E     RMS |[F,P]|

   @RHF iter SAD:  -418.61966792279037   -4.18620e+02   0.00000e+00
   @RHF iter   1:  -420.06151327303041   -1.44185e+00   4.80628e-03 DIIS
   @RHF iter   2:  -420.31352891118735   -2.52016e-01   2.62359e-03 DIIS
   @RHF iter   3:  -420.38305595338772   -6.95270e-02   4.07901e-04 DIIS
   @RHF iter   4:  -420.38619980782539   -3.14385e-03   1.51173e-04 DIIS
   @RHF iter   5:  -420.38662878897128   -4.28981e-04   2.37716e-05 DIIS
   @RHF iter   6:  -420.38664235869481   -1.35697e-05   6.93521e-06 DIIS
   @RHF iter   7:  -420.38664338253034   -1.02384e-06   2.52946e-06 DIIS
   @RHF iter   8:  -420.38664350566336   -1.23133e-07   7.64237e-07 DIIS
   @RHF iter   9:  -420.38664351998307   -1.43197e-08   2.93944e-07 DIIS
   @RHF iter  10:  -420.38664352204762   -2.06455e-09   9.18961e-08 DIIS
   @RHF iter  11:  -420.38664352230643   -2.58808e-10   3.20415e-08 DIIS
   @RHF iter  12:  -420.38664352234031   -3.38787e-11   1.17664e-08 DIIS
   @RHF iter  13:  -420.38664352234275   -2.44427e-12   3.63876e-09 DIIS
   @RHF iter  14:  -420.38664352234298   -2.27374e-13   1.32148e-09 DIIS
   @RHF iter  15:  -420.38664352234269    2.84217e-13   3.93440e-10 DIIS
   @RHF iter  16:  -420.38664352234559   -2.89901e-12   1.21993e-10 DIIS
   @RHF iter  17:  -420.38664352234167    3.92220e-12   4.16088e-11 DIIS
  Energy and wave function converged.

  ==> Post-Iterations <==

    Orbital Energies [Eh]
    ---------------------

    Doubly Occupied:

       1A    -20.423781     2A    -20.271204     3A    -20.268713
       4A    -11.141119     5A    -11.121905     6A    -11.097014
       7A    -11.073221     8A    -11.052574     9A     -1.225055
      10A     -1.162003    11A     -1.051534    12A     -0.903186
      13A     -0.805498    14A     -0.801407    15A     -0.662301
      16A     -0.551802    17A     -0.507958    18A     -0.496412
      19A     -0.473053    20A     -0.419091    21A     -0.417768
      22A     -0.414976    23A     -0.412719    24A     -0.397452
      25A     -0.383864    26A     -0.374389    27A     -0.351701
      28A     -0.334635    29A     -0.313485    30A     -0.297648
      31A     -0.188828    32A     -0.184554    33A     -0.172645

    Virtual:

      34A      0.290997    35A      0.334238    36A      0.343316
      37A      0.368478    38A      0.373777    39A      0.396589
      40A      0.406843    41A      0.411353    42A      0.416240
      43A      0.442712    44A      0.474154    45A      0.489837
      46A      0.509591    47A      0.531174    48A      0.558412
      49A      0.574523    50A      0.692997    51A      0.714357
      52A      0.730327    53A      0.768431    54A      0.797021
      55A      0.806940    56A      0.821767    57A      0.854686
      58A      0.860837    59A      0.905889    60A      0.913478
      61A      0.947350    62A      0.966605    63A      0.970823
      64A      0.997910    65A      1.006610    66A      1.013287
      67A      1.029133    68A      1.037259    69A      1.041435
      70A      1.053049    71A      1.054890    72A      1.067318
      73A      1.086972    74A      1.104978    75A      1.127699
      76A      1.135280    77A      1.146156    78A      1.235869
      79A      1.264541    80A      1.279000    81A      1.301000
      82A      1.330695    83A      1.365127    84A      1.391116
      85A      1.394652    86A      1.457147    87A      1.502799
      88A      1.529771    89A      1.547033    90A      1.559726
      91A      1.578741    92A      1.606259    93A      1.624504
      94A      1.646158    95A      1.674156    96A      1.688328
      97A      1.707147    98A      1.738669    99A      1.772092
     100A      1.802356   101A      1.829758   102A      1.834019
     103A      1.835756   104A      1.842933   105A      1.860688
     106A      1.961125   107A      1.999828   108A      2.005498
     109A      2.025757   110A      2.043494   111A      2.057657
     112A      2.067128   113A      2.090754   114A      2.114797
     115A      2.122267   116A      2.137656   117A      2.142863
     118A      2.160248   119A      2.179803   120A      2.200417
     121A      2.207017   122A      2.248333   123A      2.261537
     124A      2.278079   125A      2.360097   126A      2.373623
     127A      2.412419   128A      2.419626   129A      2.433439
     130A      2.439609   131A      2.460970   132A      2.508091
     133A      2.564958   134A      2.586690   135A      2.651735
     136A      2.677018   137A      2.685902   138A      2.696360
     139A      2.714803   140A      2.731488   141A      2.751386
     142A      2.804478   143A      2.891850   144A      2.915510
     145A      2.921596   146A      2.939708   147A      2.958852
     148A      2.974716   149A      2.986275   150A      3.032683
     151A      3.057539   152A      3.152145   153A      3.233580
     154A      3.264122   155A      3.296038   156A      3.357457
     157A      3.440854   158A      3.533179   159A      3.602645
     160A      3.618205   161A      3.783869   162A      3.795405
     163A      3.869725   164A      4.067798   165A      4.089375
     166A      4.193140   167A      4.246153

    Final Occupation by Irrep:
              A
    DOCC [    33 ]

  @RHF Final Energy:  -420.38664352234167

   => Energetics <=

    Nuclear Repulsion Energy =            379.3688210043253548
    One-Electron Energy =               -1340.0039384692115618
    Two-Electron Energy =                 540.2484739425445923
    Total Energy =                       -420.3866435223416147

Computation Completed

Properties will be evaluated at   0.000000,   0.000000,   0.000000 [a0]

Properties computed using the SCF density matrix

  Nuclear Dipole Moment: [e a0]
     X:    -2.3350      Y:    -6.4854      Z:    -2.6846

  Electronic Dipole Moment: [e a0]
     X:     0.9382      Y:     4.4518      Z:     1.5101

  Dipole Moment: [e a0]
     X:    -1.3968      Y:    -2.0336      Z:    -1.1745     Total:     2.7324

  Dipole Moment: [D]
     X:    -3.5503      Y:    -5.1688      Z:    -2.9852     Total:     6.9450

*** tstop() called on ds3 at Tue Apr 28 10:09:35 2020
Module time:
	user time   =      35.65 seconds =       0.59 minutes
	system time =      14.19 seconds =       0.24 minutes
	total time  =         68 seconds =       1.13 minutes
Total time:
	user time   =      35.65 seconds =       0.59 minutes
	system time =      14.19 seconds =       0.24 minutes
	total time  =         68 seconds =       1.13 minutes
                                     G D M A

                                 by Anthony Stone

                           version 2.2.06, 22 June 2011

               Distributed Multipoles from Gaussian wavefunctions

Starting at 10:9:36 on 28 Apr 2020

Using SCF density matrix from file ./SSI/SSI-011GLU-100THR-1-dimer.test.31622.fchk

                         Distributed Multipole Analysis

Standard DMA

Positions and radii in angstrom
Multipole moments in atomic units, ea_0^k for rank k

C          x =  1.902828  y =  1.254458  z = -1.688930 angstrom
           Maximum rank =  0   Radius =  0.650 angstrom
                   Q00  =  -0.268088

C          x =  1.522828  y =  1.302458  z = -0.227930 angstrom
           Maximum rank =  0   Radius =  0.650 angstrom
                   Q00  =   0.938013

O          x =  0.544828  y =  2.010458  z =  0.082070 angstrom
           Maximum rank =  0   Radius =  0.650 angstrom
                   Q00  =  -0.909041

O          x =  2.133828  y =  0.537458  z =  0.539070 angstrom
           Maximum rank =  0   Radius =  0.650 angstrom
                   Q00  =  -0.915176

H          x =  1.359828  y =  0.430458  z = -2.157930 angstrom
           Maximum rank =  0   Radius =  0.325 angstrom
                   Q00  =   0.073271

H          x =  2.968828  y =  1.055458  z = -1.794930 angstrom
           Maximum rank =  0   Radius =  0.325 angstrom
                   Q00  =   0.051400

H          x =  1.643478  y =  2.189963  z = -2.206200 angstrom
           Maximum rank =  0   Radius =  0.325 angstrom
                   Q00  =   0.049397

C          x = -1.368172  y = -0.961542  z =  0.130070 angstrom
           Maximum rank =  0   Radius =  0.650 angstrom
                   Q00  =   0.157404

C          x = -1.218172  y = -0.571542  z =  1.590070 angstrom
           Maximum rank =  0   Radius =  0.650 angstrom
                   Q00  =  -0.222993

C          x = -0.524172  y = -2.183542  z = -0.267930 angstrom
           Maximum rank =  0   Radius =  0.650 angstrom
                   Q00  =  -0.249567

O          x = -2.758172  y = -1.241542  z = -0.091930 angstrom
           Maximum rank =  0   Radius =  0.650 angstrom
                   Q00  =  -0.551903

H          x = -1.076172  y = -0.122542  z = -0.500930 angstrom
           Maximum rank =  0   Radius =  0.325 angstrom
                   Q00  =   0.036982

H          x = -0.198172  y = -0.234542  z =  1.769070 angstrom
           Maximum rank =  0   Radius =  0.325 angstrom
                   Q00  =   0.126274

H          x = -0.860172  y = -3.070542  z =  0.270070 angstrom
           Maximum rank =  0   Radius =  0.325 angstrom
                   Q00  =   0.053430

H          x = -0.617172  y = -2.357542  z = -1.339930 angstrom
           Maximum rank =  0   Radius =  0.325 angstrom
                   Q00  =   0.047994

H          x =  0.521828  y = -1.992542  z = -0.035930 angstrom
           Maximum rank =  0   Radius =  0.325 angstrom
                   Q00  =   0.108615

H          x = -2.822172  y = -1.710542  z = -0.936930 angstrom
           Maximum rank =  0   Radius =  0.325 angstrom
                   Q00  =   0.356954

H          x = -1.505502  y = -1.377412  z =  2.281460 angstrom
           Maximum rank =  0   Radius =  0.325 angstrom
                   Q00  =   0.032724

H          x = -1.904962  y =  0.265125  z =  1.785780 angstrom
           Maximum rank =  0   Radius =  0.325 angstrom
                   Q00  =   0.084309

Total multipoles referred to origin at
           x =   0.000000,  y =    0.000000,  z =    0.000000 angstrom
                   Q00  =  -1.000000

Finished at 10:9:36 on 28 Apr 2020

  DMA results are available in the Python driver through the
	  variable('DMA DISTRIBUTED MULTIPOLES')
  and
	  variable('DMA TOTAL MULTIPOLES')
  commands.

    Psi4 stopped on: Tuesday, 28 April 2020 10:09AM
    Psi4 wall time for execution: 0:01:09.01

*** Psi4 exiting successfully. Buy a developer a beer!
