                               Psi4 1.3.2 release

  ==> Input File <==

--------------------------------------------------------------------------
import numpy as np
set {scf_type pk
basis cc-pvdz
d_convergence 10
gdma_switch   0
gdma_limit    0
gdma_origin   [ 0.0,  0.0,  0.0 ]
}
molecule test {
    units Angstrom
    0 1
    --
    0 1
    C               -1.642380663336384    -2.943059041211748    -0.744609633550628
    C               -0.153380663336384    -2.790059041211749    -1.035609633550628
    O                0.554619336663616    -2.083059041211749    -0.277609633550628
    O                0.305619336663616    -3.392059041211748    -2.036609633550628
    H               -1.835380663336384    -3.992059041211748    -0.506609633550628
    H               -2.237380663336384    -2.697059041211749    -1.625609633550628
    H               -1.984520663336384    -2.333839041211748     0.104974366449372
    C               -1.120380663336384     2.730940958788251     2.210390366449372
    C                0.509619336663615     2.119940958788252     0.468390366449372
    N                0.337619336663616     0.836940958788251     0.729390366449372
    N               -0.174380663336384     3.034940958788252     1.136390366449372
    N                1.358619336663616     2.495940958788252    -0.465609633550628
    H               -0.169380663336384     0.571940958788251     1.566390366449372
    H                0.749619336663615     0.109940958788251     0.161390366449372
    H               -0.001380663336384     4.005940958788252     0.926390366449372
    H                1.537619336663615     3.472940958788252    -0.632609633550627
    H                1.921619336663616     1.799940958788251    -0.925609633550628
    H               -0.840380663336384     3.299940958788251     3.099390366449373
    H               -1.132380663336384     1.688940958788251     2.472390366449372
    H               -2.151840663336384     2.995340958788252     1.934366366449372

}
e, wfn = energy('scf', return_wfn=True)
gdma(wfn)
dmavals = variable('DMA DISTRIBUTED MULTIPOLES')
charges = np.array(dmavals)
print(charges)
np.save('SSI-061GLU-080ARG-2-dimer.npy', np.array(charges))--------------------------------------------------------------------------

*** tstart() called on ds3
*** at Tue Apr 28 03:29:41 2020

   => Loading Basis Set <=

    Name: CC-PVDZ
    Role: ORBITAL
    Keyword: BASIS
    atoms 1-2, 8-9   entry C          line   138 file /theoryfs2/ds/metcalf/miniconda2/envs/tf2gpu/share/psi4/basis/cc-pvdz.gbs
    atoms 3-4        entry O          line   198 file /theoryfs2/ds/metcalf/miniconda2/envs/tf2gpu/share/psi4/basis/cc-pvdz.gbs
    atoms 5-7, 13-20 entry H          line    22 file /theoryfs2/ds/metcalf/miniconda2/envs/tf2gpu/share/psi4/basis/cc-pvdz.gbs
    atoms 10-12      entry N          line   168 file /theoryfs2/ds/metcalf/miniconda2/envs/tf2gpu/share/psi4/basis/cc-pvdz.gbs

         ---------------------------------------------------------
                                   SCF
               by Justin Turney, Rob Parrish, Andy Simmonett
                          and Daniel G. A. Smith
                              RHF Reference
                        1 Threads,    500 MiB Core
         ---------------------------------------------------------

  ==> Geometry <==

    Molecular point group: c1
    Full point group: C1

    Geometry (in Angstrom), charge = 0, multiplicity = 1:

       Center              X                  Y                   Z               Mass
    ------------   -----------------  -----------------  -----------------  -----------------
         C           -1.642380663336    -2.943059041212    -0.744609633551    12.000000000000
         C           -0.153380663336    -2.790059041212    -1.035609633551    12.000000000000
         O            0.554619336664    -2.083059041212    -0.277609633551    15.994914619570
         O            0.305619336664    -3.392059041212    -2.036609633551    15.994914619570
         H           -1.835380663336    -3.992059041212    -0.506609633551     1.007825032230
         H           -2.237380663336    -2.697059041212    -1.625609633551     1.007825032230
         H           -1.984520663336    -2.333839041212     0.104974366449     1.007825032230
         C           -1.120380663336     2.730940958788     2.210390366449    12.000000000000
         C            0.509619336664     2.119940958788     0.468390366449    12.000000000000
         N            0.337619336664     0.836940958788     0.729390366449    14.003074004430
         N           -0.174380663336     3.034940958788     1.136390366449    14.003074004430
         N            1.358619336664     2.495940958788    -0.465609633551    14.003074004430
         H           -0.169380663336     0.571940958788     1.566390366449     1.007825032230
         H            0.749619336664     0.109940958788     0.161390366449     1.007825032230
         H           -0.001380663336     4.005940958788     0.926390366449     1.007825032230
         H            1.537619336664     3.472940958788    -0.632609633551     1.007825032230
         H            1.921619336664     1.799940958788    -0.925609633551     1.007825032230
         H           -0.840380663336     3.299940958788     3.099390366449     1.007825032230
         H           -1.132380663336     1.688940958788     2.472390366449     1.007825032230
         H           -2.151840663336     2.995340958788     1.934366366449     1.007825032230

  Running in c1 symmetry.

  Rotational constants: A =      0.09381  B =      0.01581  C =      0.01414 [cm^-1]
  Rotational constants: A =   2812.33628  B =    473.98799  C =    423.98117 [MHz]
  Nuclear repulsion =  432.438189245100205

  Charge       = 0
  Multiplicity = 1
  Electrons    = 72
  Nalpha       = 36
  Nbeta        = 36

  ==> Algorithm <==

  SCF Algorithm Type is PK.
  DIIS enabled.
  MOM disabled.
  Fractional occupation disabled.
  Guess Type is SAD.
  Energy threshold   = 1.00e-06
  Density threshold  = 1.00e-10
  Integral threshold = 0.00e+00

  ==> Primary Basis <==

  Basis Set: CC-PVDZ
    Blend: CC-PVDZ
    Number of shells: 87
    Number of basis function: 181
    Number of Cartesian functions: 190
    Spherical Harmonics?: true
    Max angular momentum: 2

  ==> Pre-Iterations <==

   -------------------------------------------------------
    Irrep   Nso     Nmo     Nalpha   Nbeta   Ndocc  Nsocc
   -------------------------------------------------------
     A        181     181       0       0       0       0
   -------------------------------------------------------
    Total     181     181      36      36      36       0
   -------------------------------------------------------

  ==> Integral Setup <==

  Using integral reordering PK algorithm.
  Sizing the integral batches needed.
  Building batch lookup table.
   Calculation information:
      Number of atoms:                  20
      Number of AO shells:              87
      Number of primitives:            253
      Number of atomic orbitals:       190
      Number of basis functions:       181

      Integral cutoff                 1.00e-12
      Number of threads:                 1

	Batch   1 pq = [       0,    9405] index = [             0,44231715] size =     44231715
	Batch   2 pq = [    9405,   13301] index = [      44231715,88464951] size =     44233236
	Batch   3 pq = [   13301,   16471] index = [      88464951,135655156] size =     47190205
  Task number: 13
  Buffer size: 11059200
  Buffer per thread: 2
  We computed 4997721 shell quartets total.
  Whereas there are 7328706 unique shell quartets.

  ==> DiskJK: Disk-Based J/K Matrices <==

    J tasked:                  Yes
    K tasked:                  Yes
    wK tasked:                  No
    Memory [MiB]:              375
    Schwarz Cutoff:          1E-12

    OpenMP threads:              1

  Minimum eigenvalue in the overlap matrix is 3.9245185349E-03.
  Using Symmetric Orthogonalization.

  SCF Guess: Superposition of Atomic Densities via on-the-fly atomic UHF.

  ==> Iterations <==

                        Total Energy        Delta E     RMS |[F,P]|

   @RHF iter SAD:  -469.63656685962172   -4.69637e+02   0.00000e+00
   @RHF iter   1:  -470.64205536543130   -1.00549e+00   4.33307e-03 DIIS
   @RHF iter   2:  -470.87558025142994   -2.33525e-01   2.31707e-03 DIIS
   @RHF iter   3:  -470.93896062748519   -6.33804e-02   4.02711e-04 DIIS
   @RHF iter   4:  -470.94236390957269   -3.40328e-03   1.43044e-04 DIIS
   @RHF iter   5:  -470.94278444912243   -4.20540e-04   2.68853e-05 DIIS
   @RHF iter   6:  -470.94280612430981   -2.16752e-05   1.28867e-05 DIIS
   @RHF iter   7:  -470.94280937190564   -3.24760e-06   3.39316e-06 DIIS
   @RHF iter   8:  -470.94280986414577   -4.92240e-07   1.56509e-06 DIIS
   @RHF iter   9:  -470.94280994222925   -7.80835e-08   5.46777e-07 DIIS
   @RHF iter  10:  -470.94280995868729   -1.64580e-08   1.97852e-07 DIIS
   @RHF iter  11:  -470.94280996065243   -1.96513e-09   5.40032e-08 DIIS
   @RHF iter  12:  -470.94280996075327   -1.00840e-10   1.92230e-08 DIIS
   @RHF iter  13:  -470.94280996076674   -1.34719e-11   4.95775e-09 DIIS
   @RHF iter  14:  -470.94280996076759   -8.52651e-13   1.46575e-09 DIIS
   @RHF iter  15:  -470.94280996076668    9.09495e-13   5.57492e-10 DIIS
   @RHF iter  16:  -470.94280996076810   -1.42109e-12   1.96216e-10 DIIS
   @RHF iter  17:  -470.94280996076867   -5.68434e-13   8.48899e-11 DIIS
  Energy and wave function converged.

  ==> Post-Iterations <==

    Orbital Energies [Eh]
    ---------------------

    Doubly Occupied:

       1A    -20.379493     2A    -20.360318     3A    -15.687171
       4A    -15.680757     5A    -15.653416     6A    -11.476771
       7A    -11.351410     8A    -11.225509     9A    -11.148163
      10A     -1.436150    11A     -1.300132    12A     -1.269730
      13A     -1.255616    14A     -1.142608    15A     -1.048580
      16A     -0.926146    17A     -0.893997    18A     -0.869875
      19A     -0.832444    20A     -0.749224    21A     -0.735918
      22A     -0.715495    23A     -0.699020    24A     -0.643917
      25A     -0.636108    26A     -0.606835    27A     -0.513582
      28A     -0.507500    29A     -0.505774    30A     -0.498788
      31A     -0.480539    32A     -0.446467    33A     -0.408620
      34A     -0.295224    35A     -0.277331    36A     -0.270468

    Virtual:

      37A      0.090216    38A      0.126623    39A      0.134181
      40A      0.144701    41A      0.173657    42A      0.189549
      43A      0.202166    44A      0.251608    45A      0.263260
      46A      0.283993    47A      0.302689    48A      0.312451
      49A      0.343056    50A      0.381091    51A      0.387254
      52A      0.442142    53A      0.457885    54A      0.478799
      55A      0.519079    56A      0.524967    57A      0.593996
      58A      0.603623    59A      0.618454    60A      0.646235
      61A      0.650717    62A      0.661073    63A      0.664426
      64A      0.705383    65A      0.723301    66A      0.747608
      67A      0.776436    68A      0.785906    69A      0.791094
      70A      0.814390    71A      0.838075    72A      0.844347
      73A      0.860690    74A      0.866500    75A      0.907768
      76A      0.918119    77A      0.921683    78A      0.928132
      79A      0.940258    80A      0.943088    81A      0.961334
      82A      0.979750    83A      1.003058    84A      1.024154
      85A      1.041503    86A      1.077174    87A      1.106282
      88A      1.117867    89A      1.173485    90A      1.221403
      91A      1.224669    92A      1.237868    93A      1.246919
      94A      1.253136    95A      1.303887    96A      1.324435
      97A      1.328833    98A      1.339421    99A      1.420258
     100A      1.451940   101A      1.459450   102A      1.466012
     103A      1.487637   104A      1.501176   105A      1.552391
     106A      1.571058   107A      1.581860   108A      1.602517
     109A      1.621078   110A      1.625514   111A      1.631084
     112A      1.661011   113A      1.735968   114A      1.748611
     115A      1.755792   116A      1.774728   117A      1.795501
     118A      1.812523   119A      1.834385   120A      1.846008
     121A      1.855530   122A      1.885247   123A      1.929003
     124A      1.944954   125A      1.952732   126A      1.983496
     127A      2.000220   128A      2.003302   129A      2.015948
     130A      2.031627   131A      2.086139   132A      2.112989
     133A      2.118752   134A      2.136474   135A      2.170956
     136A      2.195357   137A      2.211291   138A      2.254657
     139A      2.276281   140A      2.305069   141A      2.335869
     142A      2.364921   143A      2.381960   144A      2.412935
     145A      2.437585   146A      2.452052   147A      2.486022
     148A      2.495004   149A      2.531851   150A      2.545728
     151A      2.573709   152A      2.625235   153A      2.650039
     154A      2.667245   155A      2.692372   156A      2.694468
     157A      2.729084   158A      2.817152   159A      2.834951
     160A      2.853353   161A      2.867326   162A      2.880126
     163A      2.894209   164A      2.922750   165A      2.993502
     166A      3.036406   167A      3.131082   168A      3.156981
     169A      3.168072   170A      3.184764   171A      3.203437
     172A      3.239518   173A      3.252230   174A      3.518842
     175A      3.675965   176A      3.693452   177A      3.715418
     178A      3.772054   179A      3.950874   180A      3.981771
     181A      4.077545

    Final Occupation by Irrep:
              A
    DOCC [    36 ]

  @RHF Final Energy:  -470.94280996076867

   => Energetics <=

    Nuclear Repulsion Energy =            432.4381892451002045
    One-Electron Energy =               -1500.9037972188075400
    Two-Electron Energy =                 597.5227980129387788
    Total Energy =                       -470.9428099607686136

Computation Completed

Properties will be evaluated at   0.000000,   0.000000,   0.000000 [a0]

Properties computed using the SCF density matrix

  Nuclear Dipole Moment: [e a0]
     X:    -5.7599      Y:     8.3193      Z:     6.1485

  Electronic Dipole Moment: [e a0]
     X:     5.4741      Y:    -0.0711      Z:    -3.0569

  Dipole Moment: [e a0]
     X:    -0.2858      Y:     8.2482      Z:     3.0916     Total:     8.8132

  Dipole Moment: [D]
     X:    -0.7263      Y:    20.9647      Z:     7.8581     Total:    22.4008

*** tstop() called on ds3 at Tue Apr 28 03:30:51 2020
Module time:
	user time   =      36.88 seconds =       0.61 minutes
	system time =      20.70 seconds =       0.34 minutes
	total time  =         70 seconds =       1.17 minutes
Total time:
	user time   =      36.88 seconds =       0.61 minutes
	system time =      20.70 seconds =       0.34 minutes
	total time  =         70 seconds =       1.17 minutes
                                     G D M A

                                 by Anthony Stone

                           version 2.2.06, 22 June 2011

               Distributed Multipoles from Gaussian wavefunctions

Starting at 3:30:51 on 28 Apr 2020

Using SCF density matrix from file ./SSI/SSI-061GLU-080ARG-2-dimer.test.14882.fchk

                         Distributed Multipole Analysis

Standard DMA

Positions and radii in angstrom
Multipole moments in atomic units, ea_0^k for rank k

C          x = -1.642381  y = -2.943059  z = -0.744610 angstrom
           Maximum rank =  0   Radius =  0.650 angstrom
                   Q00  =  -0.284608

C          x = -0.153381  y = -2.790059  z = -1.035610 angstrom
           Maximum rank =  0   Radius =  0.650 angstrom
                   Q00  =   0.953724

O          x =  0.554619  y = -2.083059  z = -0.277610 angstrom
           Maximum rank =  0   Radius =  0.650 angstrom
                   Q00  =  -0.964774

O          x =  0.305619  y = -3.392059  z = -2.036610 angstrom
           Maximum rank =  0   Radius =  0.650 angstrom
                   Q00  =  -0.893217

H          x = -1.835381  y = -3.992059  z = -0.506610 angstrom
           Maximum rank =  0   Radius =  0.325 angstrom
                   Q00  =   0.099002

H          x = -2.237381  y = -2.697059  z = -1.625610 angstrom
           Maximum rank =  0   Radius =  0.325 angstrom
                   Q00  =   0.084469

H          x = -1.984521  y = -2.333839  z =  0.104974 angstrom
           Maximum rank =  0   Radius =  0.325 angstrom
                   Q00  =   0.028772

C          x = -1.120381  y =  2.730941  z =  2.210390 angstrom
           Maximum rank =  0   Radius =  0.650 angstrom
                   Q00  =  -0.115988

C          x =  0.509619  y =  2.119941  z =  0.468390 angstrom
           Maximum rank =  0   Radius =  0.650 angstrom
                   Q00  =   1.067464

N          x =  0.337619  y =  0.836941  z =  0.729390 angstrom
           Maximum rank =  0   Radius =  0.650 angstrom
                   Q00  =  -0.569768

N          x = -0.174381  y =  3.034941  z =  1.136390 angstrom
           Maximum rank =  0   Radius =  0.650 angstrom
                   Q00  =  -0.484897

N          x =  1.358619  y =  2.495941  z = -0.465610 angstrom
           Maximum rank =  0   Radius =  0.650 angstrom
                   Q00  =  -0.589287

H          x = -0.169381  y =  0.571941  z =  1.566390 angstrom
           Maximum rank =  0   Radius =  0.325 angstrom
                   Q00  =   0.256996

H          x =  0.749619  y =  0.109941  z =  0.161390 angstrom
           Maximum rank =  0   Radius =  0.325 angstrom
                   Q00  =   0.300826

H          x = -0.001381  y =  4.005941  z =  0.926390 angstrom
           Maximum rank =  0   Radius =  0.325 angstrom
                   Q00  =   0.217433

H          x =  1.537619  y =  3.472941  z = -0.632610 angstrom
           Maximum rank =  0   Radius =  0.325 angstrom
                   Q00  =   0.245468

H          x =  1.921619  y =  1.799941  z = -0.925610 angstrom
           Maximum rank =  0   Radius =  0.325 angstrom
                   Q00  =   0.274045

H          x = -0.840381  y =  3.299941  z =  3.099390 angstrom
           Maximum rank =  0   Radius =  0.325 angstrom
                   Q00  =   0.125540

H          x = -1.132381  y =  1.688941  z =  2.472390 angstrom
           Maximum rank =  0   Radius =  0.325 angstrom
                   Q00  =   0.119140

H          x = -2.151841  y =  2.995341  z =  1.934366 angstrom
           Maximum rank =  0   Radius =  0.325 angstrom
                   Q00  =   0.129661

Total multipoles referred to origin at
           x =   0.000000,  y =    0.000000,  z =    0.000000 angstrom
                   Q00  =  -0.000000

Finished at 3:30:51 on 28 Apr 2020

  DMA results are available in the Python driver through the
	  variable('DMA DISTRIBUTED MULTIPOLES')
  and
	  variable('DMA TOTAL MULTIPOLES')
  commands.

    Psi4 stopped on: Tuesday, 28 April 2020 03:30AM
    Psi4 wall time for execution: 0:01:10.81

*** Psi4 exiting successfully. Buy a developer a beer!
