                               Psi4 1.3.2 release

  ==> Input File <==

--------------------------------------------------------------------------
import numpy as np
set {scf_type pk
basis cc-pvdz
d_convergence 10
gdma_switch   0
gdma_limit    0
gdma_origin   [ 0.0,  0.0,  0.0 ]
}
molecule test {
    units Angstrom
    -1 1
    --
    -1 1
    C                3.884241391975537     2.415000403220488     0.159715485007014
    C                0.309241391975537     0.181000403220488     1.017715485007014
    C                0.257241391975537     1.271000403220488     0.162715485007014
    C                1.514241391975537    -0.193999596779512     1.597715485007014
    C                1.412241391975537     1.988000403220488    -0.097284514992986
    C                2.668241391975537     0.530000403220488     1.324715485007014
    C                2.630241391975537     1.632000403220488     0.470715485007014
    O               -0.817758608024463    -0.527999596779512     1.278715485007014
    H               -1.508758608024463    -0.376999596779512     0.597715485007014
    H               -0.688758608024463     1.596000403220488    -0.232284514992986
    H                1.532241391975536    -1.053999596779512     2.231715485007014
    H                1.328241391975537     2.882000403220487    -0.619284514992986
    H                3.600241391975536     0.232000403220488     1.783715485007014
    H                4.508241391975536     2.486000403220488     1.051715485007014
    H                3.591241391975537     3.429000403220487    -0.117284514992986
    H                4.466552391975537     1.979350403220488    -0.665584514992986
    C               -2.813758608024463    -1.739999596779512    -2.782284514992986
    C               -2.637758608024463    -1.634999596779512    -1.273284514992986
    O               -2.458758608024463    -0.499999596779512    -0.776284514992986
    O               -2.667758608024463    -2.679999596779512    -0.594284514992986
    H               -2.088758608024464    -2.446999596779512    -3.182284514992986
    H               -2.588758608024464    -0.779999596779512    -3.240284514992986
    H               -3.828738608024463    -2.059339596779512    -3.061264514992986

}
e, wfn = energy('scf', return_wfn=True)
gdma(wfn)
dmavals = variable('DMA DISTRIBUTED MULTIPOLES')
charges = np.array(dmavals)
print(charges)
np.save('SSI-009TYR-111ASP-1-dimer.npy', np.array(charges))--------------------------------------------------------------------------

*** tstart() called on ds3
*** at Mon Apr 27 00:18:11 2020

   => Loading Basis Set <=

    Name: CC-PVDZ
    Role: ORBITAL
    Keyword: BASIS
    atoms 1-7, 17-18  entry C          line   138 file /theoryfs2/ds/metcalf/miniconda2/envs/tf2gpu/share/psi4/basis/cc-pvdz.gbs
    atoms 8, 19-20    entry O          line   198 file /theoryfs2/ds/metcalf/miniconda2/envs/tf2gpu/share/psi4/basis/cc-pvdz.gbs
    atoms 9-16, 21-23 entry H          line    22 file /theoryfs2/ds/metcalf/miniconda2/envs/tf2gpu/share/psi4/basis/cc-pvdz.gbs

         ---------------------------------------------------------
                                   SCF
               by Justin Turney, Rob Parrish, Andy Simmonett
                          and Daniel G. A. Smith
                              RHF Reference
                        1 Threads,    500 MiB Core
         ---------------------------------------------------------

  ==> Geometry <==

    Molecular point group: c1
    Full point group: C1

    Geometry (in Angstrom), charge = -1, multiplicity = 1:

       Center              X                  Y                   Z               Mass
    ------------   -----------------  -----------------  -----------------  -----------------
         C            3.884241391976     2.415000403220     0.159715485007    12.000000000000
         C            0.309241391976     0.181000403220     1.017715485007    12.000000000000
         C            0.257241391976     1.271000403220     0.162715485007    12.000000000000
         C            1.514241391976    -0.193999596780     1.597715485007    12.000000000000
         C            1.412241391976     1.988000403220    -0.097284514993    12.000000000000
         C            2.668241391976     0.530000403220     1.324715485007    12.000000000000
         C            2.630241391976     1.632000403220     0.470715485007    12.000000000000
         O           -0.817758608024    -0.527999596780     1.278715485007    15.994914619570
         H           -1.508758608024    -0.376999596780     0.597715485007     1.007825032230
         H           -0.688758608024     1.596000403220    -0.232284514993     1.007825032230
         H            1.532241391976    -1.053999596780     2.231715485007     1.007825032230
         H            1.328241391976     2.882000403220    -0.619284514993     1.007825032230
         H            3.600241391976     0.232000403220     1.783715485007     1.007825032230
         H            4.508241391976     2.486000403220     1.051715485007     1.007825032230
         H            3.591241391976     3.429000403220    -0.117284514993     1.007825032230
         H            4.466552391976     1.979350403220    -0.665584514993     1.007825032230
         C           -2.813758608024    -1.739999596780    -2.782284514993    12.000000000000
         C           -2.637758608024    -1.634999596780    -1.273284514993    12.000000000000
         O           -2.458758608024    -0.499999596780    -0.776284514993    15.994914619570
         O           -2.667758608024    -2.679999596780    -0.594284514993    15.994914619570
         H           -2.088758608024    -2.446999596780    -3.182284514993     1.007825032230
         H           -2.588758608024    -0.779999596780    -3.240284514993     1.007825032230
         H           -3.828738608024    -2.059339596780    -3.061264514993     1.007825032230

  Running in c1 symmetry.

  Rotational constants: A =      0.06982  B =      0.01209  C =      0.01115 [cm^-1]
  Rotational constants: A =   2093.27022  B =    362.32550  C =    334.22177 [MHz]
  Nuclear repulsion =  643.915351402870897

  Charge       = -1
  Multiplicity = 1
  Electrons    = 90
  Nalpha       = 45
  Nbeta        = 45

  ==> Algorithm <==

  SCF Algorithm Type is PK.
  DIIS enabled.
  MOM disabled.
  Fractional occupation disabled.
  Guess Type is SAD.
  Energy threshold   = 1.00e-06
  Density threshold  = 1.00e-10
  Integral threshold = 0.00e+00

  ==> Primary Basis <==

  Basis Set: CC-PVDZ
    Blend: CC-PVDZ
    Number of shells: 105
    Number of basis function: 223
    Number of Cartesian functions: 235
    Spherical Harmonics?: true
    Max angular momentum: 2

  ==> Pre-Iterations <==

   -------------------------------------------------------
    Irrep   Nso     Nmo     Nalpha   Nbeta   Ndocc  Nsocc
   -------------------------------------------------------
     A        223     223       0       0       0       0
   -------------------------------------------------------
    Total     223     223      45      45      45       0
   -------------------------------------------------------

  ==> Integral Setup <==

  Using integral reordering PK algorithm.
  Sizing the integral batches needed.
  Building batch lookup table.
   Calculation information:
      Number of atoms:                  23
      Number of AO shells:             105
      Number of primitives:            319
      Number of atomic orbitals:       235
      Number of basis functions:       223

      Integral cutoff                 1.00e-12
      Number of threads:                 1

	Batch   1 pq = [       0,    9405] index = [             0,44231715] size =     44231715
	Batch   2 pq = [    9405,   13301] index = [      44231715,88464951] size =     44233236
	Batch   3 pq = [   13301,   16290] index = [      88464951,132690195] size =     44225244
	Batch   4 pq = [   16290,   18810] index = [     132690195,176917455] size =     44227260
	Batch   5 pq = [   18810,   21030] index = [     176917455,221140965] size =     44223510
	Batch   6 pq = [   21030,   23037] index = [     221140965,265363203] size =     44222238
	Batch   7 pq = [   23037,   24976] index = [     265363203,311912776] size =     46549573
  Task number: 29
  Buffer size: 11059200
  Buffer per thread: 2
  We computed 12191899 shell quartets total.
  Whereas there are 15487395 unique shell quartets.

  ==> DiskJK: Disk-Based J/K Matrices <==

    J tasked:                  Yes
    K tasked:                  Yes
    wK tasked:                  No
    Memory [MiB]:              375
    Schwarz Cutoff:          1E-12

    OpenMP threads:              1

  Minimum eigenvalue in the overlap matrix is 3.2354549314E-04.
  Using Symmetric Orthogonalization.

  SCF Guess: Superposition of Atomic Densities via on-the-fly atomic UHF.

  ==> Iterations <==

                        Total Energy        Delta E     RMS |[F,P]|

   @RHF iter SAD:  -570.35955296316899   -5.70360e+02   0.00000e+00
   @RHF iter   1:  -571.55764893099445   -1.19810e+00   3.59177e-03 DIIS
   @RHF iter   2:  -571.82874439103068   -2.71095e-01   1.86220e-03 DIIS
   @RHF iter   3:  -571.89315343407816   -6.44090e-02   3.38610e-04 DIIS
   @RHF iter   4:  -571.89679427332283   -3.64084e-03   1.30384e-04 DIIS
   @RHF iter   5:  -571.89731714535060   -5.22872e-04   2.41584e-05 DIIS
   @RHF iter   6:  -571.89734098368888   -2.38383e-05   1.21602e-05 DIIS
   @RHF iter   7:  -571.89734632549698   -5.34181e-06   3.63521e-06 DIIS
   @RHF iter   8:  -571.89734754735309   -1.22186e-06   1.60034e-06 DIIS
   @RHF iter   9:  -571.89734783756944   -2.90216e-07   7.02570e-07 DIIS
   @RHF iter  10:  -571.89734789834529   -6.07758e-08   2.93880e-07 DIIS
   @RHF iter  11:  -571.89734790906027   -1.07150e-08   1.09822e-07 DIIS
   @RHF iter  12:  -571.89734791013188   -1.07161e-09   4.65216e-08 DIIS
   @RHF iter  13:  -571.89734791030332   -1.71440e-10   1.45716e-08 DIIS
   @RHF iter  14:  -571.89734791031515   -1.18234e-11   6.17124e-09 DIIS
   @RHF iter  15:  -571.89734791031515    0.00000e+00   2.33801e-09 DIIS
   @RHF iter  16:  -571.89734791031981   -4.66116e-12   9.68889e-10 DIIS
   @RHF iter  17:  -571.89734791031537    4.43379e-12   3.06420e-10 DIIS
   @RHF iter  18:  -571.89734791032049   -5.11591e-12   1.02974e-10 DIIS
   @RHF iter  19:  -571.89734791032038    1.13687e-13   4.84023e-11 DIIS
  Energy and wave function converged.

  ==> Post-Iterations <==

    Orbital Energies [Eh]
    ---------------------

    Doubly Occupied:

       1A    -20.401589     2A    -20.301719     3A    -20.284798
       4A    -11.164046     5A    -11.146934     6A    -11.138044
       7A    -11.125519     8A    -11.119547     9A    -11.116620
      10A    -11.106033    11A    -11.100049    12A    -11.069242
      13A     -1.228138    14A     -1.184986    15A     -1.071188
      16A     -1.034707    17A     -0.923223    18A     -0.902014
      19A     -0.818436    20A     -0.815140    21A     -0.723795
      22A     -0.680486    23A     -0.593726    24A     -0.546771
      25A     -0.532179    26A     -0.520612    27A     -0.488445
      28A     -0.481253    29A     -0.471840    30A     -0.449660
      31A     -0.437595    32A     -0.434892    33A     -0.433451
      34A     -0.425213    35A     -0.401416    36A     -0.382890
      37A     -0.370025    38A     -0.353260    39A     -0.338071
      40A     -0.333525    41A     -0.223315    42A     -0.221156
      43A     -0.201421    44A     -0.196061    45A     -0.173452

    Virtual:

      46A      0.248227    47A      0.271327    48A      0.277386
      49A      0.314401    50A      0.320455    51A      0.339075
      52A      0.353827    53A      0.366213    54A      0.373175
      55A      0.376984    56A      0.398820    57A      0.414237
      58A      0.457403    59A      0.466855    60A      0.489202
      61A      0.494932    62A      0.553240    63A      0.564998
      64A      0.586139    65A      0.607005    66A      0.616403
      67A      0.643599    68A      0.684655    69A      0.717369
      70A      0.726270    71A      0.733731    72A      0.771971
      73A      0.792478    74A      0.797792    75A      0.809524
      76A      0.813262    77A      0.822133    78A      0.837892
      79A      0.851032    80A      0.857201    81A      0.857972
      82A      0.884247    83A      0.895622    84A      0.898196
      85A      0.912455    86A      0.931813    87A      0.943666
      88A      0.959114    89A      0.964100    90A      0.971216
      91A      0.989570    92A      0.999818    93A      1.005436
      94A      1.013348    95A      1.016813    96A      1.026623
      97A      1.028190    98A      1.034649    99A      1.051028
     100A      1.056359   101A      1.065714   102A      1.074261
     103A      1.118044   104A      1.125595   105A      1.148516
     106A      1.177337   107A      1.196584   108A      1.240583
     109A      1.260056   110A      1.267286   111A      1.288061
     112A      1.318259   113A      1.323855   114A      1.324936
     115A      1.347765   116A      1.360455   117A      1.380354
     118A      1.405783   119A      1.427042   120A      1.441564
     121A      1.448520   122A      1.474398   123A      1.495174
     124A      1.521934   125A      1.529160   126A      1.550075
     127A      1.568510   128A      1.589503   129A      1.596049
     130A      1.620890   131A      1.636619   132A      1.644859
     133A      1.658478   134A      1.693984   135A      1.705592
     136A      1.748872   137A      1.776154   138A      1.792106
     139A      1.802791   140A      1.815460   141A      1.827575
     142A      1.857263   143A      1.860709   144A      1.888785
     145A      1.904623   146A      1.927949   147A      1.943528
     148A      1.982859   149A      1.989339   150A      2.014385
     151A      2.029193   152A      2.036892   153A      2.040133
     154A      2.056534   155A      2.065894   156A      2.070409
     157A      2.079163   158A      2.080748   159A      2.096789
     160A      2.101232   161A      2.119883   162A      2.158885
     163A      2.170571   164A      2.178976   165A      2.194316
     166A      2.207165   167A      2.208938   168A      2.260606
     169A      2.268741   170A      2.276819   171A      2.292674
     172A      2.306540   173A      2.332168   174A      2.339809
     175A      2.345247   176A      2.380093   177A      2.401445
     178A      2.412863   179A      2.421796   180A      2.455298
     181A      2.518908   182A      2.535669   183A      2.543197
     184A      2.602731   185A      2.613222   186A      2.633417
     187A      2.635668   188A      2.671745   189A      2.689191
     190A      2.711133   191A      2.744366   192A      2.769172
     193A      2.852663   194A      2.860510   195A      2.887864
     196A      2.901969   197A      2.906663   198A      2.935551
     199A      2.956855   200A      2.969191   201A      2.983597
     202A      3.016393   203A      3.091819   204A      3.136029
     205A      3.214719   206A      3.224822   207A      3.247834
     208A      3.251505   209A      3.307575   210A      3.386956
     211A      3.437283   212A      3.468783   213A      3.565359
     214A      3.615268   215A      3.739208   216A      3.761851
     217A      3.805617   218A      3.852847   219A      4.039307
     220A      4.055644   221A      4.145538   222A      4.177676
     223A      4.405268

    Final Occupation by Irrep:
              A
    DOCC [    45 ]

  @RHF Final Energy:  -571.89734791032038

   => Energetics <=

    Nuclear Repulsion Energy =            643.9153514028708969
    One-Electron Energy =               -2072.6924321161354783
    Two-Electron Energy =                 856.8797328029443179
    Total Energy =                       -571.8973479103203772

Computation Completed

Properties will be evaluated at   0.000000,   0.000000,   0.000000 [a0]

Properties computed using the SCF density matrix

  Nuclear Dipole Moment: [e a0]
     X:     7.7740      Y:     5.5011      Z:    -5.1128

  Electronic Dipole Moment: [e a0]
     X:    -4.4707      Y:    -2.9930      Z:     5.1693

  Dipole Moment: [e a0]
     X:     3.3033      Y:     2.5081      Z:     0.0564     Total:     4.1480

  Dipole Moment: [D]
     X:     8.3962      Y:     6.3750      Z:     0.1435     Total:    10.5431

*** tstop() called on ds3 at Mon Apr 27 00:24:50 2020
Module time:
	user time   =     105.13 seconds =       1.75 minutes
	system time =      46.40 seconds =       0.77 minutes
	total time  =        399 seconds =       6.65 minutes
Total time:
	user time   =     105.13 seconds =       1.75 minutes
	system time =      46.40 seconds =       0.77 minutes
	total time  =        399 seconds =       6.65 minutes
                                     G D M A

                                 by Anthony Stone

                           version 2.2.06, 22 June 2011

               Distributed Multipoles from Gaussian wavefunctions

Starting at 0:24:50 on 27 Apr 2020

Using SCF density matrix from file ./SSI/SSI-009TYR-111ASP-1-dimer.test.9495.fchk

                         Distributed Multipole Analysis

Standard DMA

Positions and radii in angstrom
Multipole moments in atomic units, ea_0^k for rank k

C          x =  3.884241  y =  2.415000  z =  0.159715 angstrom
           Maximum rank =  0   Radius =  0.650 angstrom
                   Q00  =  -0.199627

C          x =  0.309241  y =  0.181000  z =  1.017715 angstrom
           Maximum rank =  0   Radius =  0.650 angstrom
                   Q00  =   0.372015

C          x =  0.257241  y =  1.271000  z =  0.162715 angstrom
           Maximum rank =  0   Radius =  0.650 angstrom
                   Q00  =  -0.156679

C          x =  1.514241  y = -0.194000  z =  1.597715 angstrom
           Maximum rank =  0   Radius =  0.650 angstrom
                   Q00  =  -0.106993

C          x =  1.412241  y =  1.988000  z = -0.097285 angstrom
           Maximum rank =  0   Radius =  0.650 angstrom
                   Q00  =   0.054999

C          x =  2.668241  y =  0.530000  z =  1.324715 angstrom
           Maximum rank =  0   Radius =  0.650 angstrom
                   Q00  =  -0.069611

C          x =  2.630241  y =  1.632000  z =  0.470715 angstrom
           Maximum rank =  0   Radius =  0.650 angstrom
                   Q00  =  -0.157316

O          x = -0.817759  y = -0.528000  z =  1.278715 angstrom
           Maximum rank =  0   Radius =  0.650 angstrom
                   Q00  =  -0.768290

H          x = -1.508759  y = -0.377000  z =  0.597715 angstrom
           Maximum rank =  0   Radius =  0.325 angstrom
                   Q00  =   0.538542

H          x = -0.688759  y =  1.596000  z = -0.232285 angstrom
           Maximum rank =  0   Radius =  0.325 angstrom
                   Q00  =   0.085367

H          x =  1.532241  y = -1.054000  z =  2.231715 angstrom
           Maximum rank =  0   Radius =  0.325 angstrom
                   Q00  =   0.061743

H          x =  1.328241  y =  2.882000  z = -0.619285 angstrom
           Maximum rank =  0   Radius =  0.325 angstrom
                   Q00  =   0.040928

H          x =  3.600241  y =  0.232000  z =  1.783715 angstrom
           Maximum rank =  0   Radius =  0.325 angstrom
                   Q00  =   0.031374

H          x =  4.508241  y =  2.486000  z =  1.051715 angstrom
           Maximum rank =  0   Radius =  0.325 angstrom
                   Q00  =   0.078763

H          x =  3.591241  y =  3.429000  z = -0.117285 angstrom
           Maximum rank =  0   Radius =  0.325 angstrom
                   Q00  =   0.079537

H          x =  4.466552  y =  1.979350  z = -0.665585 angstrom
           Maximum rank =  0   Radius =  0.325 angstrom
                   Q00  =   0.082470

C          x = -2.813759  y = -1.740000  z = -2.782285 angstrom
           Maximum rank =  0   Radius =  0.650 angstrom
                   Q00  =  -0.269458

C          x = -2.637759  y = -1.635000  z = -1.273285 angstrom
           Maximum rank =  0   Radius =  0.650 angstrom
                   Q00  =   0.917565

O          x = -2.458759  y = -0.500000  z = -0.776285 angstrom
           Maximum rank =  0   Radius =  0.650 angstrom
                   Q00  =  -0.943975

O          x = -2.667759  y = -2.680000  z = -0.594285 angstrom
           Maximum rank =  0   Radius =  0.650 angstrom
                   Q00  =  -0.885781

H          x = -2.088759  y = -2.447000  z = -3.182285 angstrom
           Maximum rank =  0   Radius =  0.325 angstrom
                   Q00  =   0.076343

H          x = -2.588759  y = -0.780000  z = -3.240285 angstrom
           Maximum rank =  0   Radius =  0.325 angstrom
                   Q00  =   0.057794

H          x = -3.828739  y = -2.059340  z = -3.061265 angstrom
           Maximum rank =  0   Radius =  0.325 angstrom
                   Q00  =   0.080290

Total multipoles referred to origin at
           x =   0.000000,  y =    0.000000,  z =    0.000000 angstrom
                   Q00  =  -1.000000

Finished at 0:24:50 on 27 Apr 2020

  DMA results are available in the Python driver through the
	  variable('DMA DISTRIBUTED MULTIPOLES')
  and
	  variable('DMA TOTAL MULTIPOLES')
  commands.

    Psi4 stopped on: Monday, 27 April 2020 12:24AM
    Psi4 wall time for execution: 0:06:39.37

*** Psi4 exiting successfully. Buy a developer a beer!
