                               Psi4 1.3.2 release

  ==> Input File <==

--------------------------------------------------------------------------
import numpy as np
set {scf_type pk
basis cc-pvdz
d_convergence 10
gdma_switch   0
gdma_limit    0
gdma_origin   [ 0.0,  0.0,  0.0 ]
}
molecule test {
    units Angstrom
    0 1
    --
    0 1
    C                2.536384702624663     0.029730986273864     2.011581164750615
    C               -0.597615297375337     0.201730986273864    -0.127418835249385
    C               -1.617615297375337     0.137730986273864     0.812581164750615
    C                0.733384702624662     0.151730986273864     0.251581164750615
    C                1.088384702624663     0.070730986273864     1.584581164750615
    C               -1.294615297375337     0.055730986273864     2.121581164750615
    C                0.059384702624663    -0.001269013726136     2.523581164750615
    H               -0.854615297375337     0.269730986273864    -1.173418835249385
    H               -2.652615297375338     0.162730986273864     0.500581164750615
    H                1.500384702624663     0.192730986273864    -0.509418835249385
    H               -2.078615297375337     0.006730986273864     2.866581164750615
    H                2.694384702624662     0.787730986273864     2.778581164750615
    H                3.149384702624662     0.293730986273864     1.154581164750615
    H                0.296384702624663    -0.100269013726136     3.572581164750615
    H                2.875744702624663    -0.944439013726136     2.393451164750615
    C               -0.229615297375337     0.408730986273864    -3.909418835249385
    C               -0.825615297375337    -0.970269013726136    -4.202418835249385
    H                0.224384702624663     0.819730986273864    -4.812418835249384
    H               -1.011615297375337     1.086730986273864    -3.569418835249385
    H                0.522384702624663     0.360730986273864    -3.122418835249385
    H               -1.300615297375337    -1.337269013726136    -3.295418835249385
    H               -0.021435297375337    -1.666219013726136    -4.483378835249384
    H               -1.586835297375337    -0.939449013726136    -4.995888835249385

}
e, wfn = energy('scf', return_wfn=True)
gdma(wfn)
dmavals = variable('DMA DISTRIBUTED MULTIPOLES')
charges = np.array(dmavals)
print(charges)
np.save('SSI-013PHE-083ILE-1-dimer.npy', np.array(charges))--------------------------------------------------------------------------

*** tstart() called on ds3
*** at Mon Apr 27 08:38:15 2020

   => Loading Basis Set <=

    Name: CC-PVDZ
    Role: ORBITAL
    Keyword: BASIS
    atoms 1-7, 16-17  entry C          line   138 file /theoryfs2/ds/metcalf/miniconda2/envs/tf2gpu/share/psi4/basis/cc-pvdz.gbs
    atoms 8-15, 18-23 entry H          line    22 file /theoryfs2/ds/metcalf/miniconda2/envs/tf2gpu/share/psi4/basis/cc-pvdz.gbs

         ---------------------------------------------------------
                                   SCF
               by Justin Turney, Rob Parrish, Andy Simmonett
                          and Daniel G. A. Smith
                              RHF Reference
                        1 Threads,    500 MiB Core
         ---------------------------------------------------------

  ==> Geometry <==

    Molecular point group: c1
    Full point group: C1

    Geometry (in Angstrom), charge = 0, multiplicity = 1:

       Center              X                  Y                   Z               Mass
    ------------   -----------------  -----------------  -----------------  -----------------
         C            2.536384702625     0.029730986274     2.011581164751    12.000000000000
         C           -0.597615297375     0.201730986274    -0.127418835249    12.000000000000
         C           -1.617615297375     0.137730986274     0.812581164751    12.000000000000
         C            0.733384702625     0.151730986274     0.251581164751    12.000000000000
         C            1.088384702625     0.070730986274     1.584581164751    12.000000000000
         C           -1.294615297375     0.055730986274     2.121581164751    12.000000000000
         C            0.059384702625    -0.001269013726     2.523581164751    12.000000000000
         H           -0.854615297375     0.269730986274    -1.173418835249     1.007825032230
         H           -2.652615297375     0.162730986274     0.500581164751     1.007825032230
         H            1.500384702625     0.192730986274    -0.509418835249     1.007825032230
         H           -2.078615297375     0.006730986274     2.866581164751     1.007825032230
         H            2.694384702625     0.787730986274     2.778581164751     1.007825032230
         H            3.149384702625     0.293730986274     1.154581164751     1.007825032230
         H            0.296384702625    -0.100269013726     3.572581164751     1.007825032230
         H            2.875744702625    -0.944439013726     2.393451164751     1.007825032230
         C           -0.229615297375     0.408730986274    -3.909418835249    12.000000000000
         C           -0.825615297375    -0.970269013726    -4.202418835249    12.000000000000
         H            0.224384702625     0.819730986274    -4.812418835249     1.007825032230
         H           -1.011615297375     1.086730986274    -3.569418835249     1.007825032230
         H            0.522384702625     0.360730986274    -3.122418835249     1.007825032230
         H           -1.300615297375    -1.337269013726    -3.295418835249     1.007825032230
         H           -0.021435297375    -1.666219013726    -4.483378835249     1.007825032230
         H           -1.586835297375    -0.939449013726    -4.995888835249     1.007825032230

  Running in c1 symmetry.

  Rotational constants: A =      0.08188  B =      0.02105  C =      0.01748 [cm^-1]
  Rotational constants: A =   2454.60629  B =    631.00522  C =    524.04303 [MHz]
  Nuclear repulsion =  400.442374111626350

  Charge       = 0
  Multiplicity = 1
  Electrons    = 68
  Nalpha       = 34
  Nbeta        = 34

  ==> Algorithm <==

  SCF Algorithm Type is PK.
  DIIS enabled.
  MOM disabled.
  Fractional occupation disabled.
  Guess Type is SAD.
  Energy threshold   = 1.00e-06
  Density threshold  = 1.00e-10
  Integral threshold = 0.00e+00

  ==> Primary Basis <==

  Basis Set: CC-PVDZ
    Blend: CC-PVDZ
    Number of shells: 96
    Number of basis function: 196
    Number of Cartesian functions: 205
    Spherical Harmonics?: true
    Max angular momentum: 2

  ==> Pre-Iterations <==

   -------------------------------------------------------
    Irrep   Nso     Nmo     Nalpha   Nbeta   Ndocc  Nsocc
   -------------------------------------------------------
     A        196     196       0       0       0       0
   -------------------------------------------------------
    Total     196     196      34      34      34       0
   -------------------------------------------------------

  ==> Integral Setup <==

  Using integral reordering PK algorithm.
  Sizing the integral batches needed.
  Building batch lookup table.
   Calculation information:
      Number of atoms:                  23
      Number of AO shells:              96
      Number of primitives:            268
      Number of atomic orbitals:       205
      Number of basis functions:       196

      Integral cutoff                 1.00e-12
      Number of threads:                 1

	Batch   1 pq = [       0,    9405] index = [             0,44231715] size =     44231715
	Batch   2 pq = [    9405,   13301] index = [      44231715,88464951] size =     44233236
	Batch   3 pq = [   13301,   16290] index = [      88464951,132690195] size =     44225244
	Batch   4 pq = [   16290,   18810] index = [     132690195,176917455] size =     44227260
	Batch   5 pq = [   18810,   19306] index = [     176917455,186370471] size =      9453016
  Task number: 17
  Buffer size: 11059200
  Buffer per thread: 2
  We computed 8801280 shell quartets total.
  Whereas there are 10841496 unique shell quartets.

  ==> DiskJK: Disk-Based J/K Matrices <==

    J tasked:                  Yes
    K tasked:                  Yes
    wK tasked:                  No
    Memory [MiB]:              375
    Schwarz Cutoff:          1E-12

    OpenMP threads:              1

  Minimum eigenvalue in the overlap matrix is 2.8719159971E-04.
  Using Symmetric Orthogonalization.

  SCF Guess: Superposition of Atomic Densities via on-the-fly atomic UHF.

  ==> Iterations <==

                        Total Energy        Delta E     RMS |[F,P]|

   @RHF iter SAD:  -347.94155056205403   -3.47942e+02   0.00000e+00
   @RHF iter   1:  -348.76403416765083   -8.22484e-01   2.90854e-03 DIIS
   @RHF iter   2:  -348.95821567160931   -1.94182e-01   1.20764e-03 DIIS
   @RHF iter   3:  -348.98867450826316   -3.04588e-02   2.57925e-04 DIIS
   @RHF iter   4:  -348.99116716420315   -2.49266e-03   4.75222e-05 DIIS
   @RHF iter   5:  -348.99123100816814   -6.38440e-05   1.49636e-05 DIIS
   @RHF iter   6:  -348.99123688985753   -5.88169e-06   3.94022e-06 DIIS
   @RHF iter   7:  -348.99123735628137   -4.66424e-07   1.38321e-06 DIIS
   @RHF iter   8:  -348.99123742291079   -6.66294e-08   3.68260e-07 DIIS
   @RHF iter   9:  -348.99123743579389   -1.28831e-08   1.71092e-07 DIIS
   @RHF iter  10:  -348.99123743921979   -3.42590e-09   7.85724e-08 DIIS
   @RHF iter  11:  -348.99123744011024   -8.90452e-10   2.62342e-08 DIIS
   @RHF iter  12:  -348.99123744018158   -7.13385e-11   1.11637e-08 DIIS
   @RHF iter  13:  -348.99123744018556   -3.97904e-12   3.75742e-09 DIIS
   @RHF iter  14:  -348.99123744018914   -3.58114e-12   8.38552e-10 DIIS
   @RHF iter  15:  -348.99123744018607    3.06954e-12   2.70903e-10 DIIS
   @RHF iter  16:  -348.99123744018834   -2.27374e-12   7.48353e-11 DIIS
  Energy and wave function converged.

  ==> Post-Iterations <==

    Orbital Energies [Eh]
    ---------------------

    Doubly Occupied:

       1A    -11.239435     2A    -11.232019     3A    -11.231182
       4A    -11.230454     5A    -11.229718     6A    -11.227801
       7A    -11.225444     8A    -11.221213     9A    -11.219990
      10A     -1.155850    11A     -1.048828    12A     -1.020201
      13A     -1.007749    14A     -0.934108    15A     -0.840703
      16A     -0.826985    17A     -0.793530    18A     -0.693101
      19A     -0.632699    20A     -0.628376    21A     -0.601349
      22A     -0.598273    23A     -0.578170    24A     -0.574913
      25A     -0.564713    26A     -0.536566    27A     -0.505754
      28A     -0.490219    29A     -0.487917    30A     -0.487013
      31A     -0.483182    32A     -0.479417    33A     -0.332737
      34A     -0.322893

    Virtual:

      35A      0.133435    36A      0.148570    37A      0.170026
      38A      0.193918    39A      0.205138    40A      0.217942
      41A      0.230530    42A      0.240780    43A      0.255087
      44A      0.260551    45A      0.266613    46A      0.273239
      47A      0.277865    48A      0.280680    49A      0.336406
      50A      0.351844    51A      0.371630    52A      0.387316
      53A      0.403771    54A      0.463132    55A      0.469701
      56A      0.477820    57A      0.510289    58A      0.569106
      59A      0.592790    60A      0.598193    61A      0.603286
      62A      0.623812    63A      0.629960    64A      0.682363
      65A      0.688109    66A      0.693988    67A      0.696632
      68A      0.713858    69A      0.736847    70A      0.740801
      71A      0.744004    72A      0.754433    73A      0.759983
      74A      0.775810    75A      0.784743    76A      0.798757
      77A      0.824107    78A      0.842974    79A      0.854868
      80A      0.862107    81A      0.878983    82A      0.885803
      83A      0.890171    84A      0.893068    85A      0.898578
      86A      0.907632    87A      0.911525    88A      0.922785
      89A      0.928042    90A      0.943799    91A      0.956024
      92A      0.972351    93A      0.997807    94A      1.009713
      95A      1.049169    96A      1.085814    97A      1.110275
      98A      1.131658    99A      1.138515   100A      1.149220
     101A      1.164035   102A      1.177189   103A      1.202143
     104A      1.233395   105A      1.249534   106A      1.258846
     107A      1.274553   108A      1.284839   109A      1.309402
     110A      1.328075   111A      1.339472   112A      1.343630
     113A      1.418378   114A      1.460033   115A      1.483104
     116A      1.507510   117A      1.535496   118A      1.546727
     119A      1.592979   120A      1.624837   121A      1.676303
     122A      1.683341   123A      1.690772   124A      1.703745
     125A      1.736042   126A      1.747480   127A      1.768857
     128A      1.793797   129A      1.815497   130A      1.861610
     131A      1.866307   132A      1.878973   133A      1.888420
     134A      1.896151   135A      1.899583   136A      1.905029
     137A      1.918543   138A      1.926330   139A      1.932467
     140A      1.938182   141A      1.945262   142A      1.955901
     143A      1.963906   144A      1.969472   145A      1.975918
     146A      1.985958   147A      2.004891   148A      2.017589
     149A      2.041441   150A      2.056238   151A      2.080047
     152A      2.091696   153A      2.120490   154A      2.121391
     155A      2.135123   156A      2.173452   157A      2.181214
     158A      2.198515   159A      2.208039   160A      2.252006
     161A      2.277763   162A      2.293328   163A      2.298033
     164A      2.312977   165A      2.327068   166A      2.347353
     167A      2.354417   168A      2.447072   169A      2.456247
     170A      2.463180   171A      2.481120   172A      2.520634
     173A      2.543272   174A      2.551835   175A      2.580563
     176A      2.634694   177A      2.748425   178A      2.756402
     179A      2.764280   180A      2.778294   181A      2.791529
     182A      2.800050   183A      2.830068   184A      2.852410
     185A      2.860707   186A      2.877016   187A      2.889206
     188A      2.959538   189A      2.969149   190A      2.996385
     191A      3.028389   192A      3.034058   193A      3.169995
     194A      3.214648   195A      3.317929   196A      3.986017

    Final Occupation by Irrep:
              A
    DOCC [    34 ]

  @RHF Final Energy:  -348.99123744018834

   => Energetics <=

    Nuclear Repulsion Energy =            400.4423741116263500
    One-Electron Energy =               -1263.5022217780042411
    Two-Electron Energy =                 514.0686102261895485
    Total Energy =                       -348.9912374401883426

Computation Completed

Properties will be evaluated at   0.000000,   0.000000,   0.000000 [a0]

Properties computed using the SCF density matrix

  Nuclear Dipole Moment: [e a0]
     X:     1.6469      Y:    -0.9441      Z:   -11.9016

  Electronic Dipole Moment: [e a0]
     X:    -1.5331      Y:     0.9334      Z:    11.9294

  Dipole Moment: [e a0]
     X:     0.1137      Y:    -0.0107      Z:     0.0278     Total:     0.1176

  Dipole Moment: [D]
     X:     0.2891      Y:    -0.0271      Z:     0.0708     Total:     0.2988

*** tstop() called on ds3 at Mon Apr 27 08:41:36 2020
Module time:
	user time   =      61.64 seconds =       1.03 minutes
	system time =      24.05 seconds =       0.40 minutes
	total time  =        201 seconds =       3.35 minutes
Total time:
	user time   =      61.64 seconds =       1.03 minutes
	system time =      24.05 seconds =       0.40 minutes
	total time  =        201 seconds =       3.35 minutes
                                     G D M A

                                 by Anthony Stone

                           version 2.2.06, 22 June 2011

               Distributed Multipoles from Gaussian wavefunctions

Starting at 8:41:36 on 27 Apr 2020

Using SCF density matrix from file ./SSI/SSI-013PHE-083ILE-1-dimer.test.969.fchk

                         Distributed Multipole Analysis

Standard DMA

Positions and radii in angstrom
Multipole moments in atomic units, ea_0^k for rank k

C          x =  2.536385  y =  0.029731  z =  2.011581 angstrom
           Maximum rank =  0   Radius =  0.650 angstrom
                   Q00  =  -0.217625

C          x = -0.597615  y =  0.201731  z = -0.127419 angstrom
           Maximum rank =  0   Radius =  0.650 angstrom
                   Q00  =   0.004932

C          x = -1.617615  y =  0.137731  z =  0.812581 angstrom
           Maximum rank =  0   Radius =  0.650 angstrom
                   Q00  =  -0.079276

C          x =  0.733385  y =  0.151731  z =  0.251581 angstrom
           Maximum rank =  0   Radius =  0.650 angstrom
                   Q00  =  -0.097677

C          x =  1.088385  y =  0.070731  z =  1.584581 angstrom
           Maximum rank =  0   Radius =  0.650 angstrom
                   Q00  =  -0.093983

C          x = -1.294615  y =  0.055731  z =  2.121581 angstrom
           Maximum rank =  0   Radius =  0.650 angstrom
                   Q00  =  -0.075405

C          x =  0.059385  y = -0.001269  z =  2.523581 angstrom
           Maximum rank =  0   Radius =  0.650 angstrom
                   Q00  =  -0.036266

H          x = -0.854615  y =  0.269731  z = -1.173419 angstrom
           Maximum rank =  0   Radius =  0.325 angstrom
                   Q00  =   0.062477

H          x = -2.652615  y =  0.162731  z =  0.500581 angstrom
           Maximum rank =  0   Radius =  0.325 angstrom
                   Q00  =   0.055596

H          x =  1.500385  y =  0.192731  z = -0.509419 angstrom
           Maximum rank =  0   Radius =  0.325 angstrom
                   Q00  =   0.052607

H          x = -2.078615  y =  0.006731  z =  2.866581 angstrom
           Maximum rank =  0   Radius =  0.325 angstrom
                   Q00  =   0.060701

H          x =  2.694385  y =  0.787731  z =  2.778581 angstrom
           Maximum rank =  0   Radius =  0.325 angstrom
                   Q00  =   0.103600

H          x =  3.149385  y =  0.293731  z =  1.154581 angstrom
           Maximum rank =  0   Radius =  0.325 angstrom
                   Q00  =   0.097880

H          x =  0.296385  y = -0.100269  z =  3.572581 angstrom
           Maximum rank =  0   Radius =  0.325 angstrom
                   Q00  =   0.055972

H          x =  2.875745  y = -0.944439  z =  2.393451 angstrom
           Maximum rank =  0   Radius =  0.325 angstrom
                   Q00  =   0.105911

C          x = -0.229615  y =  0.408731  z = -3.909419 angstrom
           Maximum rank =  0   Radius =  0.650 angstrom
                   Q00  =  -0.242846

C          x = -0.825615  y = -0.970269  z = -4.202419 angstrom
           Maximum rank =  0   Radius =  0.650 angstrom
                   Q00  =  -0.235604

H          x =  0.224385  y =  0.819731  z = -4.812419 angstrom
           Maximum rank =  0   Radius =  0.325 angstrom
                   Q00  =   0.081975

H          x = -1.011615  y =  1.086731  z = -3.569419 angstrom
           Maximum rank =  0   Radius =  0.325 angstrom
                   Q00  =   0.077092

H          x =  0.522385  y =  0.360731  z = -3.122419 angstrom
           Maximum rank =  0   Radius =  0.325 angstrom
                   Q00  =   0.079429

H          x = -1.300615  y = -1.337269  z = -3.295419 angstrom
           Maximum rank =  0   Radius =  0.325 angstrom
                   Q00  =   0.077801

H          x = -0.021435  y = -1.666219  z = -4.483379 angstrom
           Maximum rank =  0   Radius =  0.325 angstrom
                   Q00  =   0.079893

H          x = -1.586835  y = -0.939449  z = -4.995889 angstrom
           Maximum rank =  0   Radius =  0.325 angstrom
                   Q00  =   0.082817

Total multipoles referred to origin at
           x =   0.000000,  y =    0.000000,  z =    0.000000 angstrom
                   Q00  =  -0.000000

Finished at 8:41:36 on 27 Apr 2020

  DMA results are available in the Python driver through the
	  variable('DMA DISTRIBUTED MULTIPOLES')
  and
	  variable('DMA TOTAL MULTIPOLES')
  commands.

    Psi4 stopped on: Monday, 27 April 2020 08:41AM
    Psi4 wall time for execution: 0:03:21.06

*** Psi4 exiting successfully. Buy a developer a beer!
