                               Psi4 1.3.2 release

  ==> Input File <==

--------------------------------------------------------------------------
import numpy as np
set {scf_type pk
basis cc-pvdz
d_convergence 10
gdma_switch   0
gdma_limit    0
gdma_origin   [ 0.0,  0.0,  0.0 ]
}
molecule test {
    units Angstrom
    0 1
    --
    0 1
    C               -0.021003277009559     1.440926137576468    -0.363665932784951
    C                0.009996722990441     1.181926137576468     1.180334067215049
    C               -1.170003277009559     2.421926137576469    -0.475665932784951
    H               -0.253003277009559     0.511926137576468    -0.874665932784951
    H                0.876996722990441     1.878926137576468    -0.798665932784951
    H               -0.709003277009559     0.407926137576468     1.463334067215049
    H                0.999996722990441     0.884926137576468     1.511334067215049
    H               -1.188003277009559     2.994926137576468    -1.400665932784951
    H               -0.283133277009559     2.141386137576469     1.631464067215048
    H               -0.993143277009559     3.078086137576468     0.389304067215049
    H               -2.127923277009558     1.889426137576468    -0.381695932784951
    C               -0.131003277009559    -2.256073862423531    -0.007665932784951
    C                1.317996722990441    -2.698073862423532    -0.364665932784951
    H               -0.118003277009559    -1.625073862423532     0.879334067215049
    H               -0.565003277009559    -1.699073862423532    -0.837665932784951
    H               -0.750003277009559    -3.132073862423531     0.188334067215049
    H                1.926996722990441    -1.816073862423532    -0.573665932784951
    H                1.297996722990441    -3.326073862423531    -1.257665932784951
    H                1.813986722990441    -3.268283862423532     0.434624067215049

}
e, wfn = energy('scf', return_wfn=True)
gdma(wfn)
dmavals = variable('DMA DISTRIBUTED MULTIPOLES')
charges = np.array(dmavals)
print(charges)
np.save('SSI-039PRO-166ILE-1-dimer.npy', np.array(charges))--------------------------------------------------------------------------

*** tstart() called on ds3
*** at Tue Apr 28 09:00:47 2020

   => Loading Basis Set <=

    Name: CC-PVDZ
    Role: ORBITAL
    Keyword: BASIS
    atoms 1-3, 12-13  entry C          line   138 file /theoryfs2/ds/metcalf/miniconda2/envs/tf2gpu/share/psi4/basis/cc-pvdz.gbs
    atoms 4-11, 14-19 entry H          line    22 file /theoryfs2/ds/metcalf/miniconda2/envs/tf2gpu/share/psi4/basis/cc-pvdz.gbs

         ---------------------------------------------------------
                                   SCF
               by Justin Turney, Rob Parrish, Andy Simmonett
                          and Daniel G. A. Smith
                              RHF Reference
                        1 Threads,    500 MiB Core
         ---------------------------------------------------------

  ==> Geometry <==

    Molecular point group: c1
    Full point group: C1

    Geometry (in Angstrom), charge = 0, multiplicity = 1:

       Center              X                  Y                   Z               Mass
    ------------   -----------------  -----------------  -----------------  -----------------
         C           -0.021003277010     1.440926137576    -0.363665932785    12.000000000000
         C            0.009996722990     1.181926137576     1.180334067215    12.000000000000
         C           -1.170003277010     2.421926137576    -0.475665932785    12.000000000000
         H           -0.253003277010     0.511926137576    -0.874665932785     1.007825032230
         H            0.876996722990     1.878926137576    -0.798665932785     1.007825032230
         H           -0.709003277010     0.407926137576     1.463334067215     1.007825032230
         H            0.999996722990     0.884926137576     1.511334067215     1.007825032230
         H           -1.188003277010     2.994926137576    -1.400665932785     1.007825032230
         H           -0.283133277010     2.141386137576     1.631464067215     1.007825032230
         H           -0.993143277010     3.078086137576     0.389304067215     1.007825032230
         H           -2.127923277010     1.889426137576    -0.381695932785     1.007825032230
         C           -0.131003277010    -2.256073862424    -0.007665932785    12.000000000000
         C            1.317996722990    -2.698073862424    -0.364665932785    12.000000000000
         H           -0.118003277010    -1.625073862424     0.879334067215     1.007825032230
         H           -0.565003277010    -1.699073862424    -0.837665932785     1.007825032230
         H           -0.750003277010    -3.132073862424     0.188334067215     1.007825032230
         H            1.926996722990    -1.816073862424    -0.573665932785     1.007825032230
         H            1.297996722990    -3.326073862424    -1.257665932785     1.007825032230
         H            1.813986722990    -3.268283862424     0.434624067215     1.007825032230

  Running in c1 symmetry.

  Rotational constants: A =      0.25950  B =      0.04347  C =      0.04214 [cm^-1]
  Rotational constants: A =   7779.50256  B =   1303.08227  C =   1263.23836 [MHz]
  Nuclear repulsion =  182.320072664233464

  Charge       = 0
  Multiplicity = 1
  Electrons    = 44
  Nalpha       = 22
  Nbeta        = 22

  ==> Algorithm <==

  SCF Algorithm Type is PK.
  DIIS enabled.
  MOM disabled.
  Fractional occupation disabled.
  Guess Type is SAD.
  Energy threshold   = 1.00e-06
  Density threshold  = 1.00e-10
  Integral threshold = 0.00e+00

  ==> Primary Basis <==

  Basis Set: CC-PVDZ
    Blend: CC-PVDZ
    Number of shells: 72
    Number of basis function: 140
    Number of Cartesian functions: 145
    Spherical Harmonics?: true
    Max angular momentum: 2

  ==> Pre-Iterations <==

   -------------------------------------------------------
    Irrep   Nso     Nmo     Nalpha   Nbeta   Ndocc  Nsocc
   -------------------------------------------------------
     A        140     140       0       0       0       0
   -------------------------------------------------------
    Total     140     140      22      22      22       0
   -------------------------------------------------------

  ==> Integral Setup <==

  Using integral reordering PK algorithm.
  Sizing the integral batches needed.
  Building batch lookup table.
   Calculation information:
      Number of atoms:                  19
      Number of AO shells:              72
      Number of primitives:            180
      Number of atomic orbitals:       145
      Number of basis functions:       140

      Integral cutoff                 1.00e-12
      Number of threads:                 1

	Batch   1 pq = [       0,    9405] index = [             0,44231715] size =     44231715
	Batch   2 pq = [    9405,    9870] index = [      44231715,48713385] size =      4481670
  Task number: 5
  Buffer size: 11059200
  Buffer per thread: 2
  We computed 3039183 shell quartets total.
  Whereas there are 3454506 unique shell quartets.

  ==> DiskJK: Disk-Based J/K Matrices <==

    J tasked:                  Yes
    K tasked:                  Yes
    wK tasked:                  No
    Memory [MiB]:              375
    Schwarz Cutoff:          1E-12

    OpenMP threads:              1

  Minimum eigenvalue in the overlap matrix is 5.4662878602E-03.
  Using Symmetric Orthogonalization.

  SCF Guess: Superposition of Atomic Densities via on-the-fly atomic UHF.

  ==> Iterations <==

                        Total Energy        Delta E     RMS |[F,P]|

   @RHF iter SAD:  -196.41519343112969   -1.96415e+02   0.00000e+00
   @RHF iter   1:  -197.29517859654254   -8.79985e-01   3.77225e-03 DIIS
   @RHF iter   2:  -197.45236342073181   -1.57185e-01   1.62895e-03 DIIS
   @RHF iter   3:  -197.48038193945274   -2.80185e-02   3.25947e-04 DIIS
   @RHF iter   4:  -197.48256043804537   -2.17850e-03   4.85703e-05 DIIS
   @RHF iter   5:  -197.48259926921259   -3.88312e-05   1.54092e-05 DIIS
   @RHF iter   6:  -197.48260285816150   -3.58895e-06   2.46960e-06 DIIS
   @RHF iter   7:  -197.48260297660914   -1.18448e-07   4.60146e-07 DIIS
   @RHF iter   8:  -197.48260298126789   -4.65874e-09   1.07030e-07 DIIS
   @RHF iter   9:  -197.48260298153056   -2.62673e-10   3.57096e-08 DIIS
   @RHF iter  10:  -197.48260298156066   -3.00986e-11   9.36311e-09 DIIS
   @RHF iter  11:  -197.48260298156146   -7.95808e-13   1.89128e-09 DIIS
   @RHF iter  12:  -197.48260298156160   -1.42109e-13   4.13149e-10 DIIS
   @RHF iter  13:  -197.48260298156245   -8.52651e-13   9.40156e-11 DIIS
  Energy and wave function converged.

  ==> Post-Iterations <==

    Orbital Energies [Eh]
    ---------------------

    Doubly Occupied:

       1A    -11.220701     2A    -11.219199     3A    -11.218984
       4A    -11.217100     5A    -11.212917     6A     -1.060184
       7A     -1.011476     8A     -0.910938     9A     -0.841616
      10A     -0.803205    11A     -0.636300    12A     -0.610938
      13A     -0.594587    14A     -0.592750    15A     -0.537063
      16A     -0.511361    17A     -0.499491    18A     -0.489260
      19A     -0.487002    20A     -0.480386    21A     -0.472730
      22A     -0.455191

    Virtual:

      23A      0.173869    24A      0.198917    25A      0.214995
      26A      0.222416    27A      0.235769    28A      0.252422
      29A      0.254521    30A      0.266897    31A      0.282748
      32A      0.288595    33A      0.299879    34A      0.318952
      35A      0.339776    36A      0.353029    37A      0.376809
      38A      0.400447    39A      0.420288    40A      0.562129
      41A      0.583346    42A      0.593378    43A      0.606558
      44A      0.622398    45A      0.639391    46A      0.654453
      47A      0.665672    48A      0.690958    49A      0.797662
      50A      0.811114    51A      0.826340    52A      0.832035
      53A      0.847714    54A      0.860090    55A      0.877585
      56A      0.885703    57A      0.894824    58A      0.899712
      59A      0.900694    60A      0.911498    61A      0.920626
      62A      0.930379    63A      0.936093    64A      0.950996
      65A      0.959770    66A      0.972618    67A      0.999421
      68A      1.019169    69A      1.090156    70A      1.124708
      71A      1.136860    72A      1.160393    73A      1.216688
      74A      1.259166    75A      1.370800    76A      1.432431
      77A      1.459103    78A      1.478807    79A      1.490686
      80A      1.570358    81A      1.598143    82A      1.626511
      83A      1.640417    84A      1.693589    85A      1.720459
      86A      1.744541    87A      1.749508    88A      1.804010
      89A      1.838921    90A      1.857171    91A      1.869967
      92A      1.879836    93A      1.898116    94A      1.915125
      95A      1.927925    96A      1.934158    97A      1.940292
      98A      1.943953    99A      1.947885   100A      1.955523
     101A      1.965704   102A      1.982797   103A      2.005790
     104A      2.020352   105A      2.024457   106A      2.056094
     107A      2.091047   108A      2.110350   109A      2.119505
     110A      2.135680   111A      2.168592   112A      2.251275
     113A      2.298601   114A      2.313876   115A      2.322443
     116A      2.343135   117A      2.423667   118A      2.443495
     119A      2.458759   120A      2.469406   121A      2.506713
     122A      2.539115   123A      2.552154   124A      2.576328
     125A      2.650782   126A      2.688822   127A      2.755795
     128A      2.767749   129A      2.770077   130A      2.785696
     131A      2.807136   132A      2.850105   133A      2.863012
     134A      2.867879   135A      2.889577   136A      2.915662
     137A      2.936555   138A      2.962733   139A      2.972895
     140A      3.063121

    Final Occupation by Irrep:
              A
    DOCC [    22 ]

  @RHF Final Energy:  -197.48260298156245

   => Energetics <=

    Nuclear Repulsion Energy =            182.3200726642334644
    One-Electron Energy =                -625.4385931003473615
    Two-Electron Energy =                 245.6359174545514463
    Total Energy =                       -197.4826029815624509

Computation Completed

Properties will be evaluated at   0.000000,   0.000000,   0.000000 [a0]

Properties computed using the SCF density matrix

  Nuclear Dipole Moment: [e a0]
     X:    -0.0668      Y:    -1.0116      Z:     0.3497

  Electronic Dipole Moment: [e a0]
     X:     0.0792      Y:     0.9875      Z:    -0.3721

  Dipole Moment: [e a0]
     X:     0.0124      Y:    -0.0242      Z:    -0.0224     Total:     0.0352

  Dipole Moment: [D]
     X:     0.0315      Y:    -0.0614      Z:    -0.0569     Total:     0.0894

*** tstop() called on ds3 at Tue Apr 28 09:01:12 2020
Module time:
	user time   =      18.43 seconds =       0.31 minutes
	system time =       7.15 seconds =       0.12 minutes
	total time  =         25 seconds =       0.42 minutes
Total time:
	user time   =      18.43 seconds =       0.31 minutes
	system time =       7.15 seconds =       0.12 minutes
	total time  =         25 seconds =       0.42 minutes
                                     G D M A

                                 by Anthony Stone

                           version 2.2.06, 22 June 2011

               Distributed Multipoles from Gaussian wavefunctions

Starting at 9:1:12 on 28 Apr 2020

Using SCF density matrix from file ./SSI/SSI-039PRO-166ILE-1-dimer.test.25165.fchk

                         Distributed Multipole Analysis

Standard DMA

Positions and radii in angstrom
Multipole moments in atomic units, ea_0^k for rank k

C          x = -0.021003  y =  1.440926  z = -0.363666 angstrom
           Maximum rank =  0   Radius =  0.650 angstrom
                   Q00  =  -0.087557

C          x =  0.009997  y =  1.181926  z =  1.180334 angstrom
           Maximum rank =  0   Radius =  0.650 angstrom
                   Q00  =  -0.229134

C          x = -1.170003  y =  2.421926  z = -0.475666 angstrom
           Maximum rank =  0   Radius =  0.650 angstrom
                   Q00  =  -0.244487

H          x = -0.253003  y =  0.511926  z = -0.874666 angstrom
           Maximum rank =  0   Radius =  0.325 angstrom
                   Q00  =   0.059752

H          x =  0.876997  y =  1.878926  z = -0.798666 angstrom
           Maximum rank =  0   Radius =  0.325 angstrom
                   Q00  =   0.061969

H          x = -0.709003  y =  0.407926  z =  1.463334 angstrom
           Maximum rank =  0   Radius =  0.325 angstrom
                   Q00  =   0.085256

H          x =  0.999997  y =  0.884926  z =  1.511334 angstrom
           Maximum rank =  0   Radius =  0.325 angstrom
                   Q00  =   0.085438

H          x = -1.188003  y =  2.994926  z = -1.400666 angstrom
           Maximum rank =  0   Radius =  0.325 angstrom
                   Q00  =   0.079688

H          x = -0.283133  y =  2.141386  z =  1.631464 angstrom
           Maximum rank =  0   Radius =  0.325 angstrom
                   Q00  =   0.056810

H          x = -0.993143  y =  3.078086  z =  0.389304 angstrom
           Maximum rank =  0   Radius =  0.325 angstrom
                   Q00  =   0.058136

H          x = -2.127923  y =  1.889426  z = -0.381696 angstrom
           Maximum rank =  0   Radius =  0.325 angstrom
                   Q00  =   0.074789

C          x = -0.131003  y = -2.256074  z = -0.007666 angstrom
           Maximum rank =  0   Radius =  0.650 angstrom
                   Q00  =  -0.243514

C          x =  1.317997  y = -2.698074  z = -0.364666 angstrom
           Maximum rank =  0   Radius =  0.650 angstrom
                   Q00  =  -0.250731

H          x = -0.118003  y = -1.625074  z =  0.879334 angstrom
           Maximum rank =  0   Radius =  0.325 angstrom
                   Q00  =   0.086699

H          x = -0.565003  y = -1.699074  z = -0.837666 angstrom
           Maximum rank =  0   Radius =  0.325 angstrom
                   Q00  =   0.081486

H          x = -0.750003  y = -3.132074  z =  0.188334 angstrom
           Maximum rank =  0   Radius =  0.325 angstrom
                   Q00  =   0.081349

H          x =  1.926997  y = -1.816074  z = -0.573666 angstrom
           Maximum rank =  0   Radius =  0.325 angstrom
                   Q00  =   0.080827

H          x =  1.297997  y = -3.326074  z = -1.257666 angstrom
           Maximum rank =  0   Radius =  0.325 angstrom
                   Q00  =   0.080133

H          x =  1.813987  y = -3.268284  z =  0.434624 angstrom
           Maximum rank =  0   Radius =  0.325 angstrom
                   Q00  =   0.083090

Total multipoles referred to origin at
           x =   0.000000,  y =    0.000000,  z =    0.000000 angstrom
                   Q00  =  -0.000000

Finished at 9:1:12 on 28 Apr 2020

  DMA results are available in the Python driver through the
	  variable('DMA DISTRIBUTED MULTIPOLES')
  and
	  variable('DMA TOTAL MULTIPOLES')
  commands.

    Psi4 stopped on: Tuesday, 28 April 2020 09:01AM
    Psi4 wall time for execution: 0:00:25.10

*** Psi4 exiting successfully. Buy a developer a beer!
