                               Psi4 1.3.2 release

  ==> Input File <==

--------------------------------------------------------------------------
import numpy as np
set {scf_type pk
basis cc-pvdz
d_convergence 10
gdma_switch   0
gdma_limit    0
gdma_origin   [ 0.0,  0.0,  0.0 ]
}
molecule test {
    units Angstrom
    -1 1
    --
    -1 1
    C                0.651818045211506     0.634441763168785    -1.851086853605523
    C               -0.748181954788494     0.945441763168785    -2.365086853605523
    C                1.222818045211506     1.760441763168785    -1.005086853605524
    O                2.458818045211506     1.758441763168785    -0.774086853605524
    O                0.445818045211506     2.645441763168784    -0.563086853605524
    H                0.585818045211506    -0.263558236831215    -1.237086853605524
    H                1.322818045211506     0.393441763168785    -2.675086853605523
    H               -1.387181954788494     1.289441763168784    -1.550086853605524
    H               -1.172181954788494     0.002441763168785    -2.712086853605523
    H               -0.778351954788494     1.650931763168785    -3.208515353605524
    C               -3.038181954788493    -0.861558236831215     0.810913146394476
    C               -0.751181954788494    -0.104558236831215     1.506913146394476
    C               -1.559181954788494    -1.080558236831215     0.924913146394476
    C                0.620818045211506    -0.319558236831215     1.668913146394476
    C               -0.993181954788494    -2.278558236831216     0.496913146394476
    C                1.197818045211506    -1.529558236831215     1.237913146394476
    C                0.377818045211506    -2.512558236831216     0.644913146394476
    H               -1.186181954788494     0.826441763168785     1.841913146394476
    H                1.239818045211506     0.445441763168785     2.119913146394477
    H               -3.456181954788494    -1.563558236831215     0.090913146394476
    H               -3.211181954788494     0.144441763168785     0.428913146394476
    H               -1.614181954788494    -3.038558236831216     0.045913146394476
    H                2.259818045211507    -1.699558236831215     1.355913146394476
    H                0.809818045211506    -3.442558236831216     0.303913146394476
    H               -3.566761954788493    -0.976778236831215     1.768687146394476

}
e, wfn = energy('scf', return_wfn=True)
gdma(wfn)
dmavals = variable('DMA DISTRIBUTED MULTIPOLES')
charges = np.array(dmavals)
print(charges)
np.save('SSI-118GLU-173PHE-1-dimer.npy', np.array(charges))--------------------------------------------------------------------------

*** tstart() called on ds3
*** at Sun Apr 26 20:16:04 2020

   => Loading Basis Set <=

    Name: CC-PVDZ
    Role: ORBITAL
    Keyword: BASIS
    atoms 1-3, 11-17  entry C          line   138 file /theoryfs2/ds/metcalf/miniconda2/envs/tf2gpu/share/psi4/basis/cc-pvdz.gbs
    atoms 4-5         entry O          line   198 file /theoryfs2/ds/metcalf/miniconda2/envs/tf2gpu/share/psi4/basis/cc-pvdz.gbs
    atoms 6-10, 18-25 entry H          line    22 file /theoryfs2/ds/metcalf/miniconda2/envs/tf2gpu/share/psi4/basis/cc-pvdz.gbs

         ---------------------------------------------------------
                                   SCF
               by Justin Turney, Rob Parrish, Andy Simmonett
                          and Daniel G. A. Smith
                              RHF Reference
                        1 Threads,    500 MiB Core
         ---------------------------------------------------------

  ==> Geometry <==

    Molecular point group: c1
    Full point group: C1

    Geometry (in Angstrom), charge = -1, multiplicity = 1:

       Center              X                  Y                   Z               Mass
    ------------   -----------------  -----------------  -----------------  -----------------
         C            0.651818045212     0.634441763169    -1.851086853606    12.000000000000
         C           -0.748181954788     0.945441763169    -2.365086853606    12.000000000000
         C            1.222818045212     1.760441763169    -1.005086853606    12.000000000000
         O            2.458818045212     1.758441763169    -0.774086853606    15.994914619570
         O            0.445818045212     2.645441763169    -0.563086853606    15.994914619570
         H            0.585818045212    -0.263558236831    -1.237086853606     1.007825032230
         H            1.322818045212     0.393441763169    -2.675086853606     1.007825032230
         H           -1.387181954788     1.289441763169    -1.550086853606     1.007825032230
         H           -1.172181954788     0.002441763169    -2.712086853606     1.007825032230
         H           -0.778351954788     1.650931763169    -3.208515353606     1.007825032230
         C           -3.038181954788    -0.861558236831     0.810913146394    12.000000000000
         C           -0.751181954788    -0.104558236831     1.506913146394    12.000000000000
         C           -1.559181954788    -1.080558236831     0.924913146394    12.000000000000
         C            0.620818045212    -0.319558236831     1.668913146394    12.000000000000
         C           -0.993181954788    -2.278558236831     0.496913146394    12.000000000000
         C            1.197818045212    -1.529558236831     1.237913146394    12.000000000000
         C            0.377818045212    -2.512558236831     0.644913146394    12.000000000000
         H           -1.186181954788     0.826441763169     1.841913146394     1.007825032230
         H            1.239818045212     0.445441763169     2.119913146394     1.007825032230
         H           -3.456181954788    -1.563558236831     0.090913146394     1.007825032230
         H           -3.211181954788     0.144441763169     0.428913146394     1.007825032230
         H           -1.614181954788    -3.038558236831     0.045913146394     1.007825032230
         H            2.259818045212    -1.699558236831     1.355913146394     1.007825032230
         H            0.809818045212    -3.442558236831     0.303913146394     1.007825032230
         H           -3.566761954788    -0.976778236831     1.768687146394     1.007825032230

  Running in c1 symmetry.

  Rotational constants: A =      0.04114  B =      0.02074  C =      0.01781 [cm^-1]
  Rotational constants: A =   1233.42329  B =    621.68386  C =    533.99635 [MHz]
  Nuclear repulsion =  672.336134901520268

  Charge       = -1
  Multiplicity = 1
  Electrons    = 90
  Nalpha       = 45
  Nbeta        = 45

  ==> Algorithm <==

  SCF Algorithm Type is PK.
  DIIS enabled.
  MOM disabled.
  Fractional occupation disabled.
  Guess Type is SAD.
  Energy threshold   = 1.00e-06
  Density threshold  = 1.00e-10
  Integral threshold = 0.00e+00

  ==> Primary Basis <==

  Basis Set: CC-PVDZ
    Blend: CC-PVDZ
    Number of shells: 111
    Number of basis function: 233
    Number of Cartesian functions: 245
    Spherical Harmonics?: true
    Max angular momentum: 2

  ==> Pre-Iterations <==

   -------------------------------------------------------
    Irrep   Nso     Nmo     Nalpha   Nbeta   Ndocc  Nsocc
   -------------------------------------------------------
     A        233     233       0       0       0       0
   -------------------------------------------------------
    Total     233     233      45      45      45       0
   -------------------------------------------------------

  ==> Integral Setup <==

  Using integral reordering PK algorithm.
  Sizing the integral batches needed.
  Building batch lookup table.
   Calculation information:
      Number of atoms:                  25
      Number of AO shells:             111
      Number of primitives:            329
      Number of atomic orbitals:       245
      Number of basis functions:       233

      Integral cutoff                 1.00e-12
      Number of threads:                 1

	Batch   1 pq = [       0,    9405] index = [             0,44231715] size =     44231715
	Batch   2 pq = [    9405,   13301] index = [      44231715,88464951] size =     44233236
	Batch   3 pq = [   13301,   16290] index = [      88464951,132690195] size =     44225244
	Batch   4 pq = [   16290,   18810] index = [     132690195,176917455] size =     44227260
	Batch   5 pq = [   18810,   21030] index = [     176917455,221140965] size =     44223510
	Batch   6 pq = [   21030,   23037] index = [     221140965,265363203] size =     44222238
	Batch   7 pq = [   23037,   24883] index = [     265363203,309594286] size =     44231083
	Batch   8 pq = [   24883,   26601] index = [     309594286,353819901] size =     44225615
	Batch   9 pq = [   26601,   27261] index = [     353819901,371594691] size =     17774790
  Task number: 34
  Buffer size: 11059200
  Buffer per thread: 2
  We computed 21562912 shell quartets total.
  Whereas there are 19322436 unique shell quartets.
    11.60 percent of shell quartets recomputed by reordering.

  ==> DiskJK: Disk-Based J/K Matrices <==

    J tasked:                  Yes
    K tasked:                  Yes
    wK tasked:                  No
    Memory [MiB]:              375
    Schwarz Cutoff:          1E-12

    OpenMP threads:              1

  Minimum eigenvalue in the overlap matrix is 3.2552865334E-04.
  Using Symmetric Orthogonalization.

  SCF Guess: Superposition of Atomic Densities via on-the-fly atomic UHF.

  ==> Iterations <==

                        Total Energy        Delta E     RMS |[F,P]|

   @RHF iter SAD:  -534.31706964930424   -5.34317e+02   0.00000e+00
   @RHF iter   1:  -535.67576812377092   -1.35870e+00   3.45268e-03 DIIS
   @RHF iter   2:  -535.95984058497856   -2.84072e-01   1.82796e-03 DIIS
   @RHF iter   3:  -536.03032262973636   -7.04820e-02   3.17974e-04 DIIS
   @RHF iter   4:  -536.03406888129280   -3.74625e-03   1.22739e-04 DIIS
   @RHF iter   5:  -536.03456821746397   -4.99336e-04   1.93345e-05 DIIS
   @RHF iter   6:  -536.03458500625675   -1.67888e-05   6.24367e-06 DIIS
   @RHF iter   7:  -536.03458648970332   -1.48345e-06   2.33298e-06 DIIS
   @RHF iter   8:  -536.03458667588370   -1.86180e-07   6.54915e-07 DIIS
   @RHF iter   9:  -536.03458669968143   -2.37977e-08   2.45133e-07 DIIS
   @RHF iter  10:  -536.03458670450993   -4.82851e-09   8.78834e-08 DIIS
   @RHF iter  11:  -536.03458670553698   -1.02705e-09   4.02628e-08 DIIS
   @RHF iter  12:  -536.03458670574025   -2.03272e-10   2.16961e-08 DIIS
   @RHF iter  13:  -536.03458670580392   -6.36646e-11   7.79343e-09 DIIS
   @RHF iter  14:  -536.03458670580596   -2.04636e-12   2.70447e-09 DIIS
   @RHF iter  15:  -536.03458670580824   -2.27374e-12   1.02560e-09 DIIS
   @RHF iter  16:  -536.03458670580767    5.68434e-13   4.49596e-10 DIIS
   @RHF iter  17:  -536.03458670580721    4.54747e-13   1.97736e-10 DIIS
   @RHF iter  18:  -536.03458670580699    2.27374e-13   6.90418e-11 DIIS
  Energy and wave function converged.

  ==> Post-Iterations <==

    Orbital Energies [Eh]
    ---------------------

    Doubly Occupied:

       1A    -20.258306     2A    -20.251749     3A    -11.134866
       4A    -11.134410     5A    -11.133514     6A    -11.128501
       7A    -11.127492     8A    -11.124759     9A    -11.120091
      10A    -11.109179    11A    -11.062623    12A    -11.043695
      13A     -1.140396    14A     -1.042045    15A     -1.027885
      16A     -0.938150    17A     -0.901203    18A     -0.863737
      19A     -0.828188    20A     -0.715929    21A     -0.695180
      22A     -0.688389    23A     -0.581709    24A     -0.525141
      25A     -0.523053    26A     -0.502242    27A     -0.481917
      28A     -0.473697    29A     -0.457765    30A     -0.450518
      31A     -0.435715    32A     -0.424652    33A     -0.385110
      34A     -0.378182    35A     -0.376884    36A     -0.375439
      37A     -0.348826    38A     -0.346277    39A     -0.321746
      40A     -0.291088    41A     -0.220975    42A     -0.213472
      43A     -0.177753    44A     -0.165530    45A     -0.155652

    Virtual:

      46A      0.241497    47A      0.247591    48A      0.276621
      49A      0.297514    50A      0.323793    51A      0.342394
      52A      0.344311    53A      0.351681    54A      0.362063
      55A      0.382905    56A      0.389683    57A      0.395626
      58A      0.401866    59A      0.432200    60A      0.459789
      61A      0.468992    62A      0.482510    63A      0.504235
      64A      0.555486    65A      0.563586    66A      0.564695
      67A      0.583572    68A      0.600867    69A      0.617145
      70A      0.664854    71A      0.682030    72A      0.702483
      73A      0.712511    74A      0.721485    75A      0.759949
      76A      0.782526    77A      0.788333    78A      0.804329
      79A      0.812838    80A      0.828818    81A      0.842231
      82A      0.846334    83A      0.854083    84A      0.865379
      85A      0.882914    86A      0.886619    87A      0.914028
      88A      0.929605    89A      0.943619    90A      0.957310
      91A      0.964396    92A      0.968924    93A      0.975226
      94A      0.991698    95A      0.997980    96A      1.002996
      97A      1.020765    98A      1.021235    99A      1.024529
     100A      1.039903   101A      1.044755   102A      1.061221
     103A      1.067081   104A      1.078799   105A      1.087500
     106A      1.090983   107A      1.103085   108A      1.107613
     109A      1.142698   110A      1.151511   111A      1.161010
     112A      1.206477   113A      1.234322   114A      1.239854
     115A      1.261119   116A      1.272359   117A      1.296266
     118A      1.305403   119A      1.320195   120A      1.331484
     121A      1.347569   122A      1.353182   123A      1.374907
     124A      1.393869   125A      1.405636   126A      1.409915
     127A      1.417320   128A      1.427207   129A      1.438969
     130A      1.485796   131A      1.514927   132A      1.535268
     133A      1.551894   134A      1.603259   135A      1.615090
     136A      1.617722   137A      1.638273   138A      1.664667
     139A      1.679903   140A      1.687800   141A      1.712969
     142A      1.726504   143A      1.777831   144A      1.794262
     145A      1.831790   146A      1.840135   147A      1.855426
     148A      1.860481   149A      1.878226   150A      1.887812
     151A      1.907005   152A      1.934385   153A      1.957659
     154A      1.959712   155A      1.988312   156A      2.001397
     157A      2.010377   158A      2.017235   159A      2.028454
     160A      2.039265   161A      2.049087   162A      2.052148
     163A      2.064244   164A      2.075493   165A      2.081972
     166A      2.088768   167A      2.107709   168A      2.114734
     169A      2.136405   170A      2.148267   171A      2.156174
     172A      2.169879   173A      2.196209   174A      2.202696
     175A      2.205731   176A      2.222369   177A      2.226853
     178A      2.241732   179A      2.259985   180A      2.261528
     181A      2.279109   182A      2.288343   183A      2.301878
     184A      2.347143   185A      2.376951   186A      2.381477
     187A      2.391490   188A      2.415786   189A      2.421175
     190A      2.437862   191A      2.462200   192A      2.502340
     193A      2.526740   194A      2.556960   195A      2.559198
     196A      2.586615   197A      2.614438   198A      2.621709
     199A      2.636433   200A      2.676825   201A      2.724810
     202A      2.734983   203A      2.776914   204A      2.821144
     205A      2.845311   206A      2.864723   207A      2.870662
     208A      2.889087   209A      2.911891   210A      2.932721
     211A      2.947534   212A      2.968609   213A      3.014827
     214A      3.046610   215A      3.082858   216A      3.101183
     217A      3.103358   218A      3.129944   219A      3.145469
     220A      3.251951   221A      3.254404   222A      3.293162
     223A      3.298157   224A      3.309633   225A      3.367624
     226A      3.393359   227A      3.642238   228A      3.784793
     229A      3.828079   230A      4.047774   231A      4.061285
     232A      4.083065   233A      4.203382

    Final Occupation by Irrep:
              A
    DOCC [    45 ]

  @RHF Final Energy:  -536.03458670580699

   => Energetics <=

    Nuclear Repulsion Energy =            672.3361349015202677
    One-Electron Energy =               -2078.5741838645058124
    Two-Electron Energy =                 870.2034622571784439
    Total Energy =                       -536.0345867058069871

Computation Completed

Properties will be evaluated at   0.000000,   0.000000,   0.000000 [a0]

Properties computed using the SCF density matrix

  Nuclear Dipole Moment: [e a0]
     X:    -9.5052      Y:    -5.8211      Z:    -3.2189

  Electronic Dipole Moment: [e a0]
     X:     7.0179      Y:     2.0487      Z:     4.4814

  Dipole Moment: [e a0]
     X:    -2.4873      Y:    -3.7724      Z:     1.2625     Total:     4.6917

  Dipole Moment: [D]
     X:    -6.3222      Y:    -9.5885      Z:     3.2090     Total:    11.9251

*** tstop() called on ds3 at Sun Apr 26 20:19:50 2020
Module time:
	user time   =     165.18 seconds =       2.75 minutes
	system time =      53.98 seconds =       0.90 minutes
	total time  =        226 seconds =       3.77 minutes
Total time:
	user time   =     165.18 seconds =       2.75 minutes
	system time =      53.98 seconds =       0.90 minutes
	total time  =        226 seconds =       3.77 minutes
                                     G D M A

                                 by Anthony Stone

                           version 2.2.06, 22 June 2011

               Distributed Multipoles from Gaussian wavefunctions

Starting at 20:19:50 on 26 Apr 2020

Using SCF density matrix from file ./SSI/SSI-118GLU-173PHE-1-dimer.test.23173.fchk

                         Distributed Multipole Analysis

Standard DMA

Positions and radii in angstrom
Multipole moments in atomic units, ea_0^k for rank k

C          x =  0.651818  y =  0.634442  z = -1.851087 angstrom
           Maximum rank =  0   Radius =  0.650 angstrom
                   Q00  =  -0.151994

C          x = -0.748182  y =  0.945442  z = -2.365087 angstrom
           Maximum rank =  0   Radius =  0.650 angstrom
                   Q00  =  -0.226862

C          x =  1.222818  y =  1.760442  z = -1.005087 angstrom
           Maximum rank =  0   Radius =  0.650 angstrom
                   Q00  =   1.012550

O          x =  2.458818  y =  1.758442  z = -0.774087 angstrom
           Maximum rank =  0   Radius =  0.650 angstrom
                   Q00  =  -0.942251

O          x =  0.445818  y =  2.645442  z = -0.563087 angstrom
           Maximum rank =  0   Radius =  0.650 angstrom
                   Q00  =  -0.967279

H          x =  0.585818  y = -0.263558  z = -1.237087 angstrom
           Maximum rank =  0   Radius =  0.325 angstrom
                   Q00  =   0.072617

H          x =  1.322818  y =  0.393442  z = -2.675087 angstrom
           Maximum rank =  0   Radius =  0.325 angstrom
                   Q00  =   0.032372

H          x = -1.387182  y =  1.289442  z = -1.550087 angstrom
           Maximum rank =  0   Radius =  0.325 angstrom
                   Q00  =   0.095194

H          x = -1.172182  y =  0.002442  z = -2.712087 angstrom
           Maximum rank =  0   Radius =  0.325 angstrom
                   Q00  =   0.010679

H          x = -0.778352  y =  1.650932  z = -3.208515 angstrom
           Maximum rank =  0   Radius =  0.325 angstrom
                   Q00  =   0.057702

C          x = -3.038182  y = -0.861558  z =  0.810913 angstrom
           Maximum rank =  0   Radius =  0.650 angstrom
                   Q00  =  -0.199133

C          x = -0.751182  y = -0.104558  z =  1.506913 angstrom
           Maximum rank =  0   Radius =  0.650 angstrom
                   Q00  =   0.010165

C          x = -1.559182  y = -1.080558  z =  0.924913 angstrom
           Maximum rank =  0   Radius =  0.650 angstrom
                   Q00  =  -0.099769

C          x =  0.620818  y = -0.319558  z =  1.668913 angstrom
           Maximum rank =  0   Radius =  0.650 angstrom
                   Q00  =  -0.043505

C          x = -0.993182  y = -2.278558  z =  0.496913 angstrom
           Maximum rank =  0   Radius =  0.650 angstrom
                   Q00  =  -0.059526

C          x =  1.197818  y = -1.529558  z =  1.237913 angstrom
           Maximum rank =  0   Radius =  0.650 angstrom
                   Q00  =  -0.073674

C          x =  0.377818  y = -2.512558  z =  0.644913 angstrom
           Maximum rank =  0   Radius =  0.650 angstrom
                   Q00  =  -0.090940

H          x = -1.186182  y =  0.826442  z =  1.841913 angstrom
           Maximum rank =  0   Radius =  0.325 angstrom
                   Q00  =   0.058809

H          x =  1.239818  y =  0.445442  z =  2.119913 angstrom
           Maximum rank =  0   Radius =  0.325 angstrom
                   Q00  =   0.086459

H          x = -3.456182  y = -1.563558  z =  0.090913 angstrom
           Maximum rank =  0   Radius =  0.325 angstrom
                   Q00  =   0.084919

H          x = -3.211182  y =  0.144442  z =  0.428913 angstrom
           Maximum rank =  0   Radius =  0.325 angstrom
                   Q00  =   0.108504

H          x = -1.614182  y = -3.038558  z =  0.045913 angstrom
           Maximum rank =  0   Radius =  0.325 angstrom
                   Q00  =   0.035864

H          x =  2.259818  y = -1.699558  z =  1.355913 angstrom
           Maximum rank =  0   Radius =  0.325 angstrom
                   Q00  =   0.060614

H          x =  0.809818  y = -3.442558  z =  0.303913 angstrom
           Maximum rank =  0   Radius =  0.325 angstrom
                   Q00  =   0.046064

H          x = -3.566762  y = -0.976778  z =  1.768687 angstrom
           Maximum rank =  0   Radius =  0.325 angstrom
                   Q00  =   0.082420

Total multipoles referred to origin at
           x =   0.000000,  y =    0.000000,  z =    0.000000 angstrom
                   Q00  =  -1.000000

Finished at 20:19:51 on 26 Apr 2020

  DMA results are available in the Python driver through the
	  variable('DMA DISTRIBUTED MULTIPOLES')
  and
	  variable('DMA TOTAL MULTIPOLES')
  commands.

    Psi4 stopped on: Sunday, 26 April 2020 08:19PM
    Psi4 wall time for execution: 0:03:46.77

*** Psi4 exiting successfully. Buy a developer a beer!
