                               Psi4 1.3.2 release

  ==> Input File <==

--------------------------------------------------------------------------
import numpy as np
set {scf_type pk
basis cc-pvdz
d_convergence 10
gdma_switch   0
gdma_limit    0
gdma_origin   [ 0.0,  0.0,  0.0 ]
}
molecule test {
    units Angstrom
    0 1
    --
    0 1
    C                0.000631773747706    -0.147380370743663    -1.740602158853944
    C                1.166631773747706     0.158619629256337    -2.672602158853944
    H               -0.397368226252294     0.774619629256337    -1.318602158853944
    H               -0.787368226252294    -0.652380370743663    -2.299602158853943
    H                0.324631773747706    -0.805380370743663    -0.936602158853943
    H                1.635631773747706    -0.781380370743663    -2.971602158853944
    H                1.908501773747706     0.787559629256337    -2.158732158853943
    H                0.799801773747706     0.667549629256337    -3.576162158853943
    C               -0.927368226252294    -0.617380370743663     1.905397841146056
    C               -0.243368226252294     0.607619629256337     2.516397841146056
    H               -1.471368226252294    -1.162380370743663     2.676397841146056
    H               -1.624368226252294    -0.297380370743663     1.130397841146056
    H               -0.180368226252294    -1.272380370743663     1.456397841146056
    H                0.276631773747706     1.107619629256337     1.705397841146056
    H                0.491581773747706     0.261039629256337     3.257837841146056
    H               -0.934588226252294     1.355289629256337     2.932577841146057

}
e, wfn = energy('scf', return_wfn=True)
gdma(wfn)
dmavals = variable('DMA DISTRIBUTED MULTIPOLES')
charges = np.array(dmavals)
print(charges)
np.save('SSI-205THR-209LEU-1-dimer.npy', np.array(charges))--------------------------------------------------------------------------

*** tstart() called on ds3
*** at Mon Apr 27 20:08:57 2020

   => Loading Basis Set <=

    Name: CC-PVDZ
    Role: ORBITAL
    Keyword: BASIS
    atoms 1-2, 9-10  entry C          line   138 file /theoryfs2/ds/metcalf/miniconda2/envs/tf2gpu/share/psi4/basis/cc-pvdz.gbs
    atoms 3-8, 11-16 entry H          line    22 file /theoryfs2/ds/metcalf/miniconda2/envs/tf2gpu/share/psi4/basis/cc-pvdz.gbs

         ---------------------------------------------------------
                                   SCF
               by Justin Turney, Rob Parrish, Andy Simmonett
                          and Daniel G. A. Smith
                              RHF Reference
                        1 Threads,    500 MiB Core
         ---------------------------------------------------------

  ==> Geometry <==

    Molecular point group: c1
    Full point group: C1

    Geometry (in Angstrom), charge = 0, multiplicity = 1:

       Center              X                  Y                   Z               Mass
    ------------   -----------------  -----------------  -----------------  -----------------
         C            0.000631773748    -0.147380370744    -1.740602158854    12.000000000000
         C            1.166631773748     0.158619629256    -2.672602158854    12.000000000000
         H           -0.397368226252     0.774619629256    -1.318602158854     1.007825032230
         H           -0.787368226252    -0.652380370744    -2.299602158854     1.007825032230
         H            0.324631773748    -0.805380370744    -0.936602158854     1.007825032230
         H            1.635631773748    -0.781380370744    -2.971602158854     1.007825032230
         H            1.908501773748     0.787559629256    -2.158732158854     1.007825032230
         H            0.799801773748     0.667549629256    -3.576162158854     1.007825032230
         C           -0.927368226252    -0.617380370744     1.905397841146    12.000000000000
         C           -0.243368226252     0.607619629256     2.516397841146    12.000000000000
         H           -1.471368226252    -1.162380370744     2.676397841146     1.007825032230
         H           -1.624368226252    -0.297380370744     1.130397841146     1.007825032230
         H           -0.180368226252    -1.272380370744     1.456397841146     1.007825032230
         H            0.276631773748     1.107619629256     1.705397841146     1.007825032230
         H            0.491581773748     0.261039629256     3.257837841146     1.007825032230
         H           -0.934588226252     1.355289629256     2.932577841146     1.007825032230

  Running in c1 symmetry.

  Rotational constants: A =      0.45473  B =      0.04945  C =      0.04668 [cm^-1]
  Rotational constants: A =  13632.37038  B =   1482.61988  C =   1399.42701 [MHz]
  Nuclear repulsion =  122.180713051120023

  Charge       = 0
  Multiplicity = 1
  Electrons    = 36
  Nalpha       = 18
  Nbeta        = 18

  ==> Algorithm <==

  SCF Algorithm Type is PK.
  DIIS enabled.
  MOM disabled.
  Fractional occupation disabled.
  Guess Type is SAD.
  Energy threshold   = 1.00e-06
  Density threshold  = 1.00e-10
  Integral threshold = 0.00e+00

  ==> Primary Basis <==

  Basis Set: CC-PVDZ
    Blend: CC-PVDZ
    Number of shells: 60
    Number of basis function: 116
    Number of Cartesian functions: 120
    Spherical Harmonics?: true
    Max angular momentum: 2

  ==> Pre-Iterations <==

   -------------------------------------------------------
    Irrep   Nso     Nmo     Nalpha   Nbeta   Ndocc  Nsocc
   -------------------------------------------------------
     A        116     116       0       0       0       0
   -------------------------------------------------------
    Total     116     116      18      18      18       0
   -------------------------------------------------------

  ==> Integral Setup <==

  Using integral reordering PK algorithm.
  Sizing the integral batches needed.
  Building batch lookup table.
   Calculation information:
      Number of atoms:                  16
      Number of AO shells:              60
      Number of primitives:            148
      Number of atomic orbitals:       120
      Number of basis functions:       116

      Integral cutoff                 1.00e-12
      Number of threads:                 1

	Batch   1 pq = [       0,    6786] index = [             0,23028291] size =     23028291
  Task number: 3
  Buffer size: 11059200
  Buffer per thread: 2
  We computed 1439240 shell quartets total.
  Whereas there are 1675365 unique shell quartets.

  ==> DiskJK: Disk-Based J/K Matrices <==

    J tasked:                  Yes
    K tasked:                  Yes
    wK tasked:                  No
    Memory [MiB]:              375
    Schwarz Cutoff:          1E-12

    OpenMP threads:              1

  Minimum eigenvalue in the overlap matrix is 7.1534492173E-03.
  Using Symmetric Orthogonalization.

  SCF Guess: Superposition of Atomic Densities via on-the-fly atomic UHF.

  ==> Iterations <==

                        Total Energy        Delta E     RMS |[F,P]|

   @RHF iter SAD:  -157.35273581726437   -1.57353e+02   0.00000e+00
   @RHF iter   1:  -158.30622182956114   -9.53486e-01   4.22262e-03 DIIS
   @RHF iter   2:  -158.44005207200689   -1.33830e-01   1.80397e-03 DIIS
   @RHF iter   3:  -158.46364357130309   -2.35915e-02   3.49926e-04 DIIS
   @RHF iter   4:  -158.46547685738213   -1.83329e-03   3.87208e-05 DIIS
   @RHF iter   5:  -158.46550043073427   -2.35734e-05   6.47743e-06 DIIS
   @RHF iter   6:  -158.46550106328260   -6.32548e-07   1.00236e-06 DIIS
   @RHF iter   7:  -158.46550107394961   -1.06670e-08   3.15042e-07 DIIS
   @RHF iter   8:  -158.46550107486047   -9.10859e-10   4.73981e-08 DIIS
   @RHF iter   9:  -158.46550107490083   -4.03588e-11   9.49674e-09 DIIS
   @RHF iter  10:  -158.46550107490253   -1.70530e-12   2.58971e-09 DIIS
   @RHF iter  11:  -158.46550107490265   -1.13687e-13   7.08239e-10 DIIS
   @RHF iter  12:  -158.46550107490276   -1.13687e-13   1.55390e-10 DIIS
   @RHF iter  13:  -158.46550107490256    1.98952e-13   2.73588e-11 DIIS
  Energy and wave function converged.

  ==> Post-Iterations <==

    Orbital Energies [Eh]
    ---------------------

    Doubly Occupied:

       1A    -11.219335     2A    -11.218440     3A    -11.216506
       4A    -11.216254     5A     -1.020361     6A     -1.017421
       7A     -0.838011     8A     -0.834354     9A     -0.602417
      10A     -0.601004    11A     -0.598453    12A     -0.592661
      13A     -0.504318    14A     -0.499251    15A     -0.487108
      16A     -0.486043    17A     -0.485110    18A     -0.479151

    Virtual:

      19A      0.168889    20A      0.198694    21A      0.224813
      22A      0.230881    23A      0.242766    24A      0.256608
      25A      0.263437    26A      0.274411    27A      0.278630
      28A      0.292158    29A      0.311932    30A      0.348794
      31A      0.394459    32A      0.407042    33A      0.570877
      34A      0.591001    35A      0.596809    36A      0.600232
      37A      0.612575    38A      0.626783    39A      0.675157
      40A      0.687121    41A      0.695350    42A      0.779462
      43A      0.843685    44A      0.861193    45A      0.884921
      46A      0.886920    47A      0.891796    48A      0.896088
      49A      0.901496    50A      0.907030    51A      0.917443
      52A      0.918611    53A      0.937709    54A      0.961863
      55A      0.974998    56A      0.989028    57A      1.123309
      58A      1.125953    59A      1.133493    60A      1.143882
      61A      1.225312    62A      1.257198    63A      1.455946
      64A      1.476743    65A      1.481542    66A      1.497033
      67A      1.571488    68A      1.581174    69A      1.679012
      70A      1.682026    71A      1.692707    72A      1.701237
      73A      1.853077    74A      1.857169    75A      1.859992
      76A      1.879750    77A      1.888272    78A      1.918769
      79A      1.928625    80A      1.941516    81A      1.944809
      82A      1.948112    83A      1.952074    84A      1.959806
      85A      1.964218    86A      1.967619    87A      1.982947
      88A      2.031303    89A      2.086497    90A      2.115991
      91A      2.122165    92A      2.136924    93A      2.293412
      94A      2.300790    95A      2.312069    96A      2.318266
      97A      2.442457    98A      2.450179    99A      2.469585
     100A      2.472513   101A      2.549906   102A      2.568639
     103A      2.574528   104A      2.588618   105A      2.758763
     106A      2.761552   107A      2.791347   108A      2.797894
     109A      2.841214   110A      2.850169   111A      2.854506
     112A      2.865861   113A      2.943181   114A      2.946867
     115A      2.959025   116A      2.977924

    Final Occupation by Irrep:
              A
    DOCC [    18 ]

  @RHF Final Energy:  -158.46550107490256

   => Energetics <=

    Nuclear Repulsion Energy =            122.1807130511200228
    One-Electron Energy =                -453.4600335703889868
    Two-Electron Energy =                 172.8138194443663735
    Total Energy =                       -158.4655010749025621

Computation Completed

Properties will be evaluated at   0.000000,   0.000000,   0.000000 [a0]

Properties computed using the SCF density matrix

  Nuclear Dipole Moment: [e a0]
     X:     0.0388      Y:    -0.0165      Z:    -0.0959

  Electronic Dipole Moment: [e a0]
     X:    -0.0437      Y:     0.0059      Z:     0.0780

  Dipole Moment: [e a0]
     X:    -0.0050      Y:    -0.0106      Z:    -0.0179     Total:     0.0214

  Dipole Moment: [D]
     X:    -0.0126      Y:    -0.0270      Z:    -0.0455     Total:     0.0545

*** tstop() called on ds3 at Mon Apr 27 20:09:07 2020
Module time:
	user time   =       7.17 seconds =       0.12 minutes
	system time =       2.76 seconds =       0.05 minutes
	total time  =         10 seconds =       0.17 minutes
Total time:
	user time   =       7.17 seconds =       0.12 minutes
	system time =       2.76 seconds =       0.05 minutes
	total time  =         10 seconds =       0.17 minutes
                                     G D M A

                                 by Anthony Stone

                           version 2.2.06, 22 June 2011

               Distributed Multipoles from Gaussian wavefunctions

Starting at 20:9:7 on 27 Apr 2020

Using SCF density matrix from file ./SSI/SSI-205THR-209LEU-1-dimer.test.13569.fchk

                         Distributed Multipole Analysis

Standard DMA

Positions and radii in angstrom
Multipole moments in atomic units, ea_0^k for rank k

C          x =  0.000632  y = -0.147380  z = -1.740602 angstrom
           Maximum rank =  0   Radius =  0.650 angstrom
                   Q00  =  -0.242802

C          x =  1.166632  y =  0.158620  z = -2.672602 angstrom
           Maximum rank =  0   Radius =  0.650 angstrom
                   Q00  =  -0.228405

H          x = -0.397368  y =  0.774620  z = -1.318602 angstrom
           Maximum rank =  0   Radius =  0.325 angstrom
                   Q00  =   0.077795

H          x = -0.787368  y = -0.652380  z = -2.299602 angstrom
           Maximum rank =  0   Radius =  0.325 angstrom
                   Q00  =   0.078169

H          x =  0.324632  y = -0.805380  z = -0.936602 angstrom
           Maximum rank =  0   Radius =  0.325 angstrom
                   Q00  =   0.080381

H          x =  1.635632  y = -0.781380  z = -2.971602 angstrom
           Maximum rank =  0   Radius =  0.325 angstrom
                   Q00  =   0.078157

H          x =  1.908502  y =  0.787560  z = -2.158732 angstrom
           Maximum rank =  0   Radius =  0.325 angstrom
                   Q00  =   0.078349

H          x =  0.799802  y =  0.667550  z = -3.576162 angstrom
           Maximum rank =  0   Radius =  0.325 angstrom
                   Q00  =   0.078189

C          x = -0.927368  y = -0.617380  z =  1.905398 angstrom
           Maximum rank =  0   Radius =  0.650 angstrom
                   Q00  =  -0.234809

C          x = -0.243368  y =  0.607620  z =  2.516398 angstrom
           Maximum rank =  0   Radius =  0.650 angstrom
                   Q00  =  -0.238492

H          x = -1.471368  y = -1.162380  z =  2.676398 angstrom
           Maximum rank =  0   Radius =  0.325 angstrom
                   Q00  =   0.077372

H          x = -1.624368  y = -0.297380  z =  1.130398 angstrom
           Maximum rank =  0   Radius =  0.325 angstrom
                   Q00  =   0.080336

H          x = -0.180368  y = -1.272380  z =  1.456398 angstrom
           Maximum rank =  0   Radius =  0.325 angstrom
                   Q00  =   0.080555

H          x =  0.276632  y =  1.107620  z =  1.705398 angstrom
           Maximum rank =  0   Radius =  0.325 angstrom
                   Q00  =   0.074580

H          x =  0.491582  y =  0.261040  z =  3.257838 angstrom
           Maximum rank =  0   Radius =  0.325 angstrom
                   Q00  =   0.077823

H          x = -0.934588  y =  1.355290  z =  2.932578 angstrom
           Maximum rank =  0   Radius =  0.325 angstrom
                   Q00  =   0.082802

Total multipoles referred to origin at
           x =   0.000000,  y =    0.000000,  z =    0.000000 angstrom
                   Q00  =  -0.000000

Finished at 20:9:7 on 27 Apr 2020

  DMA results are available in the Python driver through the
	  variable('DMA DISTRIBUTED MULTIPOLES')
  and
	  variable('DMA TOTAL MULTIPOLES')
  commands.

    Psi4 stopped on: Monday, 27 April 2020 08:09PM
    Psi4 wall time for execution: 0:00:09.81

*** Psi4 exiting successfully. Buy a developer a beer!
