                               Psi4 1.3.2 release

  ==> Input File <==

--------------------------------------------------------------------------
import numpy as np
set {scf_type pk
basis cc-pvdz
d_convergence 10
gdma_switch   0
gdma_limit    0
gdma_origin   [ 0.0,  0.0,  0.0 ]
}
molecule test {
    units Angstrom
    0 1
    --
    0 1
    C                0.227969310039773     2.423609397771052     0.902290644733601
    C               -0.770030689960227    -1.061390602228947     1.016290644733601
    C               -0.434030689960227     1.093609397771053     0.721290644733601
    C               -1.477030689960227     0.719609397771053    -0.066709355266399
    N               -0.016030689960227    -0.040390602228947     1.387290644733601
    N               -1.669030689960227    -0.630390602228947     0.137290644733601
    H               -0.646030689960227    -2.085390602228947     1.350290644733601
    H               -2.352030689960227    -1.216390602228947    -0.328709355266399
    H               -2.046030689960227     1.360609397771053    -0.717709355266399
    H                1.032969310039773     2.511609397771053     0.183290644733601
    H                0.686969310039773     2.396609397771053     1.887290644733601
    H               -0.443650689960227     3.292259397771053     0.836135644733601
    C                1.986969310039773    -0.595390602228947    -1.346709355266399
    C                1.791969310039773    -1.737390602228947    -2.344709355266399
    H                1.021969310039773    -0.201390602228947    -1.052709355266399
    H                2.523969310039773    -0.927390602228947    -0.459709355266399
    H                2.562969310039773     0.206609397771053    -1.790709355266399
    H                2.767969310039773    -2.005390602228947    -2.743709355266399
    H                1.149866310039773    -1.420267602228948    -3.179657355266399
    H                1.367631310039773    -2.624772602228947    -1.852276355266399

}
e, wfn = energy('scf', return_wfn=True)
gdma(wfn)
dmavals = variable('DMA DISTRIBUTED MULTIPOLES')
charges = np.array(dmavals)
print(charges)
np.save('SSI-196HIE-249ILE-2-dimer.npy', np.array(charges))--------------------------------------------------------------------------

*** tstart() called on ds3
*** at Tue Apr 28 03:57:38 2020

   => Loading Basis Set <=

    Name: CC-PVDZ
    Role: ORBITAL
    Keyword: BASIS
    atoms 1-4, 13-14  entry C          line   138 file /theoryfs2/ds/metcalf/miniconda2/envs/tf2gpu/share/psi4/basis/cc-pvdz.gbs
    atoms 5-6         entry N          line   168 file /theoryfs2/ds/metcalf/miniconda2/envs/tf2gpu/share/psi4/basis/cc-pvdz.gbs
    atoms 7-12, 15-20 entry H          line    22 file /theoryfs2/ds/metcalf/miniconda2/envs/tf2gpu/share/psi4/basis/cc-pvdz.gbs

         ---------------------------------------------------------
                                   SCF
               by Justin Turney, Rob Parrish, Andy Simmonett
                          and Daniel G. A. Smith
                              RHF Reference
                        1 Threads,    500 MiB Core
         ---------------------------------------------------------

  ==> Geometry <==

    Molecular point group: c1
    Full point group: C1

    Geometry (in Angstrom), charge = 0, multiplicity = 1:

       Center              X                  Y                   Z               Mass
    ------------   -----------------  -----------------  -----------------  -----------------
         C            0.227969310040     2.423609397771     0.902290644734    12.000000000000
         C           -0.770030689960    -1.061390602229     1.016290644734    12.000000000000
         C           -0.434030689960     1.093609397771     0.721290644734    12.000000000000
         C           -1.477030689960     0.719609397771    -0.066709355266    12.000000000000
         N           -0.016030689960    -0.040390602229     1.387290644734    14.003074004430
         N           -1.669030689960    -0.630390602229     0.137290644734    14.003074004430
         H           -0.646030689960    -2.085390602229     1.350290644734     1.007825032230
         H           -2.352030689960    -1.216390602229    -0.328709355266     1.007825032230
         H           -2.046030689960     1.360609397771    -0.717709355266     1.007825032230
         H            1.032969310040     2.511609397771     0.183290644734     1.007825032230
         H            0.686969310040     2.396609397771     1.887290644734     1.007825032230
         H           -0.443650689960     3.292259397771     0.836135644734     1.007825032230
         C            1.986969310040    -0.595390602229    -1.346709355266    12.000000000000
         C            1.791969310040    -1.737390602229    -2.344709355266    12.000000000000
         H            1.021969310040    -0.201390602229    -1.052709355266     1.007825032230
         H            2.523969310040    -0.927390602229    -0.459709355266     1.007825032230
         H            2.562969310040     0.206609397771    -1.790709355266     1.007825032230
         H            2.767969310040    -2.005390602229    -2.743709355266     1.007825032230
         H            1.149866310040    -1.420267602229    -3.179657355266     1.007825032230
         H            1.367631310040    -2.624772602229    -1.852276355266     1.007825032230

  Running in c1 symmetry.

  Rotational constants: A =      0.08213  B =      0.04015  C =      0.03280 [cm^-1]
  Rotational constants: A =   2462.08737  B =   1203.59532  C =    983.44489 [MHz]
  Nuclear repulsion =  366.391364412257929

  Charge       = 0
  Multiplicity = 1
  Electrons    = 62
  Nalpha       = 31
  Nbeta        = 31

  ==> Algorithm <==

  SCF Algorithm Type is PK.
  DIIS enabled.
  MOM disabled.
  Fractional occupation disabled.
  Guess Type is SAD.
  Energy threshold   = 1.00e-06
  Density threshold  = 1.00e-10
  Integral threshold = 0.00e+00

  ==> Primary Basis <==

  Basis Set: CC-PVDZ
    Blend: CC-PVDZ
    Number of shells: 84
    Number of basis function: 172
    Number of Cartesian functions: 180
    Spherical Harmonics?: true
    Max angular momentum: 2

  ==> Pre-Iterations <==

   -------------------------------------------------------
    Irrep   Nso     Nmo     Nalpha   Nbeta   Ndocc  Nsocc
   -------------------------------------------------------
     A        172     172       0       0       0       0
   -------------------------------------------------------
    Total     172     172      31      31      31       0
   -------------------------------------------------------

  ==> Integral Setup <==

  Using integral reordering PK algorithm.
  Sizing the integral batches needed.
  Building batch lookup table.
   Calculation information:
      Number of atoms:                  20
      Number of AO shells:              84
      Number of primitives:            236
      Number of atomic orbitals:       180
      Number of basis functions:       172

      Integral cutoff                 1.00e-12
      Number of threads:                 1

	Batch   1 pq = [       0,    9405] index = [             0,44231715] size =     44231715
	Batch   2 pq = [    9405,   13301] index = [      44231715,88464951] size =     44233236
	Batch   3 pq = [   13301,   14878] index = [      88464951,110684881] size =     22219930
  Task number: 11
  Buffer size: 11059200
  Buffer per thread: 2
  We computed 6059929 shell quartets total.
  Whereas there are 6374235 unique shell quartets.

  ==> DiskJK: Disk-Based J/K Matrices <==

    J tasked:                  Yes
    K tasked:                  Yes
    wK tasked:                  No
    Memory [MiB]:              375
    Schwarz Cutoff:          1E-12

    OpenMP threads:              1

  Minimum eigenvalue in the overlap matrix is 1.1399038573E-03.
  Using Symmetric Orthogonalization.

  SCF Guess: Superposition of Atomic Densities via on-the-fly atomic UHF.

  ==> Iterations <==

                        Total Energy        Delta E     RMS |[F,P]|

   @RHF iter SAD:  -342.25243758101726   -3.42252e+02   0.00000e+00
   @RHF iter   1:  -342.88653013800098   -6.34093e-01   3.35857e-03 DIIS
   @RHF iter   2:  -343.05907053587657   -1.72540e-01   1.68260e-03 DIIS
   @RHF iter   3:  -343.09868035027870   -3.96098e-02   4.32160e-04 DIIS
   @RHF iter   4:  -343.10209495590357   -3.41461e-03   1.81825e-04 DIIS
   @RHF iter   5:  -343.10265507494211   -5.60119e-04   2.64972e-05 DIIS
   @RHF iter   6:  -343.10267551982008   -2.04449e-05   1.12157e-05 DIIS
   @RHF iter   7:  -343.10267878533989   -3.26552e-06   3.96423e-06 DIIS
   @RHF iter   8:  -343.10267948266471   -6.97325e-07   1.58587e-06 DIIS
   @RHF iter   9:  -343.10267963967647   -1.57012e-07   5.57801e-07 DIIS
   @RHF iter  10:  -343.10267965479886   -1.51224e-08   1.70540e-07 DIIS
   @RHF iter  11:  -343.10267965642242   -1.62356e-09   7.72820e-08 DIIS
   @RHF iter  12:  -343.10267965664292   -2.20496e-10   3.07124e-08 DIIS
   @RHF iter  13:  -343.10267965668453   -4.16094e-11   8.60434e-09 DIIS
   @RHF iter  14:  -343.10267965668720   -2.67164e-12   3.04831e-09 DIIS
   @RHF iter  15:  -343.10267965668771   -5.11591e-13   1.24089e-09 DIIS
   @RHF iter  16:  -343.10267965668766    5.68434e-14   3.97277e-10 DIIS
   @RHF iter  17:  -343.10267965668777   -1.13687e-13   1.18577e-10 DIIS
   @RHF iter  18:  -343.10267965668959   -1.81899e-12   4.23159e-11 DIIS
  Energy and wave function converged.

  ==> Post-Iterations <==

    Orbital Energies [Eh]
    ---------------------

    Doubly Occupied:

       1A    -15.621826     2A    -15.527954     3A    -11.292931
       4A    -11.250319     5A    -11.242166     6A    -11.221935
       7A    -11.212179     8A    -11.199325     9A     -1.342767
      10A     -1.154916    11A     -1.031864    12A     -1.007727
      13A     -0.942836    14A     -0.828364    15A     -0.817705
      16A     -0.763447    17A     -0.741766    18A     -0.612011
      19A     -0.611231    20A     -0.598017    21A     -0.586690
      22A     -0.582906    23A     -0.553754    24A     -0.539852
      25A     -0.522369    26A     -0.492160    27A     -0.476325
      28A     -0.473096    29A     -0.410105    30A     -0.377923
      31A     -0.310408

    Virtual:

      32A      0.167503    33A      0.182066    34A      0.195590
      35A      0.207892    36A      0.218940    37A      0.224176
      38A      0.240059    39A      0.258722    40A      0.266565
      41A      0.274548    42A      0.275899    43A      0.292881
      44A      0.315676    45A      0.328028    46A      0.373543
      47A      0.395133    48A      0.410621    49A      0.420782
      50A      0.481489    51A      0.500521    52A      0.585655
      53A      0.592292    54A      0.614864    55A      0.618077
      56A      0.632970    57A      0.645857    58A      0.665523
      59A      0.680217    60A      0.694366    61A      0.723764
      62A      0.751652    63A      0.759086    64A      0.782777
      65A      0.812547    66A      0.829726    67A      0.841909
      68A      0.868850    69A      0.879737    70A      0.897378
      71A      0.898843    72A      0.904357    73A      0.907220
      74A      0.918853    75A      0.925851    76A      0.941315
      77A      0.947712    78A      0.965397    79A      0.979661
      80A      0.985613    81A      1.015413    82A      1.038941
      83A      1.067293    84A      1.094546    85A      1.102197
      86A      1.123601    87A      1.140615    88A      1.154804
      89A      1.176479    90A      1.221629    91A      1.242067
      92A      1.273439    93A      1.304542    94A      1.320345
      95A      1.330888    96A      1.357939    97A      1.430495
      98A      1.450977    99A      1.475375   100A      1.486496
     101A      1.504368   102A      1.513908   103A      1.573448
     104A      1.614438   105A      1.625966   106A      1.652843
     107A      1.688262   108A      1.694465   109A      1.702232
     110A      1.771883   111A      1.779389   112A      1.813150
     113A      1.833102   114A      1.848322   115A      1.886757
     116A      1.890813   117A      1.897262   118A      1.914772
     119A      1.926377   120A      1.937552   121A      1.949047
     122A      1.950406   123A      1.964001   124A      1.969198
     125A      1.995281   126A      1.998189   127A      2.007866
     128A      2.018672   129A      2.047516   130A      2.073517
     131A      2.109315   132A      2.119130   133A      2.149377
     134A      2.156063   135A      2.207634   136A      2.229181
     137A      2.262622   138A      2.306123   139A      2.318203
     140A      2.346438   141A      2.378024   142A      2.381203
     143A      2.431326   144A      2.450990   145A      2.465842
     146A      2.487196   147A      2.492457   148A      2.558817
     149A      2.577896   150A      2.608705   151A      2.621213
     152A      2.685105   153A      2.740760   154A      2.771190
     155A      2.771906   156A      2.791099   157A      2.793587
     158A      2.844581   159A      2.849417   160A      2.865248
     161A      2.873439   162A      2.879939   163A      2.897138
     164A      2.922316   165A      2.968923   166A      2.992443
     167A      3.028220   168A      3.075185   169A      3.167623
     170A      3.234746   171A      3.474856   172A      3.805823

    Final Occupation by Irrep:
              A
    DOCC [    31 ]

  @RHF Final Energy:  -343.10267965668959

   => Energetics <=

    Nuclear Repulsion Energy =            366.3913644122579285
    One-Electron Energy =               -1190.2943429877227572
    Two-Electron Energy =                 480.8002989187752974
    Total Energy =                       -343.1026796566895882

Computation Completed

Properties will be evaluated at   0.000000,   0.000000,   0.000000 [a0]

Properties computed using the SCF density matrix

  Nuclear Dipole Moment: [e a0]
     X:     7.1546      Y:    -0.6667      Z:    -7.3806

  Electronic Dipole Moment: [e a0]
     X:    -8.1921      Y:     0.3097      Z:     6.6891

  Dipole Moment: [e a0]
     X:    -1.0375      Y:    -0.3571      Z:    -0.6915     Total:     1.2970

  Dipole Moment: [D]
     X:    -2.6371      Y:    -0.9076      Z:    -1.7577     Total:     3.2966

*** tstop() called on ds3 at Tue Apr 28 03:59:02 2020
Module time:
	user time   =      45.47 seconds =       0.76 minutes
	system time =      16.59 seconds =       0.28 minutes
	total time  =         84 seconds =       1.40 minutes
Total time:
	user time   =      45.47 seconds =       0.76 minutes
	system time =      16.59 seconds =       0.28 minutes
	total time  =         84 seconds =       1.40 minutes
                                     G D M A

                                 by Anthony Stone

                           version 2.2.06, 22 June 2011

               Distributed Multipoles from Gaussian wavefunctions

Starting at 3:59:2 on 28 Apr 2020

Using SCF density matrix from file ./SSI/SSI-196HIE-249ILE-2-dimer.test.27073.fchk

                         Distributed Multipole Analysis

Standard DMA

Positions and radii in angstrom
Multipole moments in atomic units, ea_0^k for rank k

C          x =  0.227969  y =  2.423609  z =  0.902291 angstrom
           Maximum rank =  0   Radius =  0.650 angstrom
                   Q00  =  -0.200672

C          x = -0.770031  y = -1.061391  z =  1.016291 angstrom
           Maximum rank =  0   Radius =  0.650 angstrom
                   Q00  =   0.471132

C          x = -0.434031  y =  1.093609  z =  0.721291 angstrom
           Maximum rank =  0   Radius =  0.650 angstrom
                   Q00  =   0.231846

C          x = -1.477031  y =  0.719609  z = -0.066709 angstrom
           Maximum rank =  0   Radius =  0.650 angstrom
                   Q00  =  -0.000678

N          x = -0.016031  y = -0.040391  z =  1.387291 angstrom
           Maximum rank =  0   Radius =  0.650 angstrom
                   Q00  =  -0.777863

N          x = -1.669031  y = -0.630391  z =  0.137291 angstrom
           Maximum rank =  0   Radius =  0.650 angstrom
                   Q00  =  -0.482513

H          x = -0.646031  y = -2.085391  z =  1.350291 angstrom
           Maximum rank =  0   Radius =  0.325 angstrom
                   Q00  =   0.124392

H          x = -2.352031  y = -1.216391  z = -0.328709 angstrom
           Maximum rank =  0   Radius =  0.325 angstrom
                   Q00  =   0.220497

H          x = -2.046031  y =  1.360609  z = -0.717709 angstrom
           Maximum rank =  0   Radius =  0.325 angstrom
                   Q00  =   0.099400

H          x =  1.032969  y =  2.511609  z =  0.183291 angstrom
           Maximum rank =  0   Radius =  0.325 angstrom
                   Q00  =   0.106778

H          x =  0.686969  y =  2.396609  z =  1.887291 angstrom
           Maximum rank =  0   Radius =  0.325 angstrom
                   Q00  =   0.120553

H          x = -0.443651  y =  3.292259  z =  0.836136 angstrom
           Maximum rank =  0   Radius =  0.325 angstrom
                   Q00  =   0.096105

C          x =  1.986969  y = -0.595391  z = -1.346709 angstrom
           Maximum rank =  0   Radius =  0.650 angstrom
                   Q00  =  -0.238248

C          x =  1.791969  y = -1.737391  z = -2.344709 angstrom
           Maximum rank =  0   Radius =  0.650 angstrom
                   Q00  =  -0.236823

H          x =  1.021969  y = -0.201391  z = -1.052709 angstrom
           Maximum rank =  0   Radius =  0.325 angstrom
                   Q00  =   0.093335

H          x =  2.523969  y = -0.927391  z = -0.459709 angstrom
           Maximum rank =  0   Radius =  0.325 angstrom
                   Q00  =   0.083802

H          x =  2.562969  y =  0.206609  z = -1.790709 angstrom
           Maximum rank =  0   Radius =  0.325 angstrom
                   Q00  =   0.069804

H          x =  2.767969  y = -2.005391  z = -2.743709 angstrom
           Maximum rank =  0   Radius =  0.325 angstrom
                   Q00  =   0.074846

H          x =  1.149866  y = -1.420268  z = -3.179657 angstrom
           Maximum rank =  0   Radius =  0.325 angstrom
                   Q00  =   0.072956

H          x =  1.367631  y = -2.624773  z = -1.852276 angstrom
           Maximum rank =  0   Radius =  0.325 angstrom
                   Q00  =   0.071351

Total multipoles referred to origin at
           x =   0.000000,  y =    0.000000,  z =    0.000000 angstrom
                   Q00  =  -0.000000

Finished at 3:59:2 on 28 Apr 2020

  DMA results are available in the Python driver through the
	  variable('DMA DISTRIBUTED MULTIPOLES')
  and
	  variable('DMA TOTAL MULTIPOLES')
  commands.

    Psi4 stopped on: Tuesday, 28 April 2020 03:59AM
    Psi4 wall time for execution: 0:01:23.95

*** Psi4 exiting successfully. Buy a developer a beer!
