                               Psi4 1.3.2 release

  ==> Input File <==

--------------------------------------------------------------------------
import numpy as np
set {scf_type pk
basis cc-pvdz
d_convergence 10
gdma_switch   0
gdma_limit    0
gdma_origin   [ 0.0,  0.0,  0.0 ]
}
molecule test {
    units Angstrom
    -1 1
    --
    -1 1
    C               -3.028095004011622    -1.139981760042954     2.502788810397284
    C               -1.890095004011621    -1.061981760042954     1.498788810397285
    O               -0.696095004011621    -1.118981760042954     1.871788810397285
    O               -2.177095004011622    -0.878981760042954     0.295788810397285
    H               -3.657095004011621    -2.005981760042954     2.291788810397285
    H               -3.639095004011621    -0.242981760042954     2.386788810397284
    H               -2.667469004011621    -1.188831760042954     3.540845810397284
    C                3.524904995988379     1.355018239957046    -0.916211189602715
    C                1.371904995988378     0.056018239957046    -0.235211189602715
    C                2.087904995988378     0.923018239957046    -1.001211189602715
    C                0.041904995988379     0.824018239957046    -1.808211189602715
    N                0.098904995988379     0.022018239957046    -0.759211189602715
    N                1.239904995988379     1.373018239957046    -1.995211189602715
    H                1.727904995988379    -0.482981760042954     0.633788810397285
    H               -0.692095004011621    -0.458981760042954    -0.334211189602715
    H                4.020904995988379     0.969018239957046    -1.807211189602715
    H                3.987904995988378     0.896018239957046    -0.042211189602715
    H               -0.844095004011621     1.010018239957046    -2.407211189602716
    H                3.656134995988379     2.446478239957046    -0.877487189602715

}
e, wfn = energy('scf', return_wfn=True)
gdma(wfn)
dmavals = variable('DMA DISTRIBUTED MULTIPOLES')
charges = np.array(dmavals)
print(charges)
np.save('SSI-079ASP-131HIE-1-dimer.npy', np.array(charges))--------------------------------------------------------------------------

*** tstart() called on ds3
*** at Tue Apr 28 08:17:47 2020

   => Loading Basis Set <=

    Name: CC-PVDZ
    Role: ORBITAL
    Keyword: BASIS
    atoms 1-2, 8-11  entry C          line   138 file /theoryfs2/ds/metcalf/miniconda2/envs/tf2gpu/share/psi4/basis/cc-pvdz.gbs
    atoms 3-4        entry O          line   198 file /theoryfs2/ds/metcalf/miniconda2/envs/tf2gpu/share/psi4/basis/cc-pvdz.gbs
    atoms 5-7, 14-19 entry H          line    22 file /theoryfs2/ds/metcalf/miniconda2/envs/tf2gpu/share/psi4/basis/cc-pvdz.gbs
    atoms 12-13      entry N          line   168 file /theoryfs2/ds/metcalf/miniconda2/envs/tf2gpu/share/psi4/basis/cc-pvdz.gbs

         ---------------------------------------------------------
                                   SCF
               by Justin Turney, Rob Parrish, Andy Simmonett
                          and Daniel G. A. Smith
                              RHF Reference
                        1 Threads,    500 MiB Core
         ---------------------------------------------------------

  ==> Geometry <==

    Molecular point group: c1
    Full point group: C1

    Geometry (in Angstrom), charge = -1, multiplicity = 1:

       Center              X                  Y                   Z               Mass
    ------------   -----------------  -----------------  -----------------  -----------------
         C           -3.028095004012    -1.139981760043     2.502788810397    12.000000000000
         C           -1.890095004012    -1.061981760043     1.498788810397    12.000000000000
         O           -0.696095004012    -1.118981760043     1.871788810397    15.994914619570
         O           -2.177095004012    -0.878981760043     0.295788810397    15.994914619570
         H           -3.657095004012    -2.005981760043     2.291788810397     1.007825032230
         H           -3.639095004012    -0.242981760043     2.386788810397     1.007825032230
         H           -2.667469004012    -1.188831760043     3.540845810397     1.007825032230
         C            3.524904995988     1.355018239957    -0.916211189603    12.000000000000
         C            1.371904995988     0.056018239957    -0.235211189603    12.000000000000
         C            2.087904995988     0.923018239957    -1.001211189603    12.000000000000
         C            0.041904995988     0.824018239957    -1.808211189603    12.000000000000
         N            0.098904995988     0.022018239957    -0.759211189603    14.003074004430
         N            1.239904995988     1.373018239957    -1.995211189603    14.003074004430
         H            1.727904995988    -0.482981760043     0.633788810397     1.007825032230
         H           -0.692095004012    -0.458981760043    -0.334211189603     1.007825032230
         H            4.020904995988     0.969018239957    -1.807211189603     1.007825032230
         H            3.987904995988     0.896018239957    -0.042211189603     1.007825032230
         H           -0.844095004012     1.010018239957    -2.407211189603     1.007825032230
         H            3.656134995988     2.446478239957    -0.877487189603     1.007825032230

  Running in c1 symmetry.

  Rotational constants: A =      0.11942  B =      0.01872  C =      0.01660 [cm^-1]
  Rotational constants: A =   3580.13947  B =    561.10280  C =    497.55423 [MHz]
  Nuclear repulsion =  497.443110991782305

  Charge       = -1
  Multiplicity = 1
  Electrons    = 76
  Nalpha       = 38
  Nbeta        = 38

  ==> Algorithm <==

  SCF Algorithm Type is PK.
  DIIS enabled.
  MOM disabled.
  Fractional occupation disabled.
  Guess Type is SAD.
  Energy threshold   = 1.00e-06
  Density threshold  = 1.00e-10
  Integral threshold = 0.00e+00

  ==> Primary Basis <==

  Basis Set: CC-PVDZ
    Blend: CC-PVDZ
    Number of shells: 87
    Number of basis function: 185
    Number of Cartesian functions: 195
    Spherical Harmonics?: true
    Max angular momentum: 2

  ==> Pre-Iterations <==

   -------------------------------------------------------
    Irrep   Nso     Nmo     Nalpha   Nbeta   Ndocc  Nsocc
   -------------------------------------------------------
     A        185     185       0       0       0       0
   -------------------------------------------------------
    Total     185     185      38      38      38       0
   -------------------------------------------------------

  ==> Integral Setup <==

  Using integral reordering PK algorithm.
  Sizing the integral batches needed.
  Building batch lookup table.
   Calculation information:
      Number of atoms:                  19
      Number of AO shells:              87
      Number of primitives:            265
      Number of atomic orbitals:       195
      Number of basis functions:       185

      Integral cutoff                 1.00e-12
      Number of threads:                 1

	Batch   1 pq = [       0,    9405] index = [             0,44231715] size =     44231715
	Batch   2 pq = [    9405,   13301] index = [      44231715,88464951] size =     44233236
	Batch   3 pq = [   13301,   16290] index = [      88464951,132690195] size =     44225244
	Batch   4 pq = [   16290,   17205] index = [     132690195,148014615] size =     15324420
  Task number: 14
  Buffer size: 11059200
  Buffer per thread: 2
  We computed 5466813 shell quartets total.
  Whereas there are 7328706 unique shell quartets.

  ==> DiskJK: Disk-Based J/K Matrices <==

    J tasked:                  Yes
    K tasked:                  Yes
    wK tasked:                  No
    Memory [MiB]:              375
    Schwarz Cutoff:          1E-12

    OpenMP threads:              1

  Minimum eigenvalue in the overlap matrix is 1.1579656514E-03.
  Using Symmetric Orthogonalization.

  SCF Guess: Superposition of Atomic Densities via on-the-fly atomic UHF.

  ==> Iterations <==

                        Total Energy        Delta E     RMS |[F,P]|

   @RHF iter SAD:  -489.84146993192184   -4.89841e+02   0.00000e+00
   @RHF iter   1:  -490.86056161186195   -1.01909e+00   4.08272e-03 DIIS
   @RHF iter   2:  -491.08419731265275   -2.23636e-01   2.26656e-03 DIIS
   @RHF iter   3:  -491.14971412339969   -6.55168e-02   3.85675e-04 DIIS
   @RHF iter   4:  -491.15297535581237   -3.26123e-03   1.47245e-04 DIIS
   @RHF iter   5:  -491.15344319909121   -4.67843e-04   3.22307e-05 DIIS
   @RHF iter   6:  -491.15346845816077   -2.52591e-05   1.41376e-05 DIIS
   @RHF iter   7:  -491.15347391331284   -5.45515e-06   4.02582e-06 DIIS
   @RHF iter   8:  -491.15347499882279   -1.08551e-06   2.10968e-06 DIIS
   @RHF iter   9:  -491.15347529006260   -2.91240e-07   8.13215e-07 DIIS
   @RHF iter  10:  -491.15347533505116   -4.49886e-08   2.12974e-07 DIIS
   @RHF iter  11:  -491.15347533756415   -2.51299e-09   7.25052e-08 DIIS
   @RHF iter  12:  -491.15347533769000   -1.25851e-10   3.37709e-08 DIIS
   @RHF iter  13:  -491.15347533772058   -3.05818e-11   9.76402e-09 DIIS
   @RHF iter  14:  -491.15347533772467   -4.09273e-12   3.98044e-09 DIIS
   @RHF iter  15:  -491.15347533772683   -2.16005e-12   1.44572e-09 DIIS
   @RHF iter  16:  -491.15347533772501    1.81899e-12   6.21474e-10 DIIS
   @RHF iter  17:  -491.15347533772609   -1.08002e-12   2.06695e-10 DIIS
   @RHF iter  18:  -491.15347533772416    1.93268e-12   6.49578e-11 DIIS
  Energy and wave function converged.

  ==> Post-Iterations <==

    Orbital Energies [Eh]
    ---------------------

    Doubly Occupied:

       1A    -20.306356     2A    -20.300573     3A    -15.432419
       4A    -15.378381     5A    -11.157824     6A    -11.136119
       7A    -11.110291     8A    -11.095069     9A    -11.093409
      10A    -11.081831    11A     -1.201170    12A     -1.176630
      13A     -1.079243    14A     -0.991112    15A     -0.889394
      16A     -0.830234    17A     -0.802303    18A     -0.654027
      19A     -0.605667    20A     -0.588423    21A     -0.536196
      22A     -0.467971    23A     -0.461326    24A     -0.448507
      25A     -0.444613    26A     -0.443636    27A     -0.435532
      28A     -0.414047    29A     -0.406964    30A     -0.392279
      31A     -0.375376    32A     -0.345578    33A     -0.268031
      34A     -0.228165    35A     -0.218691    36A     -0.214472
      37A     -0.206695    38A     -0.159744

    Virtual:

      39A      0.311132    40A      0.331187    41A      0.347679
      42A      0.350848    43A      0.353295    44A      0.359642
      45A      0.369263    46A      0.392560    47A      0.411139
      48A      0.421609    49A      0.449032    50A      0.498716
      51A      0.507838    52A      0.542587    53A      0.545183
      54A      0.609481    55A      0.626486    56A      0.634129
      57A      0.699264    58A      0.723727    59A      0.743117
      60A      0.757036    61A      0.767237    62A      0.794608
      63A      0.813128    64A      0.831556    65A      0.839893
      66A      0.857200    67A      0.895545    68A      0.901194
      69A      0.924877    70A      0.927294    71A      0.940968
      72A      0.958950    73A      0.972380    74A      0.988180
      75A      1.002984    76A      1.006031    77A      1.008476
      78A      1.025549    79A      1.037061    80A      1.042229
      81A      1.072577    82A      1.087319    83A      1.097740
      84A      1.122389    85A      1.128763    86A      1.189015
      87A      1.198596    88A      1.229133    89A      1.235669
      90A      1.260799    91A      1.275012    92A      1.286609
      93A      1.307412    94A      1.335407    95A      1.343084
      96A      1.392824    97A      1.427333    98A      1.447644
      99A      1.460077   100A      1.488092   101A      1.504838
     102A      1.520251   103A      1.558778   104A      1.576467
     105A      1.580563   106A      1.599076   107A      1.610736
     108A      1.645316   109A      1.646751   110A      1.684651
     111A      1.708779   112A      1.719900   113A      1.754571
     114A      1.773960   115A      1.796342   116A      1.813405
     117A      1.832098   118A      1.847052   119A      1.902252
     120A      1.935138   121A      1.967362   122A      1.977716
     123A      2.002364   124A      2.028339   125A      2.033365
     126A      2.049520   127A      2.065391   128A      2.068371
     129A      2.076471   130A      2.078322   131A      2.126283
     132A      2.142876   133A      2.158586   134A      2.175851
     135A      2.202194   136A      2.220215   137A      2.249420
     138A      2.257404   139A      2.271743   140A      2.302829
     141A      2.319943   142A      2.348719   143A      2.377333
     144A      2.393944   145A      2.417316   146A      2.473765
     147A      2.493624   148A      2.530059   149A      2.553821
     150A      2.604402   151A      2.615892   152A      2.622757
     153A      2.677991   154A      2.687603   155A      2.750989
     156A      2.758916   157A      2.783389   158A      2.820303
     159A      2.871276   160A      2.886906   161A      2.890262
     162A      2.912625   163A      2.925866   164A      2.940770
     165A      2.960296   166A      2.981549   167A      3.016950
     168A      3.042649   169A      3.060418   170A      3.102213
     171A      3.209050   172A      3.228375   173A      3.255003
     174A      3.291062   175A      3.358698   176A      3.388783
     177A      3.529744   178A      3.609828   179A      3.636250
     180A      3.726090   181A      3.769890   182A      4.004741
     183A      4.042182   184A      4.083165   185A      4.189817

    Final Occupation by Irrep:
              A
    DOCC [    38 ]

  @RHF Final Energy:  -491.15347533772416

   => Energetics <=

    Nuclear Repulsion Energy =            497.4431109917823051
    One-Electron Energy =               -1670.4365750872898388
    Two-Electron Energy =                 681.8399887577834306
    Total Energy =                       -491.1534753377241032

Computation Completed

Properties will be evaluated at   0.000000,   0.000000,   0.000000 [a0]

Properties computed using the SCF density matrix

  Nuclear Dipole Moment: [e a0]
     X:     1.7569      Y:     0.8692      Z:     3.1916

  Electronic Dipole Moment: [e a0]
     X:    -1.1672      Y:    -0.5117      Z:    -3.3352

  Dipole Moment: [e a0]
     X:     0.5898      Y:     0.3575      Z:    -0.1435     Total:     0.7044

  Dipole Moment: [D]
     X:     1.4990      Y:     0.9087      Z:    -0.3648     Total:     1.7905

*** tstop() called on ds3 at Tue Apr 28 08:18:57 2020
Module time:
	user time   =      48.82 seconds =       0.81 minutes
	system time =      23.57 seconds =       0.39 minutes
	total time  =         70 seconds =       1.17 minutes
Total time:
	user time   =      48.82 seconds =       0.81 minutes
	system time =      23.57 seconds =       0.39 minutes
	total time  =         70 seconds =       1.17 minutes
                                     G D M A

                                 by Anthony Stone

                           version 2.2.06, 22 June 2011

               Distributed Multipoles from Gaussian wavefunctions

Starting at 8:18:57 on 28 Apr 2020

Using SCF density matrix from file ./SSI/SSI-079ASP-131HIE-1-dimer.test.12744.fchk

                         Distributed Multipole Analysis

Standard DMA

Positions and radii in angstrom
Multipole moments in atomic units, ea_0^k for rank k

C          x = -3.028095  y = -1.139982  z =  2.502789 angstrom
           Maximum rank =  0   Radius =  0.650 angstrom
                   Q00  =  -0.250432

C          x = -1.890095  y = -1.061982  z =  1.498789 angstrom
           Maximum rank =  0   Radius =  0.650 angstrom
                   Q00  =   0.882043

O          x = -0.696095  y = -1.118982  z =  1.871789 angstrom
           Maximum rank =  0   Radius =  0.650 angstrom
                   Q00  =  -0.900257

O          x = -2.177095  y = -0.878982  z =  0.295789 angstrom
           Maximum rank =  0   Radius =  0.650 angstrom
                   Q00  =  -0.920852

H          x = -3.657095  y = -2.005982  z =  2.291789 angstrom
           Maximum rank =  0   Radius =  0.325 angstrom
                   Q00  =   0.083134

H          x = -3.639095  y = -0.242982  z =  2.386789 angstrom
           Maximum rank =  0   Radius =  0.325 angstrom
                   Q00  =   0.082596

H          x = -2.667469  y = -1.188832  z =  3.540846 angstrom
           Maximum rank =  0   Radius =  0.325 angstrom
                   Q00  =   0.061370

C          x =  3.524905  y =  1.355018  z = -0.916211 angstrom
           Maximum rank =  0   Radius =  0.650 angstrom
                   Q00  =  -0.182634

C          x =  1.371905  y =  0.056018  z = -0.235211 angstrom
           Maximum rank =  0   Radius =  0.650 angstrom
                   Q00  =   0.092658

C          x =  2.087905  y =  0.923018  z = -1.001211 angstrom
           Maximum rank =  0   Radius =  0.650 angstrom
                   Q00  =   0.130595

C          x =  0.041905  y =  0.824018  z = -1.808211 angstrom
           Maximum rank =  0   Radius =  0.650 angstrom
                   Q00  =   0.471497

N          x =  0.098905  y =  0.022018  z = -0.759211 angstrom
           Maximum rank =  0   Radius =  0.650 angstrom
                   Q00  =  -0.517738

N          x =  1.239905  y =  1.373018  z = -1.995211 angstrom
           Maximum rank =  0   Radius =  0.650 angstrom
                   Q00  =  -0.793524

H          x =  1.727905  y = -0.482982  z =  0.633789 angstrom
           Maximum rank =  0   Radius =  0.325 angstrom
                   Q00  =   0.079891

H          x = -0.692095  y = -0.458982  z = -0.334211 angstrom
           Maximum rank =  0   Radius =  0.325 angstrom
                   Q00  =   0.341599

H          x =  4.020905  y =  0.969018  z = -1.807211 angstrom
           Maximum rank =  0   Radius =  0.325 angstrom
                   Q00  =   0.078599

H          x =  3.987905  y =  0.896018  z = -0.042211 angstrom
           Maximum rank =  0   Radius =  0.325 angstrom
                   Q00  =   0.080242

H          x = -0.844095  y =  1.010018  z = -2.407211 angstrom
           Maximum rank =  0   Radius =  0.325 angstrom
                   Q00  =   0.098604

H          x =  3.656135  y =  2.446478  z = -0.877487 angstrom
           Maximum rank =  0   Radius =  0.325 angstrom
                   Q00  =   0.082607

Total multipoles referred to origin at
           x =   0.000000,  y =    0.000000,  z =    0.000000 angstrom
                   Q00  =  -1.000000

Finished at 8:18:57 on 28 Apr 2020

  DMA results are available in the Python driver through the
	  variable('DMA DISTRIBUTED MULTIPOLES')
  and
	  variable('DMA TOTAL MULTIPOLES')
  commands.

    Psi4 stopped on: Tuesday, 28 April 2020 08:18AM
    Psi4 wall time for execution: 0:01:10.18

*** Psi4 exiting successfully. Buy a developer a beer!
