                               Psi4 1.3.2 release

  ==> Input File <==

--------------------------------------------------------------------------
import numpy as np
set {scf_type pk
basis cc-pvdz
d_convergence 10
gdma_switch   0
gdma_limit    0
gdma_origin   [ 0.0,  0.0,  0.0 ]
}
molecule test {
    units Angstrom
    0 1
    --
    0 1
    C                3.500567722871787    -2.106312902052904     2.096697999475762
    C                4.018567722871786    -1.603312902052904     3.442697999475762
    O                4.241567722871786    -1.557312902052904     1.022697999475762
    H                3.572567722871787    -3.195312902052904     2.075697999475762
    H                2.452567722871786    -1.828312902052904     1.979697999475762
    H                4.970567722871787    -2.104312902052905     3.620697999475762
    H                4.152567722871786    -2.163312902052904     0.269697999475762
    H                3.285827722871786    -1.865921112052904     4.219957999475762
    H                4.219157722871786    -0.522877902052904     3.393455999475762
    C                1.220567722871786     0.293687097947096     0.167697999475762
    C                2.090567722871786     1.357687097947096    -0.503302000524238
    C               -0.234432277128214     0.635687097947096     0.184697999475762
    C               -0.906432277128214     1.330687097947096     1.146697999475762
    C               -1.201432277128214     0.303687097947096    -0.819302000524238
    C               -2.449432277128214     0.826687097947096    -0.395302000524238
    C               -1.138432277128214    -0.388312902052904    -2.034302000524238
    C               -3.608432277128213     0.675687097947096    -1.140302000524238
    C               -2.299432277128214    -0.538312902052904    -2.782302000524238
    C               -3.518432277128214    -0.010312902052904    -2.337302000524238
    N               -2.232432277128213     1.446687097947096     0.805697999475762
    H                1.364567722871786    -0.661312902052904    -0.340302000524238
    H                1.541567722871786     0.174687097947096     1.202697999475762
    H                1.913567722871786     1.312687097947096    -1.579302000524238
    H               -0.462432277128214     1.718687097947096     2.058697999475762
    H               -2.933432277128214     1.900687097947096     1.381697999475762
    H               -0.199432277128214    -0.799312902052905    -2.380302000524238
    H               -4.548432277128214     1.083687097947096    -0.795302000524238
    H               -2.263432277128214    -1.071312902052904    -3.724302000524238
    H               -4.407432277128214    -0.143312902052904    -2.943302000524238
    H                3.154445722871786     1.168837097947096    -0.297147000524238
    H                1.781163722871786     2.356413097947095    -0.161519000524238

}
e, wfn = energy('scf', return_wfn=True)
gdma(wfn)
dmavals = variable('DMA DISTRIBUTED MULTIPOLES')
charges = np.array(dmavals)
print(charges)
np.save('SSI-075SER-078TRP-1-dimer.npy', np.array(charges))--------------------------------------------------------------------------

*** tstart() called on ds3
*** at Mon Apr 27 09:09:03 2020

   => Loading Basis Set <=

    Name: CC-PVDZ
    Role: ORBITAL
    Keyword: BASIS
    atoms 1-2, 10-19 entry C          line   138 file /theoryfs2/ds/metcalf/miniconda2/envs/tf2gpu/share/psi4/basis/cc-pvdz.gbs
    atoms 3          entry O          line   198 file /theoryfs2/ds/metcalf/miniconda2/envs/tf2gpu/share/psi4/basis/cc-pvdz.gbs
    atoms 4-9, 21-31 entry H          line    22 file /theoryfs2/ds/metcalf/miniconda2/envs/tf2gpu/share/psi4/basis/cc-pvdz.gbs
    atoms 20         entry N          line   168 file /theoryfs2/ds/metcalf/miniconda2/envs/tf2gpu/share/psi4/basis/cc-pvdz.gbs

         ---------------------------------------------------------
                                   SCF
               by Justin Turney, Rob Parrish, Andy Simmonett
                          and Daniel G. A. Smith
                              RHF Reference
                        1 Threads,    500 MiB Core
         ---------------------------------------------------------

  ==> Geometry <==

    Molecular point group: c1
    Full point group: C1

    Geometry (in Angstrom), charge = 0, multiplicity = 1:

       Center              X                  Y                   Z               Mass
    ------------   -----------------  -----------------  -----------------  -----------------
         C            3.500567722872    -2.106312902053     2.096697999476    12.000000000000
         C            4.018567722872    -1.603312902053     3.442697999476    12.000000000000
         O            4.241567722872    -1.557312902053     1.022697999476    15.994914619570
         H            3.572567722872    -3.195312902053     2.075697999476     1.007825032230
         H            2.452567722872    -1.828312902053     1.979697999476     1.007825032230
         H            4.970567722872    -2.104312902053     3.620697999476     1.007825032230
         H            4.152567722872    -2.163312902053     0.269697999476     1.007825032230
         H            3.285827722872    -1.865921112053     4.219957999476     1.007825032230
         H            4.219157722872    -0.522877902053     3.393455999476     1.007825032230
         C            1.220567722872     0.293687097947     0.167697999476    12.000000000000
         C            2.090567722872     1.357687097947    -0.503302000524    12.000000000000
         C           -0.234432277128     0.635687097947     0.184697999476    12.000000000000
         C           -0.906432277128     1.330687097947     1.146697999476    12.000000000000
         C           -1.201432277128     0.303687097947    -0.819302000524    12.000000000000
         C           -2.449432277128     0.826687097947    -0.395302000524    12.000000000000
         C           -1.138432277128    -0.388312902053    -2.034302000524    12.000000000000
         C           -3.608432277128     0.675687097947    -1.140302000524    12.000000000000
         C           -2.299432277128    -0.538312902053    -2.782302000524    12.000000000000
         C           -3.518432277128    -0.010312902053    -2.337302000524    12.000000000000
         N           -2.232432277128     1.446687097947     0.805697999476    14.003074004430
         H            1.364567722872    -0.661312902053    -0.340302000524     1.007825032230
         H            1.541567722872     0.174687097947     1.202697999476     1.007825032230
         H            1.913567722872     1.312687097947    -1.579302000524     1.007825032230
         H           -0.462432277128     1.718687097947     2.058697999476     1.007825032230
         H           -2.933432277128     1.900687097947     1.381697999476     1.007825032230
         H           -0.199432277128    -0.799312902053    -2.380302000524     1.007825032230
         H           -4.548432277128     1.083687097947    -0.795302000524     1.007825032230
         H           -2.263432277128    -1.071312902053    -3.724302000524     1.007825032230
         H           -4.407432277128    -0.143312902053    -2.943302000524     1.007825032230
         H            3.154445722872     1.168837097947    -0.297147000524     1.007825032230
         H            1.781163722872     2.356413097947    -0.161519000524     1.007825032230

  Running in c1 symmetry.

  Rotational constants: A =      0.04189  B =      0.00852  C =      0.00796 [cm^-1]
  Rotational constants: A =   1255.71450  B =    255.53740  C =    238.49276 [MHz]
  Nuclear repulsion =  827.890692967704467

  Charge       = 0
  Multiplicity = 1
  Electrons    = 104
  Nalpha       = 52
  Nbeta        = 52

  ==> Algorithm <==

  SCF Algorithm Type is PK.
  DIIS enabled.
  MOM disabled.
  Fractional occupation disabled.
  Guess Type is SAD.
  Energy threshold   = 1.00e-06
  Density threshold  = 1.00e-10
  Integral threshold = 0.00e+00

  ==> Primary Basis <==

  Basis Set: CC-PVDZ
    Blend: CC-PVDZ
    Number of shells: 135
    Number of basis function: 281
    Number of Cartesian functions: 295
    Spherical Harmonics?: true
    Max angular momentum: 2

  ==> Pre-Iterations <==

   -------------------------------------------------------
    Irrep   Nso     Nmo     Nalpha   Nbeta   Ndocc  Nsocc
   -------------------------------------------------------
     A        281     281       0       0       0       0
   -------------------------------------------------------
    Total     281     281      52      52      52       0
   -------------------------------------------------------

  ==> Integral Setup <==

  Using integral reordering PK algorithm.
  Sizing the integral batches needed.
  Building batch lookup table.
   Calculation information:
      Number of atoms:                  31
      Number of AO shells:             135
      Number of primitives:            393
      Number of atomic orbitals:       295
      Number of basis functions:       281

      Integral cutoff                 1.00e-12
      Number of threads:                 1

	Batch   1 pq = [       0,    9405] index = [             0,44231715] size =     44231715
	Batch   2 pq = [    9405,   13301] index = [      44231715,88464951] size =     44233236
	Batch   3 pq = [   13301,   16290] index = [      88464951,132690195] size =     44225244
	Batch   4 pq = [   16290,   18810] index = [     132690195,176917455] size =     44227260
	Batch   5 pq = [   18810,   21030] index = [     176917455,221140965] size =     44223510
	Batch   6 pq = [   21030,   23037] index = [     221140965,265363203] size =     44222238
	Batch   7 pq = [   23037,   24883] index = [     265363203,309594286] size =     44231083
	Batch   8 pq = [   24883,   26601] index = [     309594286,353819901] size =     44225615
	Batch   9 pq = [   26601,   28214] index = [     353819901,398029005] size =     44209104
	Batch  10 pq = [   28214,   29740] index = [     398029005,442248670] size =     44219665
	Batch  11 pq = [   29740,   31191] index = [     442248670,486454836] size =     44206166
	Batch  12 pq = [   31191,   32578] index = [     486454836,530679331] size =     44224495
	Batch  13 pq = [   32578,   33908] index = [     530679331,574893186] size =     44213855
	Batch  14 pq = [   33908,   35188] index = [     574893186,619115266] size =     44222080
	Batch  15 pq = [   35188,   36423] index = [     619115266,663335676] size =     44220410
	Batch  16 pq = [   36423,   37617] index = [     663335676,707538153] size =     44202477
	Batch  17 pq = [   37617,   38775] index = [     707538153,751769700] size =     44231547
	Batch  18 pq = [   38775,   39621] index = [     751769700,784931631] size =     33161931
  Task number: 71
  Buffer size: 11059200
  Buffer per thread: 2
  We computed 35214813 shell quartets total.
  Whereas there are 42140790 unique shell quartets.

  ==> DiskJK: Disk-Based J/K Matrices <==

    J tasked:                  Yes
    K tasked:                  Yes
    wK tasked:                  No
    Memory [MiB]:              375
    Schwarz Cutoff:          1E-12

    OpenMP threads:              1

  Minimum eigenvalue in the overlap matrix is 2.3261407047E-04.
  Using Symmetric Orthogonalization.

  SCF Guess: Superposition of Atomic Densities via on-the-fly atomic UHF.

  ==> Iterations <==

                        Total Energy        Delta E     RMS |[F,P]|

   @RHF iter SAD:  -592.78856630534881   -5.92789e+02   0.00000e+00
   @RHF iter   1:  -593.32812026266197   -5.39554e-01   2.54074e-03 DIIS
   @RHF iter   2:  -593.60120302866471   -2.73083e-01   1.21029e-03 DIIS
   @RHF iter   3:  -593.65604729579127   -5.48443e-02   2.91984e-04 DIIS
   @RHF iter   4:  -593.66061337567680   -4.56608e-03   1.26531e-04 DIIS
   @RHF iter   5:  -593.66132050572082   -7.07130e-04   2.13822e-05 DIIS
   @RHF iter   6:  -593.66135613557469   -3.56299e-05   1.00958e-05 DIIS
   @RHF iter   7:  -593.66136415197082   -8.01640e-06   3.53066e-06 DIIS
   @RHF iter   8:  -593.66136615786786   -2.00590e-06   1.45159e-06 DIIS
   @RHF iter   9:  -593.66136659075312   -4.32885e-07   6.56200e-07 DIIS
   @RHF iter  10:  -593.66136667360365   -8.28505e-08   2.98971e-07 DIIS
   @RHF iter  11:  -593.66136669340369   -1.98000e-08   1.15832e-07 DIIS
   @RHF iter  12:  -593.66136669628293   -2.87923e-09   4.39533e-08 DIIS
   @RHF iter  13:  -593.66136669657010   -2.87173e-10   1.35192e-08 DIIS
   @RHF iter  14:  -593.66136669659102   -2.09184e-11   4.99220e-09 DIIS
   @RHF iter  15:  -593.66136669658999    1.02318e-12   2.06721e-09 DIIS
   @RHF iter  16:  -593.66136669658817    1.81899e-12   9.26964e-10 DIIS
   @RHF iter  17:  -593.66136669658806    1.13687e-13   4.69865e-10 DIIS
   @RHF iter  18:  -593.66136669658431    3.75167e-12   1.78111e-10 DIIS
   @RHF iter  19:  -593.66136669659159   -7.27596e-12   7.15887e-11 DIIS
  Energy and wave function converged.

  ==> Post-Iterations <==

    Orbital Energies [Eh]
    ---------------------

    Doubly Occupied:

       1A    -20.552015     2A    -15.600375     3A    -11.274075
       4A    -11.262151     5A    -11.261443     6A    -11.229151
       7A    -11.228819     8A    -11.227314     9A    -11.222379
      10A    -11.221284    11A    -11.219859    12A    -11.218031
      13A    -11.211784    14A    -11.210506    15A     -1.353605
      16A     -1.294514    17A     -1.128284    18A     -1.081101
      19A     -1.011792    20A     -1.008852    21A     -0.992202
      22A     -0.964163    23A     -0.852209    24A     -0.837011
      25A     -0.830612    26A     -0.802612    27A     -0.745596
      28A     -0.717471    29A     -0.693533    30A     -0.661811
      31A     -0.642818    32A     -0.641185    33A     -0.611730
      34A     -0.594085    35A     -0.587199    36A     -0.581417
      37A     -0.571843    38A     -0.568350    39A     -0.541417
      40A     -0.537672    41A     -0.524823    42A     -0.510567
      43A     -0.503892    44A     -0.497044    45A     -0.477843
      46A     -0.475962    47A     -0.461447    48A     -0.458097
      49A     -0.432226    50A     -0.371254    51A     -0.294471
      52A     -0.272291

    Virtual:

      53A      0.126711    54A      0.165980    55A      0.171860
      56A      0.181231    57A      0.194212    58A      0.200857
      59A      0.206338    60A      0.225423    61A      0.228709
      62A      0.236562    63A      0.239473    64A      0.247536
      65A      0.258757    66A      0.261351    67A      0.268728
      68A      0.286365    69A      0.299548    70A      0.309219
      71A      0.313420    72A      0.332180    73A      0.379591
      74A      0.381878    75A      0.388057    76A      0.408253
      77A      0.413134    78A      0.424769    79A      0.443993
      80A      0.450388    81A      0.473406    82A      0.488323
      83A      0.508439    84A      0.515554    85A      0.597846
      86A      0.608152    87A      0.610362    88A      0.618213
      89A      0.636868    90A      0.644503    91A      0.652830
      92A      0.667024    93A      0.671675    94A      0.674696
      95A      0.695969    96A      0.713816    97A      0.722416
      98A      0.732667    99A      0.738815   100A      0.743994
     101A      0.747294   102A      0.755847   103A      0.756786
     104A      0.766609   105A      0.779606   106A      0.787764
     107A      0.792735   108A      0.794689   109A      0.826413
     110A      0.843648   111A      0.850463   112A      0.852272
     113A      0.863463   114A      0.877340   115A      0.884576
     116A      0.888146   117A      0.891655   118A      0.893166
     119A      0.902563   120A      0.905975   121A      0.911936
     122A      0.920254   123A      0.928516   124A      0.931488
     125A      0.945079   126A      0.951059   127A      0.958320
     128A      0.974230   129A      0.976557   130A      0.990312
     131A      0.999081   132A      1.006671   133A      1.039705
     134A      1.076122   135A      1.079539   136A      1.098411
     137A      1.121922   138A      1.132845   139A      1.136477
     140A      1.146110   141A      1.157250   142A      1.164043
     143A      1.169397   144A      1.194484   145A      1.207114
     146A      1.220504   147A      1.231029   148A      1.238582
     149A      1.253220   150A      1.270334   151A      1.279131
     152A      1.286274   153A      1.301115   154A      1.329090
     155A      1.330899   156A      1.338938   157A      1.363061
     158A      1.370279   159A      1.397611   160A      1.423660
     161A      1.442890   162A      1.456569   163A      1.466780
     164A      1.489858   165A      1.508511   166A      1.521317
     167A      1.541959   168A      1.571504   169A      1.588459
     170A      1.609271   171A      1.633914   172A      1.648741
     173A      1.653787   174A      1.671200   175A      1.681153
     176A      1.710925   177A      1.714391   178A      1.737845
     179A      1.757180   180A      1.766367   181A      1.780998
     182A      1.787119   183A      1.801125   184A      1.824269
     185A      1.838707   186A      1.859894   187A      1.877369
     188A      1.880141   189A      1.882366   190A      1.893065
     191A      1.899959   192A      1.902655   193A      1.912993
     194A      1.916199   195A      1.919008   196A      1.927642
     197A      1.933525   198A      1.942948   199A      1.950496
     200A      1.951512   201A      1.965427   202A      1.974210
     203A      1.983743   204A      1.990214   205A      2.005277
     206A      2.011559   207A      2.016686   208A      2.026086
     209A      2.051337   210A      2.055070   211A      2.060849
     212A      2.094194   213A      2.098725   214A      2.100488
     215A      2.103810   216A      2.117174   217A      2.137208
     218A      2.158395   219A      2.167680   220A      2.173052
     221A      2.175359   222A      2.187552   223A      2.216274
     224A      2.232460   225A      2.240256   226A      2.262805
     227A      2.276875   228A      2.289383   229A      2.297445
     230A      2.303951   231A      2.314530   232A      2.332653
     233A      2.347763   234A      2.357773   235A      2.373193
     236A      2.410586   237A      2.455320   238A      2.466878
     239A      2.475270   240A      2.498859   241A      2.521142
     242A      2.541590   243A      2.553970   244A      2.571117
     245A      2.571935   246A      2.603765   247A      2.616835
     248A      2.649108   249A      2.675364   250A      2.703510
     251A      2.717862   252A      2.758692   253A      2.766585
     254A      2.773709   255A      2.775786   256A      2.789319
     257A      2.800108   258A      2.804690   259A      2.820327
     260A      2.834629   261A      2.867303   262A      2.906560
     263A      2.917879   264A      2.932256   265A      2.941630
     266A      2.964430   267A      2.992782   268A      3.053900
     269A      3.064237   270A      3.103703   271A      3.132959
     272A      3.217432   273A      3.318914   274A      3.323388
     275A      3.387237   276A      3.414894   277A      3.474850
     278A      3.610585   279A      3.746411   280A      3.957689
     281A      4.098161

    Final Occupation by Irrep:
              A
    DOCC [    52 ]

  @RHF Final Energy:  -593.66136669659159

   => Energetics <=

    Nuclear Repulsion Energy =            827.8906929677044673
    One-Electron Energy =               -2448.9597486353927707
    Two-Electron Energy =                1027.4076889710966043
    Total Energy =                       -593.6613666965915854

Computation Completed

Properties will be evaluated at   0.000000,   0.000000,   0.000000 [a0]

Properties computed using the SCF density matrix

  Nuclear Dipole Moment: [e a0]
     X:    16.5207      Y:    -4.3612      Z:     7.4844

  Electronic Dipole Moment: [e a0]
     X:   -16.9466      Y:     4.1417      Z:    -6.7952

  Dipole Moment: [e a0]
     X:    -0.4259      Y:    -0.2195      Z:     0.6892     Total:     0.8394

  Dipole Moment: [D]
     X:    -1.0826      Y:    -0.5579      Z:     1.7517     Total:     2.1335

*** tstop() called on ds3 at Mon Apr 27 09:29:42 2020
Module time:
	user time   =     294.39 seconds =       4.91 minutes
	system time =     135.08 seconds =       2.25 minutes
	total time  =       1239 seconds =      20.65 minutes
Total time:
	user time   =     294.39 seconds =       4.91 minutes
	system time =     135.08 seconds =       2.25 minutes
	total time  =       1239 seconds =      20.65 minutes
                                     G D M A

                                 by Anthony Stone

                           version 2.2.06, 22 June 2011

               Distributed Multipoles from Gaussian wavefunctions

Starting at 9:29:42 on 27 Apr 2020

Using SCF density matrix from file ./SSI/SSI-075SER-078TRP-1-dimer.test.1473.fchk

                         Distributed Multipole Analysis

Standard DMA

Positions and radii in angstrom
Multipole moments in atomic units, ea_0^k for rank k

C          x =  3.500568  y = -2.106313  z =  2.096698 angstrom
           Maximum rank =  0   Radius =  0.650 angstrom
                   Q00  =   0.108255

C          x =  4.018568  y = -1.603313  z =  3.442698 angstrom
           Maximum rank =  0   Radius =  0.650 angstrom
                   Q00  =  -0.242657

O          x =  4.241568  y = -1.557313  z =  1.022698 angstrom
           Maximum rank =  0   Radius =  0.650 angstrom
                   Q00  =  -0.593310

H          x =  3.572568  y = -3.195313  z =  2.075698 angstrom
           Maximum rank =  0   Radius =  0.325 angstrom
                   Q00  =   0.039081

H          x =  2.452568  y = -1.828313  z =  1.979698 angstrom
           Maximum rank =  0   Radius =  0.325 angstrom
                   Q00  =   0.030398

H          x =  4.970568  y = -2.104313  z =  3.620698 angstrom
           Maximum rank =  0   Radius =  0.325 angstrom
                   Q00  =   0.084151

H          x =  4.152568  y = -2.163313  z =  0.269698 angstrom
           Maximum rank =  0   Radius =  0.325 angstrom
                   Q00  =   0.390352

H          x =  3.285828  y = -1.865921  z =  4.219958 angstrom
           Maximum rank =  0   Radius =  0.325 angstrom
                   Q00  =   0.085683

H          x =  4.219158  y = -0.522878  z =  3.393456 angstrom
           Maximum rank =  0   Radius =  0.325 angstrom
                   Q00  =   0.095550

C          x =  1.220568  y =  0.293687  z =  0.167698 angstrom
           Maximum rank =  0   Radius =  0.650 angstrom
                   Q00  =  -0.010109

C          x =  2.090568  y =  1.357687  z = -0.503302 angstrom
           Maximum rank =  0   Radius =  0.650 angstrom
                   Q00  =  -0.237487

C          x = -0.234432  y =  0.635687  z =  0.184698 angstrom
           Maximum rank =  0   Radius =  0.650 angstrom
                   Q00  =  -0.145851

C          x = -0.906432  y =  1.330687  z =  1.146698 angstrom
           Maximum rank =  0   Radius =  0.650 angstrom
                   Q00  =   0.067073

C          x = -1.201432  y =  0.303687  z = -0.819302 angstrom
           Maximum rank =  0   Radius =  0.650 angstrom
                   Q00  =  -0.046659

C          x = -2.449432  y =  0.826687  z = -0.395302 angstrom
           Maximum rank =  0   Radius =  0.650 angstrom
                   Q00  =   0.276231

C          x = -1.138432  y = -0.388313  z = -2.034302 angstrom
           Maximum rank =  0   Radius =  0.650 angstrom
                   Q00  =  -0.102026

C          x = -3.608432  y =  0.675687  z = -1.140302 angstrom
           Maximum rank =  0   Radius =  0.650 angstrom
                   Q00  =  -0.118219

C          x = -2.299432  y = -0.538313  z = -2.782302 angstrom
           Maximum rank =  0   Radius =  0.650 angstrom
                   Q00  =  -0.096783

C          x = -3.518432  y = -0.010313  z = -2.337302 angstrom
           Maximum rank =  0   Radius =  0.650 angstrom
                   Q00  =  -0.039739

N          x = -2.232432  y =  1.446687  z =  0.805698 angstrom
           Maximum rank =  0   Radius =  0.650 angstrom
                   Q00  =  -0.491944

H          x =  1.364568  y = -0.661313  z = -0.340302 angstrom
           Maximum rank =  0   Radius =  0.325 angstrom
                   Q00  =   0.058894

H          x =  1.541568  y =  0.174687  z =  1.202698 angstrom
           Maximum rank =  0   Radius =  0.325 angstrom
                   Q00  =   0.066781

H          x =  1.913568  y =  1.312687  z = -1.579302 angstrom
           Maximum rank =  0   Radius =  0.325 angstrom
                   Q00  =   0.076685

H          x = -0.462432  y =  1.718687  z =  2.058698 angstrom
           Maximum rank =  0   Radius =  0.325 angstrom
                   Q00  =   0.101043

H          x = -2.933432  y =  1.900687  z =  1.381698 angstrom
           Maximum rank =  0   Radius =  0.325 angstrom
                   Q00  =   0.216897

H          x = -0.199432  y = -0.799313  z = -2.380302 angstrom
           Maximum rank =  0   Radius =  0.325 angstrom
                   Q00  =   0.067186

H          x = -4.548432  y =  1.083687  z = -0.795302 angstrom
           Maximum rank =  0   Radius =  0.325 angstrom
                   Q00  =   0.072640

H          x = -2.263432  y = -1.071313  z = -3.724302 angstrom
           Maximum rank =  0   Radius =  0.325 angstrom
                   Q00  =   0.059032

H          x = -4.407432  y = -0.143313  z = -2.943302 angstrom
           Maximum rank =  0   Radius =  0.325 angstrom
                   Q00  =   0.063350

H          x =  3.154446  y =  1.168837  z = -0.297147 angstrom
           Maximum rank =  0   Radius =  0.325 angstrom
                   Q00  =   0.088105

H          x =  1.781164  y =  2.356413  z = -0.161519 angstrom
           Maximum rank =  0   Radius =  0.325 angstrom
                   Q00  =   0.077396

Total multipoles referred to origin at
           x =   0.000000,  y =    0.000000,  z =    0.000000 angstrom
                   Q00  =  -0.000000

Finished at 9:29:42 on 27 Apr 2020

  DMA results are available in the Python driver through the
	  variable('DMA DISTRIBUTED MULTIPOLES')
  and
	  variable('DMA TOTAL MULTIPOLES')
  commands.

    Psi4 stopped on: Monday, 27 April 2020 09:29AM
    Psi4 wall time for execution: 0:20:39.82

*** Psi4 exiting successfully. Buy a developer a beer!
