                               Psi4 1.3.2 release

  ==> Input File <==

--------------------------------------------------------------------------
import numpy as np
set {scf_type pk
basis cc-pvdz
d_convergence 10
gdma_switch   0
gdma_limit    0
gdma_origin   [ 0.0,  0.0,  0.0 ]
}
molecule test {
    units Angstrom
    0 1
    --
    0 1
    C                3.112862629142832    -0.679774681815566     0.442392139165260
    C               -0.421137370857168     0.763225318184434     0.441392139165260
    C                0.922862629142832     0.552225318184434     0.130392139165260
    C               -1.045137370857169    -0.039774681815566     1.396392139165261
    C                1.664862629142831    -0.424774681815566     0.801392139165260
    C               -0.311137370857168    -1.011774681815566     2.071392139165260
    C                1.036862629142832    -1.200774681815566     1.767392139165261
    H               -0.981137370857168     1.523225318184434    -0.083607860834740
    H                1.385862629142832     1.143225318184434    -0.645607860834740
    H               -2.091137370857168     0.100225318184434     1.628392139165260
    H               -0.790137370857168    -1.626774681815566     2.819392139165260
    H                3.147862629142832    -0.944774681815566    -0.607607860834739
    H                3.502862629142832    -1.513774681815566     1.028392139165260
    H                1.594862629142832    -1.962774681815566     2.292392139165261
    H                3.772189629142832     0.191635318184434     0.568631139165260
    C               -2.134137370857168     0.229225318184434    -2.785607860834739
    C               -2.473137370857168     1.609225318184434    -3.318607860834739
    H               -2.803137370857168    -0.513774681815567    -3.221607860834739
    H               -1.107137370857168    -0.024774681815566    -3.047607860834739
    H               -2.235137370857168     0.207225318184434    -1.701607860834739
    H               -1.723137370857168     2.306225318184433    -2.942607860834739
    H               -3.457991370857168     1.920265318184434    -2.940038860834740
    H               -2.414983670857168     1.611375318184433    -4.417067460834740

}
e, wfn = energy('scf', return_wfn=True)
gdma(wfn)
dmavals = variable('DMA DISTRIBUTED MULTIPOLES')
charges = np.array(dmavals)
print(charges)
np.save('SSI-065PHE-095LEU-1-dimer.npy', np.array(charges))--------------------------------------------------------------------------

*** tstart() called on ds3
*** at Tue Apr 28 03:40:09 2020

   => Loading Basis Set <=

    Name: CC-PVDZ
    Role: ORBITAL
    Keyword: BASIS
    atoms 1-7, 16-17  entry C          line   138 file /theoryfs2/ds/metcalf/miniconda2/envs/tf2gpu/share/psi4/basis/cc-pvdz.gbs
    atoms 8-15, 18-23 entry H          line    22 file /theoryfs2/ds/metcalf/miniconda2/envs/tf2gpu/share/psi4/basis/cc-pvdz.gbs

         ---------------------------------------------------------
                                   SCF
               by Justin Turney, Rob Parrish, Andy Simmonett
                          and Daniel G. A. Smith
                              RHF Reference
                        1 Threads,    500 MiB Core
         ---------------------------------------------------------

  ==> Geometry <==

    Molecular point group: c1
    Full point group: C1

    Geometry (in Angstrom), charge = 0, multiplicity = 1:

       Center              X                  Y                   Z               Mass
    ------------   -----------------  -----------------  -----------------  -----------------
         C            3.112862629143    -0.679774681816     0.442392139165    12.000000000000
         C           -0.421137370857     0.763225318184     0.441392139165    12.000000000000
         C            0.922862629143     0.552225318184     0.130392139165    12.000000000000
         C           -1.045137370857    -0.039774681816     1.396392139165    12.000000000000
         C            1.664862629143    -0.424774681816     0.801392139165    12.000000000000
         C           -0.311137370857    -1.011774681816     2.071392139165    12.000000000000
         C            1.036862629143    -1.200774681816     1.767392139165    12.000000000000
         H           -0.981137370857     1.523225318184    -0.083607860835     1.007825032230
         H            1.385862629143     1.143225318184    -0.645607860835     1.007825032230
         H           -2.091137370857     0.100225318184     1.628392139165     1.007825032230
         H           -0.790137370857    -1.626774681816     2.819392139165     1.007825032230
         H            3.147862629143    -0.944774681816    -0.607607860835     1.007825032230
         H            3.502862629143    -1.513774681816     1.028392139165     1.007825032230
         H            1.594862629143    -1.962774681816     2.292392139165     1.007825032230
         H            3.772189629143     0.191635318184     0.568631139165     1.007825032230
         C           -2.134137370857     0.229225318184    -2.785607860835    12.000000000000
         C           -2.473137370857     1.609225318184    -3.318607860835    12.000000000000
         H           -2.803137370857    -0.513774681816    -3.221607860835     1.007825032230
         H           -1.107137370857    -0.024774681816    -3.047607860835     1.007825032230
         H           -2.235137370857     0.207225318184    -1.701607860835     1.007825032230
         H           -1.723137370857     2.306225318184    -2.942607860835     1.007825032230
         H           -3.457991370857     1.920265318184    -2.940038860835     1.007825032230
         H           -2.414983670857     1.611375318184    -4.417067460835     1.007825032230

  Running in c1 symmetry.

  Rotational constants: A =      0.07842  B =      0.02222  C =      0.01890 [cm^-1]
  Rotational constants: A =   2350.88489  B =    666.16872  C =    566.56341 [MHz]
  Nuclear repulsion =  402.380420557293121

  Charge       = 0
  Multiplicity = 1
  Electrons    = 68
  Nalpha       = 34
  Nbeta        = 34

  ==> Algorithm <==

  SCF Algorithm Type is PK.
  DIIS enabled.
  MOM disabled.
  Fractional occupation disabled.
  Guess Type is SAD.
  Energy threshold   = 1.00e-06
  Density threshold  = 1.00e-10
  Integral threshold = 0.00e+00

  ==> Primary Basis <==

  Basis Set: CC-PVDZ
    Blend: CC-PVDZ
    Number of shells: 96
    Number of basis function: 196
    Number of Cartesian functions: 205
    Spherical Harmonics?: true
    Max angular momentum: 2

  ==> Pre-Iterations <==

   -------------------------------------------------------
    Irrep   Nso     Nmo     Nalpha   Nbeta   Ndocc  Nsocc
   -------------------------------------------------------
     A        196     196       0       0       0       0
   -------------------------------------------------------
    Total     196     196      34      34      34       0
   -------------------------------------------------------

  ==> Integral Setup <==

  Using integral reordering PK algorithm.
  Sizing the integral batches needed.
  Building batch lookup table.
   Calculation information:
      Number of atoms:                  23
      Number of AO shells:              96
      Number of primitives:            268
      Number of atomic orbitals:       205
      Number of basis functions:       196

      Integral cutoff                 1.00e-12
      Number of threads:                 1

	Batch   1 pq = [       0,    9405] index = [             0,44231715] size =     44231715
	Batch   2 pq = [    9405,   13301] index = [      44231715,88464951] size =     44233236
	Batch   3 pq = [   13301,   16290] index = [      88464951,132690195] size =     44225244
	Batch   4 pq = [   16290,   18810] index = [     132690195,176917455] size =     44227260
	Batch   5 pq = [   18810,   19306] index = [     176917455,186370471] size =      9453016
  Task number: 17
  Buffer size: 11059200
  Buffer per thread: 2
  We computed 9033460 shell quartets total.
  Whereas there are 10841496 unique shell quartets.

  ==> DiskJK: Disk-Based J/K Matrices <==

    J tasked:                  Yes
    K tasked:                  Yes
    wK tasked:                  No
    Memory [MiB]:              375
    Schwarz Cutoff:          1E-12

    OpenMP threads:              1

  Minimum eigenvalue in the overlap matrix is 3.1415778917E-04.
  Using Symmetric Orthogonalization.

  SCF Guess: Superposition of Atomic Densities via on-the-fly atomic UHF.

  ==> Iterations <==

                        Total Energy        Delta E     RMS |[F,P]|

   @RHF iter SAD:  -347.85743336183162   -3.47857e+02   0.00000e+00
   @RHF iter   1:  -348.76669741441611   -9.09264e-01   2.89587e-03 DIIS
   @RHF iter   2:  -348.95949251092645   -1.92795e-01   1.19772e-03 DIIS
   @RHF iter   3:  -348.98952934006769   -3.00368e-02   2.57648e-04 DIIS
   @RHF iter   4:  -348.99199436820385   -2.46503e-03   5.33332e-05 DIIS
   @RHF iter   5:  -348.99206841166978   -7.40435e-05   1.84216e-05 DIIS
   @RHF iter   6:  -348.99207675857002   -8.34690e-06   4.88945e-06 DIIS
   @RHF iter   7:  -348.99207747850329   -7.19933e-07   1.31152e-06 DIIS
   @RHF iter   8:  -348.99207755244959   -7.39463e-08   4.01499e-07 DIIS
   @RHF iter   9:  -348.99207756836125   -1.59117e-08   1.86265e-07 DIIS
   @RHF iter  10:  -348.99207757275087   -4.38962e-09   8.60703e-08 DIIS
   @RHF iter  11:  -348.99207757383488   -1.08400e-09   2.52139e-08 DIIS
   @RHF iter  12:  -348.99207757389854   -6.36646e-11   9.29384e-09 DIIS
   @RHF iter  13:  -348.99207757390388   -5.34328e-12   3.74111e-09 DIIS
   @RHF iter  14:  -348.99207757390451   -6.25278e-13   8.89055e-10 DIIS
   @RHF iter  15:  -348.99207757390855   -4.03588e-12   3.28293e-10 DIIS
   @RHF iter  16:  -348.99207757390712    1.42109e-12   1.12761e-10 DIIS
   @RHF iter  17:  -348.99207757390593    1.19371e-12   4.87341e-11 DIIS
  Energy and wave function converged.

  ==> Post-Iterations <==

    Orbital Energies [Eh]
    ---------------------

    Doubly Occupied:

       1A    -11.241811     2A    -11.236851     3A    -11.235699
       4A    -11.231870     5A    -11.231435     6A    -11.230179
       7A    -11.229806     8A    -11.217770     9A    -11.211441
      10A     -1.151626    11A     -1.043174    12A     -1.019485
      13A     -1.010879    14A     -0.931485    15A     -0.832461
      16A     -0.824733    17A     -0.796049    18A     -0.690942
      19A     -0.632010    20A     -0.630283    21A     -0.600439
      22A     -0.596606    23A     -0.581655    24A     -0.573295
      25A     -0.562369    26A     -0.538554    27A     -0.498820
      28A     -0.488780    29A     -0.486773    30A     -0.482605
      31A     -0.481427    32A     -0.478216    33A     -0.331475
      34A     -0.321766

    Virtual:

      35A      0.132540    36A      0.142704    37A      0.167452
      38A      0.192700    39A      0.204180    40A      0.225651
      41A      0.229801    42A      0.239555    43A      0.251727
      44A      0.265107    45A      0.267067    46A      0.273285
      47A      0.276100    48A      0.290193    49A      0.307137
      50A      0.332772    51A      0.367329    52A      0.375751
      53A      0.398565    54A      0.451765    55A      0.464337
      56A      0.473918    57A      0.502533    58A      0.570281
      59A      0.589976    60A      0.600732    61A      0.605500
      62A      0.618226    63A      0.623487    64A      0.646326
      65A      0.669599    66A      0.696148    67A      0.702283
      68A      0.706035    69A      0.719233    70A      0.739040
      71A      0.745680    72A      0.750998    73A      0.756909
      74A      0.771242    75A      0.791756    76A      0.793230
      77A      0.840978    78A      0.852573    79A      0.860439
      80A      0.869011    81A      0.873091    82A      0.881227
      83A      0.889627    84A      0.895132    85A      0.896612
      86A      0.903228    87A      0.912654    88A      0.924144
      89A      0.928562    90A      0.946021    91A      0.949900
      92A      0.959647    93A      0.984364    94A      1.001450
      95A      1.028877    96A      1.072813    97A      1.113712
      98A      1.127747    99A      1.131208   100A      1.138319
     101A      1.155362   102A      1.163533   103A      1.199682
     104A      1.217950   105A      1.240172   106A      1.249584
     107A      1.257719   108A      1.268015   109A      1.292802
     110A      1.307401   111A      1.322826   112A      1.325224
     113A      1.413654   114A      1.475536   115A      1.491817
     116A      1.504231   117A      1.525922   118A      1.550019
     119A      1.580987   120A      1.602485   121A      1.675167
     122A      1.679205   123A      1.686264   124A      1.704033
     125A      1.736961   126A      1.748605   127A      1.768186
     128A      1.794063   129A      1.816278   130A      1.853184
     131A      1.860111   132A      1.870016   133A      1.892854
     134A      1.899178   135A      1.903214   136A      1.907477
     137A      1.919162   138A      1.923254   139A      1.936671
     140A      1.950379   141A      1.953038   142A      1.960287
     143A      1.962064   144A      1.967058   145A      1.970331
     146A      1.977993   147A      1.993953   148A      2.014863
     149A      2.024910   150A      2.049296   151A      2.075527
     152A      2.103570   153A      2.113322   154A      2.122292
     155A      2.138007   156A      2.154828   157A      2.162277
     158A      2.173102   159A      2.197041   160A      2.244029
     161A      2.260179   162A      2.281437   163A      2.290977
     164A      2.301067   165A      2.320272   166A      2.326387
     167A      2.372990   168A      2.436176   169A      2.451789
     170A      2.470293   171A      2.479247   172A      2.520857
     173A      2.531847   174A      2.572237   175A      2.583242
     176A      2.630201   177A      2.722507   178A      2.750260
     179A      2.765393   180A      2.769537   181A      2.787225
     182A      2.802964   183A      2.814814   184A      2.842077
     185A      2.854758   186A      2.858801   187A      2.861777
     188A      2.954584   189A      2.969269   190A      2.983771
     191A      3.009461   192A      3.031809   193A      3.164452
     194A      3.196964   195A      3.298764   196A      3.959217

    Final Occupation by Irrep:
              A
    DOCC [    34 ]

  @RHF Final Energy:  -348.99207757390593

   => Energetics <=

    Nuclear Repulsion Energy =            402.3804205572931210
    One-Electron Energy =               -1267.4394590440460888
    Two-Electron Energy =                 516.0669609128470938
    Total Energy =                       -348.9920775739059309

Computation Completed

Properties will be evaluated at   0.000000,   0.000000,   0.000000 [a0]

Properties computed using the SCF density matrix

  Nuclear Dipole Moment: [e a0]
     X:    -3.9376      Y:     2.2656      Z:   -10.5654

  Electronic Dipole Moment: [e a0]
     X:     4.0855      Y:    -2.3230      Z:    10.5418

  Dipole Moment: [e a0]
     X:     0.1479      Y:    -0.0574      Z:    -0.0236     Total:     0.1604

  Dipole Moment: [D]
     X:     0.3759      Y:    -0.1458      Z:    -0.0600     Total:     0.4076

*** tstop() called on ds3 at Tue Apr 28 03:41:36 2020
Module time:
	user time   =      62.03 seconds =       1.03 minutes
	system time =      27.45 seconds =       0.46 minutes
	total time  =         87 seconds =       1.45 minutes
Total time:
	user time   =      62.03 seconds =       1.03 minutes
	system time =      27.45 seconds =       0.46 minutes
	total time  =         87 seconds =       1.45 minutes
                                     G D M A

                                 by Anthony Stone

                           version 2.2.06, 22 June 2011

               Distributed Multipoles from Gaussian wavefunctions

Starting at 3:41:36 on 28 Apr 2020

Using SCF density matrix from file ./SSI/SSI-065PHE-095LEU-1-dimer.test.15852.fchk

                         Distributed Multipole Analysis

Standard DMA

Positions and radii in angstrom
Multipole moments in atomic units, ea_0^k for rank k

C          x =  3.112863  y = -0.679775  z =  0.442392 angstrom
           Maximum rank =  0   Radius =  0.650 angstrom
                   Q00  =  -0.208219

C          x = -0.421137  y =  0.763225  z =  0.441392 angstrom
           Maximum rank =  0   Radius =  0.650 angstrom
                   Q00  =  -0.070006

C          x =  0.922863  y =  0.552225  z =  0.130392 angstrom
           Maximum rank =  0   Radius =  0.650 angstrom
                   Q00  =  -0.061348

C          x = -1.045137  y = -0.039775  z =  1.396392 angstrom
           Maximum rank =  0   Radius =  0.650 angstrom
                   Q00  =  -0.097448

C          x =  1.664863  y = -0.424775  z =  0.801392 angstrom
           Maximum rank =  0   Radius =  0.650 angstrom
                   Q00  =  -0.094989

C          x = -0.311137  y = -1.011775  z =  2.071392 angstrom
           Maximum rank =  0   Radius =  0.650 angstrom
                   Q00  =  -0.068153

C          x =  1.036863  y = -1.200775  z =  1.767392 angstrom
           Maximum rank =  0   Radius =  0.650 angstrom
                   Q00  =  -0.011313

H          x = -0.981137  y =  1.523225  z = -0.083608 angstrom
           Maximum rank =  0   Radius =  0.325 angstrom
                   Q00  =   0.066545

H          x =  1.385863  y =  1.143225  z = -0.645608 angstrom
           Maximum rank =  0   Radius =  0.325 angstrom
                   Q00  =   0.055794

H          x = -2.091137  y =  0.100225  z =  1.628392 angstrom
           Maximum rank =  0   Radius =  0.325 angstrom
                   Q00  =   0.061453

H          x = -0.790137  y = -1.626775  z =  2.819392 angstrom
           Maximum rank =  0   Radius =  0.325 angstrom
                   Q00  =   0.065848

H          x =  3.147863  y = -0.944775  z = -0.607608 angstrom
           Maximum rank =  0   Radius =  0.325 angstrom
                   Q00  =   0.102322

H          x =  3.502863  y = -1.513775  z =  1.028392 angstrom
           Maximum rank =  0   Radius =  0.325 angstrom
                   Q00  =   0.098747

H          x =  1.594863  y = -1.962775  z =  2.292392 angstrom
           Maximum rank =  0   Radius =  0.325 angstrom
                   Q00  =   0.058317

H          x =  3.772190  y =  0.191635  z =  0.568631 angstrom
           Maximum rank =  0   Radius =  0.325 angstrom
                   Q00  =   0.102417

C          x = -2.134137  y =  0.229225  z = -2.785608 angstrom
           Maximum rank =  0   Radius =  0.650 angstrom
                   Q00  =  -0.227450

C          x = -2.473137  y =  1.609225  z = -3.318608 angstrom
           Maximum rank =  0   Radius =  0.650 angstrom
                   Q00  =  -0.234236

H          x = -2.803137  y = -0.513775  z = -3.221608 angstrom
           Maximum rank =  0   Radius =  0.325 angstrom
                   Q00  =   0.075536

H          x = -1.107137  y = -0.024775  z = -3.047608 angstrom
           Maximum rank =  0   Radius =  0.325 angstrom
                   Q00  =   0.077164

H          x = -2.235137  y =  0.207225  z = -1.701608 angstrom
           Maximum rank =  0   Radius =  0.325 angstrom
                   Q00  =   0.081663

H          x = -1.723137  y =  2.306225  z = -2.942608 angstrom
           Maximum rank =  0   Radius =  0.325 angstrom
                   Q00  =   0.070306

H          x = -3.457991  y =  1.920265  z = -2.940039 angstrom
           Maximum rank =  0   Radius =  0.325 angstrom
                   Q00  =   0.077348

H          x = -2.414984  y =  1.611375  z = -4.417067 angstrom
           Maximum rank =  0   Radius =  0.325 angstrom
                   Q00  =   0.079702

Total multipoles referred to origin at
           x =   0.000000,  y =    0.000000,  z =    0.000000 angstrom
                   Q00  =  -0.000000

Finished at 3:41:36 on 28 Apr 2020

  DMA results are available in the Python driver through the
	  variable('DMA DISTRIBUTED MULTIPOLES')
  and
	  variable('DMA TOTAL MULTIPOLES')
  commands.

    Psi4 stopped on: Tuesday, 28 April 2020 03:41AM
    Psi4 wall time for execution: 0:01:26.70

*** Psi4 exiting successfully. Buy a developer a beer!
