                               Psi4 1.3.2 release

  ==> Input File <==

--------------------------------------------------------------------------
import numpy as np
set {scf_type pk
basis cc-pvdz
d_convergence 10
gdma_switch   0
gdma_limit    0
gdma_origin   [ 0.0,  0.0,  0.0 ]
}
molecule test {
    units Angstrom
    0 1
    --
    0 1
    C               -2.355070798852018     0.455277359138716    -2.781824595930599
    C               -3.547070798852018     1.380277359138716    -2.792824595930600
    H               -1.604070798852018     0.784277359138716    -3.497824595930599
    H               -1.911070798852019     0.452277359138716    -1.786824595930599
    H               -2.668070798852019    -0.559722640861284    -3.024824595930600
    H               -4.218070798852018     1.075277359138716    -1.989824595930599
    H               -4.090888798852019     1.308533359138716    -3.746304595930599
    H               -3.221075798852019     2.414014359138716    -2.605434595930599
    C                1.079929201147982     0.221277359138716     3.655175404069401
    C                0.720929201147982    -0.460722640861284    -0.568824595930599
    C                0.360929201147982    -1.469722640861284     0.295175404069401
    C                1.149929201147982     0.752277359138716    -0.076824595930599
    C                0.474929201147981    -1.254722640861284     1.664175404069401
    C                1.272929201147982     0.960277359138716     1.279175404069401
    C                0.939929201147982    -0.034722640861284     2.172175404069401
    O                0.603929201147982    -0.650722640861284    -1.910824595930599
    H                0.278929201147982    -1.531722640861284    -2.123824595930599
    H                0.003929201147982    -2.417722640861284    -0.081824595930599
    H                1.388929201147981     1.526277359138716    -0.783824595930599
    H                0.203929201147981    -2.049722640861284     2.347175404069401
    H                1.639929201147982     1.910277359138716     1.641175404069401
    H                1.440929201147982     1.237277359138716     3.806175404069401
    H                1.847929201147982    -0.450722640861284     4.040175404069401
    H                0.164666401147982     0.086084359138716     4.250165404069401

}
e, wfn = energy('scf', return_wfn=True)
gdma(wfn)
dmavals = variable('DMA DISTRIBUTED MULTIPOLES')
charges = np.array(dmavals)
print(charges)
np.save('SSI-084THR-108TYR-1-dimer.npy', np.array(charges))--------------------------------------------------------------------------

*** tstart() called on ds3
*** at Mon Apr 27 15:57:40 2020

   => Loading Basis Set <=

    Name: CC-PVDZ
    Role: ORBITAL
    Keyword: BASIS
    atoms 1-2, 9-15  entry C          line   138 file /theoryfs2/ds/metcalf/miniconda2/envs/tf2gpu/share/psi4/basis/cc-pvdz.gbs
    atoms 3-8, 17-24 entry H          line    22 file /theoryfs2/ds/metcalf/miniconda2/envs/tf2gpu/share/psi4/basis/cc-pvdz.gbs
    atoms 16         entry O          line   198 file /theoryfs2/ds/metcalf/miniconda2/envs/tf2gpu/share/psi4/basis/cc-pvdz.gbs

         ---------------------------------------------------------
                                   SCF
               by Justin Turney, Rob Parrish, Andy Simmonett
                          and Daniel G. A. Smith
                              RHF Reference
                        1 Threads,    500 MiB Core
         ---------------------------------------------------------

  ==> Geometry <==

    Molecular point group: c1
    Full point group: C1

    Geometry (in Angstrom), charge = 0, multiplicity = 1:

       Center              X                  Y                   Z               Mass
    ------------   -----------------  -----------------  -----------------  -----------------
         C           -2.355070798852     0.455277359139    -2.781824595931    12.000000000000
         C           -3.547070798852     1.380277359139    -2.792824595931    12.000000000000
         H           -1.604070798852     0.784277359139    -3.497824595931     1.007825032230
         H           -1.911070798852     0.452277359139    -1.786824595931     1.007825032230
         H           -2.668070798852    -0.559722640861    -3.024824595931     1.007825032230
         H           -4.218070798852     1.075277359139    -1.989824595931     1.007825032230
         H           -4.090888798852     1.308533359139    -3.746304595931     1.007825032230
         H           -3.221075798852     2.414014359139    -2.605434595931     1.007825032230
         C            1.079929201148     0.221277359139     3.655175404069    12.000000000000
         C            0.720929201148    -0.460722640861    -0.568824595931    12.000000000000
         C            0.360929201148    -1.469722640861     0.295175404069    12.000000000000
         C            1.149929201148     0.752277359139    -0.076824595931    12.000000000000
         C            0.474929201148    -1.254722640861     1.664175404069    12.000000000000
         C            1.272929201148     0.960277359139     1.279175404069    12.000000000000
         C            0.939929201148    -0.034722640861     2.172175404069    12.000000000000
         O            0.603929201148    -0.650722640861    -1.910824595931    15.994914619570
         H            0.278929201148    -1.531722640861    -2.123824595931     1.007825032230
         H            0.003929201148    -2.417722640861    -0.081824595931     1.007825032230
         H            1.388929201148     1.526277359139    -0.783824595931     1.007825032230
         H            0.203929201148    -2.049722640861     2.347175404069     1.007825032230
         H            1.639929201148     1.910277359139     1.641175404069     1.007825032230
         H            1.440929201148     1.237277359139     3.806175404069     1.007825032230
         H            1.847929201148    -0.450722640861     4.040175404069     1.007825032230
         H            0.164666401148     0.086084359139     4.250165404069     1.007825032230

  Running in c1 symmetry.

  Rotational constants: A =      0.06790  B =      0.01749  C =      0.01630 [cm^-1]
  Rotational constants: A =   2035.72246  B =    524.44059  C =    488.66340 [MHz]
  Nuclear repulsion =  491.253832774629984

  Charge       = 0
  Multiplicity = 1
  Electrons    = 76
  Nalpha       = 38
  Nbeta        = 38

  ==> Algorithm <==

  SCF Algorithm Type is PK.
  DIIS enabled.
  MOM disabled.
  Fractional occupation disabled.
  Guess Type is SAD.
  Energy threshold   = 1.00e-06
  Density threshold  = 1.00e-10
  Integral threshold = 0.00e+00

  ==> Primary Basis <==

  Basis Set: CC-PVDZ
    Blend: CC-PVDZ
    Number of shells: 102
    Number of basis function: 210
    Number of Cartesian functions: 220
    Spherical Harmonics?: true
    Max angular momentum: 2

  ==> Pre-Iterations <==

   -------------------------------------------------------
    Irrep   Nso     Nmo     Nalpha   Nbeta   Ndocc  Nsocc
   -------------------------------------------------------
     A        210     210       0       0       0       0
   -------------------------------------------------------
    Total     210     210      38      38      38       0
   -------------------------------------------------------

  ==> Integral Setup <==

  Using integral reordering PK algorithm.
  Sizing the integral batches needed.
  Building batch lookup table.
   Calculation information:
      Number of atoms:                  24
      Number of AO shells:             102
      Number of primitives:            290
      Number of atomic orbitals:       220
      Number of basis functions:       210

      Integral cutoff                 1.00e-12
      Number of threads:                 1

	Batch   1 pq = [       0,    9405] index = [             0,44231715] size =     44231715
	Batch   2 pq = [    9405,   13301] index = [      44231715,88464951] size =     44233236
	Batch   3 pq = [   13301,   16290] index = [      88464951,132690195] size =     44225244
	Batch   4 pq = [   16290,   18810] index = [     132690195,176917455] size =     44227260
	Batch   5 pq = [   18810,   21030] index = [     176917455,221140965] size =     44223510
	Batch   6 pq = [   21030,   22155] index = [     221140965,245433090] size =     24292125
  Task number: 23
  Buffer size: 11059200
  Buffer per thread: 2
  We computed 10786189 shell quartets total.
  Whereas there are 13799631 unique shell quartets.

  ==> DiskJK: Disk-Based J/K Matrices <==

    J tasked:                  Yes
    K tasked:                  Yes
    wK tasked:                  No
    Memory [MiB]:              375
    Schwarz Cutoff:          1E-12

    OpenMP threads:              1

  Minimum eigenvalue in the overlap matrix is 3.0252253236E-04.
  Using Symmetric Orthogonalization.

  SCF Guess: Superposition of Atomic Densities via on-the-fly atomic UHF.

  ==> Iterations <==

                        Total Energy        Delta E     RMS |[F,P]|

   @RHF iter SAD:  -422.81798207293889   -4.22818e+02   0.00000e+00
   @RHF iter   1:  -423.59690881151471   -7.78927e-01   3.00989e-03 DIIS
   @RHF iter   2:  -423.81703294183848   -2.20124e-01   1.27273e-03 DIIS
   @RHF iter   3:  -423.85285087848274   -3.58179e-02   2.80582e-04 DIIS
   @RHF iter   4:  -423.85570699216646   -2.85611e-03   1.12937e-04 DIIS
   @RHF iter   5:  -423.85603585150255   -3.28859e-04   2.11026e-05 DIIS
   @RHF iter   6:  -423.85605350659182   -1.76551e-05   6.25522e-06 DIIS
   @RHF iter   7:  -423.85605508376210   -1.57717e-06   1.99882e-06 DIIS
   @RHF iter   8:  -423.85605528689200   -2.03130e-07   7.47555e-07 DIIS
   @RHF iter   9:  -423.85605531765520   -3.07632e-08   2.92060e-07 DIIS
   @RHF iter  10:  -423.85605532329396   -5.63875e-09   1.20118e-07 DIIS
   @RHF iter  11:  -423.85605532488597   -1.59201e-09   5.28322e-08 DIIS
   @RHF iter  12:  -423.85605532523311   -3.47143e-10   2.69607e-08 DIIS
   @RHF iter  13:  -423.85605532530133   -6.82121e-11   7.55217e-09 DIIS
   @RHF iter  14:  -423.85605532530275   -1.42109e-12   2.03863e-09 DIIS
   @RHF iter  15:  -423.85605532530587   -3.12639e-12   6.27323e-10 DIIS
   @RHF iter  16:  -423.85605532530519    6.82121e-13   1.85400e-10 DIIS
   @RHF iter  17:  -423.85605532530428    9.09495e-13   7.12910e-11 DIIS
  Energy and wave function converged.

  ==> Post-Iterations <==

    Orbital Energies [Eh]
    ---------------------

    Doubly Occupied:

       1A    -20.581983     2A    -11.294420     3A    -11.239448
       4A    -11.234287     5A    -11.232509     6A    -11.232104
       7A    -11.228349     8A    -11.224633     9A    -11.211395
      10A    -11.206065    11A     -1.400541    12A     -1.156262
      13A     -1.039889    14A     -1.020825    15A     -1.016139
      16A     -0.928069    17A     -0.846972    18A     -0.827337
      19A     -0.803761    20A     -0.733852    21A     -0.668754
      22A     -0.643251    23A     -0.610188    24A     -0.596634
      25A     -0.593416    26A     -0.587400    27A     -0.585687
      28A     -0.569770    29A     -0.564514    30A     -0.527414
      31A     -0.500331    32A     -0.495496    33A     -0.484351
      34A     -0.477883    35A     -0.474747    36A     -0.469026
      37A     -0.341099    38A     -0.303296

    Virtual:

      39A      0.131979    40A      0.159527    41A      0.172864
      42A      0.187049    43A      0.195725    44A      0.215830
      45A      0.220800    46A      0.249273    47A      0.257217
      48A      0.262651    49A      0.267315    50A      0.271827
      51A      0.279026    52A      0.291966    53A      0.296286
      54A      0.299386    55A      0.370251    56A      0.377330
      57A      0.409600    58A      0.435693    59A      0.457803
      60A      0.489849    61A      0.495411    62A      0.518389
      63A      0.599205    64A      0.606574    65A      0.608731
      66A      0.621468    67A      0.624189    68A      0.653327
      69A      0.662917    70A      0.675054    71A      0.685162
      72A      0.696479    73A      0.715310    74A      0.718452
      75A      0.729726    76A      0.737853    77A      0.745772
      78A      0.774345    79A      0.779573    80A      0.792123
      81A      0.800259    82A      0.824234    83A      0.847015
      84A      0.853658    85A      0.875439    86A      0.886327
      87A      0.890491    88A      0.892483    89A      0.898681
      90A      0.901569    91A      0.906665    92A      0.909276
      93A      0.921629    94A      0.925849    95A      0.940298
      96A      0.941999    97A      0.946622    98A      0.972262
      99A      0.993747   100A      1.020537   101A      1.045721
     102A      1.070207   103A      1.123296   104A      1.134919
     105A      1.139608   106A      1.152303   107A      1.160569
     108A      1.168262   109A      1.209055   110A      1.224800
     111A      1.243243   112A      1.251933   113A      1.270504
     114A      1.290333   115A      1.309062   116A      1.323928
     117A      1.356741   118A      1.367753   119A      1.374206
     120A      1.387212   121A      1.481514   122A      1.483966
     123A      1.489655   124A      1.517902   125A      1.521177
     126A      1.556492   127A      1.595773   128A      1.625130
     129A      1.634917   130A      1.679782   131A      1.685314
     132A      1.692280   133A      1.701854   134A      1.732724
     135A      1.746244   136A      1.784315   137A      1.804621
     138A      1.818263   139A      1.857057   140A      1.866056
     141A      1.876738   142A      1.892461   143A      1.900903
     144A      1.914712   145A      1.926466   146A      1.937080
     147A      1.942166   148A      1.946716   149A      1.953278
     150A      1.956841   151A      1.960316   152A      1.967042
     153A      1.974897   154A      1.976714   155A      2.001219
     156A      2.018830   157A      2.042741   158A      2.051590
     159A      2.070694   160A      2.082789   161A      2.086736
     162A      2.111068   163A      2.123956   164A      2.127632
     165A      2.158900   166A      2.184088   167A      2.208348
     168A      2.222864   169A      2.258525   170A      2.277485
     171A      2.306821   172A      2.314897   173A      2.334091
     174A      2.370677   175A      2.389352   176A      2.397239
     177A      2.458805   178A      2.468278   179A      2.475532
     180A      2.480607   181A      2.511267   182A      2.537829
     183A      2.552846   184A      2.583104   185A      2.613099
     186A      2.617672   187A      2.662789   188A      2.741828
     189A      2.768170   190A      2.770977   191A      2.796136
     192A      2.805603   193A      2.816786   194A      2.853551
     195A      2.859101   196A      2.867864   197A      2.902088
     198A      2.958098   199A      2.966325   200A      2.985406
     201A      3.023055   202A      3.105989   203A      3.143959
     204A      3.258644   205A      3.303452   206A      3.352210
     207A      3.594537   208A      3.686033   209A      4.002099
     210A      4.201928

    Final Occupation by Irrep:
              A
    DOCC [    38 ]

  @RHF Final Energy:  -423.85605532530428

   => Energetics <=

    Nuclear Repulsion Energy =            491.2538327746299842
    One-Electron Energy =               -1548.3155844878051539
    Two-Electron Energy =                 633.2056963878709439
    Total Energy =                       -423.8560553253042826

Computation Completed

Properties will be evaluated at   0.000000,   0.000000,   0.000000 [a0]

Properties computed using the SCF density matrix

  Nuclear Dipole Moment: [e a0]
     X:   -10.0693      Y:     3.5449      Z:    -3.3425

  Electronic Dipole Moment: [e a0]
     X:     9.9937      Y:    -4.0363      Z:     3.6647

  Dipole Moment: [e a0]
     X:    -0.0756      Y:    -0.4914      Z:     0.3223     Total:     0.5925

  Dipole Moment: [D]
     X:    -0.1923      Y:    -1.2490      Z:     0.8191     Total:     1.5060

*** tstop() called on ds3 at Mon Apr 27 15:59:34 2020
Module time:
	user time   =      79.73 seconds =       1.33 minutes
	system time =      38.56 seconds =       0.64 minutes
	total time  =        114 seconds =       1.90 minutes
Total time:
	user time   =      79.73 seconds =       1.33 minutes
	system time =      38.56 seconds =       0.64 minutes
	total time  =        114 seconds =       1.90 minutes
                                     G D M A

                                 by Anthony Stone

                           version 2.2.06, 22 June 2011

               Distributed Multipoles from Gaussian wavefunctions

Starting at 15:59:34 on 27 Apr 2020

Using SCF density matrix from file ./SSI/SSI-084THR-108TYR-1-dimer.test.20979.fchk

                         Distributed Multipole Analysis

Standard DMA

Positions and radii in angstrom
Multipole moments in atomic units, ea_0^k for rank k

C          x = -2.355071  y =  0.455277  z = -2.781825 angstrom
           Maximum rank =  0   Radius =  0.650 angstrom
                   Q00  =  -0.222649

C          x = -3.547071  y =  1.380277  z = -2.792825 angstrom
           Maximum rank =  0   Radius =  0.650 angstrom
                   Q00  =  -0.237634

H          x = -1.604071  y =  0.784277  z = -3.497825 angstrom
           Maximum rank =  0   Radius =  0.325 angstrom
                   Q00  =   0.079724

H          x = -1.911071  y =  0.452277  z = -1.786825 angstrom
           Maximum rank =  0   Radius =  0.325 angstrom
                   Q00  =   0.083472

H          x = -2.668071  y = -0.559723  z = -3.024825 angstrom
           Maximum rank =  0   Radius =  0.325 angstrom
                   Q00  =   0.065165

H          x = -4.218071  y =  1.075277  z = -1.989825 angstrom
           Maximum rank =  0   Radius =  0.325 angstrom
                   Q00  =   0.073857

H          x = -4.090889  y =  1.308533  z = -3.746305 angstrom
           Maximum rank =  0   Radius =  0.325 angstrom
                   Q00  =   0.074396

H          x = -3.221076  y =  2.414014  z = -2.605435 angstrom
           Maximum rank =  0   Radius =  0.325 angstrom
                   Q00  =   0.077339

C          x =  1.079929  y =  0.221277  z =  3.655175 angstrom
           Maximum rank =  0   Radius =  0.650 angstrom
                   Q00  =  -0.207244

C          x =  0.720929  y = -0.460723  z = -0.568825 angstrom
           Maximum rank =  0   Radius =  0.650 angstrom
                   Q00  =   0.298316

C          x =  0.360929  y = -1.469723  z =  0.295175 angstrom
           Maximum rank =  0   Radius =  0.650 angstrom
                   Q00  =  -0.174837

C          x =  1.149929  y =  0.752277  z = -0.076825 angstrom
           Maximum rank =  0   Radius =  0.650 angstrom
                   Q00  =   0.019456

C          x =  0.474929  y = -1.254723  z =  1.664175 angstrom
           Maximum rank =  0   Radius =  0.650 angstrom
                   Q00  =  -0.046031

C          x =  1.272929  y =  0.960277  z =  1.279175 angstrom
           Maximum rank =  0   Radius =  0.650 angstrom
                   Q00  =  -0.051214

C          x =  0.939929  y = -0.034723  z =  2.172175 angstrom
           Maximum rank =  0   Radius =  0.650 angstrom
                   Q00  =  -0.136654

O          x =  0.603929  y = -0.650723  z = -1.910825 angstrom
           Maximum rank =  0   Radius =  0.650 angstrom
                   Q00  =  -0.672495

H          x =  0.278929  y = -1.531723  z = -2.123825 angstrom
           Maximum rank =  0   Radius =  0.325 angstrom
                   Q00  =   0.406536

H          x =  0.003929  y = -2.417723  z = -0.081825 angstrom
           Maximum rank =  0   Radius =  0.325 angstrom
                   Q00  =   0.070917

H          x =  1.388929  y =  1.526277  z = -0.783825 angstrom
           Maximum rank =  0   Radius =  0.325 angstrom
                   Q00  =   0.077598

H          x =  0.203929  y = -2.049723  z =  2.347175 angstrom
           Maximum rank =  0   Radius =  0.325 angstrom
                   Q00  =   0.066305

H          x =  1.639929  y =  1.910277  z =  1.641175 angstrom
           Maximum rank =  0   Radius =  0.325 angstrom
                   Q00  =   0.062135

H          x =  1.440929  y =  1.237277  z =  3.806175 angstrom
           Maximum rank =  0   Radius =  0.325 angstrom
                   Q00  =   0.095870

H          x =  1.847929  y = -0.450723  z =  4.040175 angstrom
           Maximum rank =  0   Radius =  0.325 angstrom
                   Q00  =   0.097507

H          x =  0.164666  y =  0.086084  z =  4.250165 angstrom
           Maximum rank =  0   Radius =  0.325 angstrom
                   Q00  =   0.100165

Total multipoles referred to origin at
           x =   0.000000,  y =    0.000000,  z =    0.000000 angstrom
                   Q00  =  -0.000000

Finished at 15:59:34 on 27 Apr 2020

  DMA results are available in the Python driver through the
	  variable('DMA DISTRIBUTED MULTIPOLES')
  and
	  variable('DMA TOTAL MULTIPOLES')
  commands.

    Psi4 stopped on: Monday, 27 April 2020 03:59PM
    Psi4 wall time for execution: 0:01:54.36

*** Psi4 exiting successfully. Buy a developer a beer!
