                               Psi4 1.3.2 release

  ==> Input File <==

--------------------------------------------------------------------------
import numpy as np
set {scf_type pk
basis cc-pvdz
d_convergence 10
gdma_switch   0
gdma_limit    0
gdma_origin   [ 0.0,  0.0,  0.0 ]
}
molecule test {
    units Angstrom
    0 1
    --
    0 1
    C               -0.708597554846181     2.234721135885504    -1.425943305534980
    C                1.291402445153819     0.114721135885505     0.750056694465019
    C                0.292402445153819     1.287721135885505    -0.825943305534981
    C                1.407402445153819     0.710721135885505    -1.363943305534981
    N                0.250402445153819     0.897721135885505     0.495056694465019
    N                2.009402445153819    -0.017278864114495    -0.361943305534981
    H                1.468402445153819    -0.311278864114495     1.717056694465020
    H                2.857402445153819    -0.557278864114495    -0.461943305534981
    H                1.820402445153819     0.756721135885505    -2.362943305534980
    H               -0.327597554846181     2.540721135885504    -2.398943305534980
    H               -0.750597554846181     3.103721135885505    -0.766943305534981
    H               -1.733597554846181     1.841421135885505    -1.494133305534981
    C               -1.770597554846181    -2.042278864114496     0.636056694465019
    C               -2.388597554846181    -2.747278864114495     1.913056694465020
    H               -1.521597554846181    -1.003278864114495     0.865056694465019
    H               -0.856597554846181    -2.554278864114496     0.328056694465019
    H               -2.479597554846181    -2.056278864114495    -0.188943305534981
    H               -1.634597554846181    -2.663278864114496     2.695056694465019
    H               -3.309717554846181    -2.257978864114496     2.262476694465019
    H               -2.586647554846182    -3.813178864114495     1.727036694465020

}
e, wfn = energy('scf', return_wfn=True)
gdma(wfn)
dmavals = variable('DMA DISTRIBUTED MULTIPOLES')
charges = np.array(dmavals)
print(charges)
np.save('SSI-227HIE-256LEU-1-dimer.npy', np.array(charges))--------------------------------------------------------------------------

*** tstart() called on ds3
*** at Tue Apr 28 14:27:04 2020

   => Loading Basis Set <=

    Name: CC-PVDZ
    Role: ORBITAL
    Keyword: BASIS
    atoms 1-4, 13-14  entry C          line   138 file /theoryfs2/ds/metcalf/miniconda2/envs/tf2gpu/share/psi4/basis/cc-pvdz.gbs
    atoms 5-6         entry N          line   168 file /theoryfs2/ds/metcalf/miniconda2/envs/tf2gpu/share/psi4/basis/cc-pvdz.gbs
    atoms 7-12, 15-20 entry H          line    22 file /theoryfs2/ds/metcalf/miniconda2/envs/tf2gpu/share/psi4/basis/cc-pvdz.gbs

         ---------------------------------------------------------
                                   SCF
               by Justin Turney, Rob Parrish, Andy Simmonett
                          and Daniel G. A. Smith
                              RHF Reference
                        1 Threads,    500 MiB Core
         ---------------------------------------------------------

  ==> Geometry <==

    Molecular point group: c1
    Full point group: C1

    Geometry (in Angstrom), charge = 0, multiplicity = 1:

       Center              X                  Y                   Z               Mass
    ------------   -----------------  -----------------  -----------------  -----------------
         C           -0.708597554846     2.234721135886    -1.425943305535    12.000000000000
         C            1.291402445154     0.114721135886     0.750056694465    12.000000000000
         C            0.292402445154     1.287721135886    -0.825943305535    12.000000000000
         C            1.407402445154     0.710721135886    -1.363943305535    12.000000000000
         N            0.250402445154     0.897721135886     0.495056694465    14.003074004430
         N            2.009402445154    -0.017278864114    -0.361943305535    14.003074004430
         H            1.468402445154    -0.311278864114     1.717056694465     1.007825032230
         H            2.857402445154    -0.557278864114    -0.461943305535     1.007825032230
         H            1.820402445154     0.756721135886    -2.362943305535     1.007825032230
         H           -0.327597554846     2.540721135886    -2.398943305535     1.007825032230
         H           -0.750597554846     3.103721135886    -0.766943305535     1.007825032230
         H           -1.733597554846     1.841421135886    -1.494133305535     1.007825032230
         C           -1.770597554846    -2.042278864114     0.636056694465    12.000000000000
         C           -2.388597554846    -2.747278864114     1.913056694465    12.000000000000
         H           -1.521597554846    -1.003278864114     0.865056694465     1.007825032230
         H           -0.856597554846    -2.554278864114     0.328056694465     1.007825032230
         H           -2.479597554846    -2.056278864114    -0.188943305535     1.007825032230
         H           -1.634597554846    -2.663278864114     2.695056694465     1.007825032230
         H           -3.309717554846    -2.257978864114     2.262476694465     1.007825032230
         H           -2.586647554846    -3.813178864114     1.727036694465     1.007825032230

  Running in c1 symmetry.

  Rotational constants: A =      0.09168  B =      0.02985  C =      0.02523 [cm^-1]
  Rotational constants: A =   2748.57881  B =    894.85525  C =    756.28168 [MHz]
  Nuclear repulsion =  353.586014644840986

  Charge       = 0
  Multiplicity = 1
  Electrons    = 62
  Nalpha       = 31
  Nbeta        = 31

  ==> Algorithm <==

  SCF Algorithm Type is PK.
  DIIS enabled.
  MOM disabled.
  Fractional occupation disabled.
  Guess Type is SAD.
  Energy threshold   = 1.00e-06
  Density threshold  = 1.00e-10
  Integral threshold = 0.00e+00

  ==> Primary Basis <==

  Basis Set: CC-PVDZ
    Blend: CC-PVDZ
    Number of shells: 84
    Number of basis function: 172
    Number of Cartesian functions: 180
    Spherical Harmonics?: true
    Max angular momentum: 2

  ==> Pre-Iterations <==

   -------------------------------------------------------
    Irrep   Nso     Nmo     Nalpha   Nbeta   Ndocc  Nsocc
   -------------------------------------------------------
     A        172     172       0       0       0       0
   -------------------------------------------------------
    Total     172     172      31      31      31       0
   -------------------------------------------------------

  ==> Integral Setup <==

  Using integral reordering PK algorithm.
  Sizing the integral batches needed.
  Building batch lookup table.
   Calculation information:
      Number of atoms:                  20
      Number of AO shells:              84
      Number of primitives:            236
      Number of atomic orbitals:       180
      Number of basis functions:       172

      Integral cutoff                 1.00e-12
      Number of threads:                 1

	Batch   1 pq = [       0,    9405] index = [             0,44231715] size =     44231715
	Batch   2 pq = [    9405,   13301] index = [      44231715,88464951] size =     44233236
	Batch   3 pq = [   13301,   14878] index = [      88464951,110684881] size =     22219930
  Task number: 11
  Buffer size: 11059200
  Buffer per thread: 2
  We computed 5303487 shell quartets total.
  Whereas there are 6374235 unique shell quartets.

  ==> DiskJK: Disk-Based J/K Matrices <==

    J tasked:                  Yes
    K tasked:                  Yes
    wK tasked:                  No
    Memory [MiB]:              375
    Schwarz Cutoff:          1E-12

    OpenMP threads:              1

  Minimum eigenvalue in the overlap matrix is 1.1765530541E-03.
  Using Symmetric Orthogonalization.

  SCF Guess: Superposition of Atomic Densities via on-the-fly atomic UHF.

  ==> Iterations <==

                        Total Energy        Delta E     RMS |[F,P]|

   @RHF iter SAD:  -342.10040922589218   -3.42100e+02   0.00000e+00
   @RHF iter   1:  -342.89531053130224   -7.94901e-01   3.29393e-03 DIIS
   @RHF iter   2:  -343.06227332829599   -1.66963e-01   1.65812e-03 DIIS
   @RHF iter   3:  -343.10072352976636   -3.84502e-02   4.36369e-04 DIIS
   @RHF iter   4:  -343.10418667953684   -3.46315e-03   1.79498e-04 DIIS
   @RHF iter   5:  -343.10473986228146   -5.53183e-04   2.62028e-05 DIIS
   @RHF iter   6:  -343.10476014492849   -2.02826e-05   1.14185e-05 DIIS
   @RHF iter   7:  -343.10476348274562   -3.33782e-06   3.93093e-06 DIIS
   @RHF iter   8:  -343.10476419986048   -7.17115e-07   1.56426e-06 DIIS
   @RHF iter   9:  -343.10476435179470   -1.51934e-07   5.53993e-07 DIIS
   @RHF iter  10:  -343.10476436616341   -1.43687e-08   1.74446e-07 DIIS
   @RHF iter  11:  -343.10476436785740   -1.69399e-09   7.70554e-08 DIIS
   @RHF iter  12:  -343.10476436808756   -2.30159e-10   3.06799e-08 DIIS
   @RHF iter  13:  -343.10476436813121   -4.36557e-11   8.80804e-09 DIIS
   @RHF iter  14:  -343.10476436813542   -4.20641e-12   3.30139e-09 DIIS
   @RHF iter  15:  -343.10476436813633   -9.09495e-13   1.31217e-09 DIIS
   @RHF iter  16:  -343.10476436813570    6.25278e-13   4.13802e-10 DIIS
   @RHF iter  17:  -343.10476436813610   -3.97904e-13   1.23518e-10 DIIS
   @RHF iter  18:  -343.10476436813502    1.08002e-12   4.59397e-11 DIIS
  Energy and wave function converged.

  ==> Post-Iterations <==

    Orbital Energies [Eh]
    ---------------------

    Doubly Occupied:

       1A    -15.621922     2A    -15.529185     3A    -11.292713
       4A    -11.253315     5A    -11.245267     6A    -11.225315
       7A    -11.212958     8A    -11.204376     9A     -1.342387
      10A     -1.155923    11A     -1.030730    12A     -0.991488
      13A     -0.941368    14A     -0.828743    15A     -0.819800
      16A     -0.768420    17A     -0.739811    18A     -0.611904
      19A     -0.604212    20A     -0.598933    21A     -0.579355
      22A     -0.576339    23A     -0.552731    24A     -0.540638
      25A     -0.523826    26A     -0.482469    27A     -0.477666
      28A     -0.471499    29A     -0.411646    30A     -0.378418
      31A     -0.309700

    Virtual:

      32A      0.170264    33A      0.184742    34A      0.194997
      35A      0.201583    36A      0.220443    37A      0.228161
      38A      0.231809    39A      0.251423    40A      0.269820
      41A      0.278124    42A      0.280351    43A      0.293743
      44A      0.307218    45A      0.330035    46A      0.378717
      47A      0.387389    48A      0.398515    49A      0.424403
      50A      0.473228    51A      0.494523    52A      0.594250
      53A      0.601957    54A      0.606264    55A      0.613449
      56A      0.623437    57A      0.643635    58A      0.651165
      59A      0.666555    60A      0.706397    61A      0.715470
      62A      0.745659    63A      0.756759    64A      0.777356
      65A      0.799388    66A      0.812736    67A      0.829424
      68A      0.847235    69A      0.875753    70A      0.880448
      71A      0.900202    72A      0.901201    73A      0.903819
      74A      0.909724    75A      0.919033    76A      0.928308
      77A      0.932271    78A      0.950363    79A      0.961810
      80A      0.978507    81A      1.003057    82A      1.037066
      83A      1.054613    84A      1.089993    85A      1.101630
      86A      1.125484    87A      1.138200    88A      1.147440
      89A      1.152150    90A      1.212547    91A      1.249061
      92A      1.260950    93A      1.293001    94A      1.322533
      95A      1.327198    96A      1.329742    97A      1.423753
      98A      1.445763    99A      1.466303   100A      1.477389
     101A      1.490054   102A      1.526779   103A      1.566715
     104A      1.572157   105A      1.611630   106A      1.650462
     107A      1.683438   108A      1.693531   109A      1.699566
     110A      1.714888   111A      1.772008   112A      1.801877
     113A      1.815264   114A      1.852373   115A      1.861239
     116A      1.889834   117A      1.900455   118A      1.913314
     119A      1.928286   120A      1.931054   121A      1.940416
     122A      1.947304   123A      1.951821   124A      1.957892
     125A      1.969073   126A      1.979289   127A      1.989174
     128A      2.009655   129A      2.042570   130A      2.087589
     131A      2.103013   132A      2.127475   133A      2.131341
     134A      2.145002   135A      2.177512   136A      2.197212
     137A      2.220056   138A      2.294775   139A      2.301782
     140A      2.322147   141A      2.353677   142A      2.396659
     143A      2.439073   144A      2.447545   145A      2.462388
     146A      2.470358   147A      2.480737   148A      2.544739
     149A      2.551479   150A      2.582014   151A      2.616002
     152A      2.683915   153A      2.742290   154A      2.761869
     155A      2.768617   156A      2.770979   157A      2.783600
     158A      2.808635   159A      2.817830   160A      2.844994
     161A      2.853365   162A      2.865630   163A      2.894662
     164A      2.914717   165A      2.949708   166A      2.959670
     167A      2.966725   168A      3.100611   169A      3.170041
     170A      3.240960   171A      3.472985   172A      3.794598

    Final Occupation by Irrep:
              A
    DOCC [    31 ]

  @RHF Final Energy:  -343.10476436813502

   => Energetics <=

    Nuclear Repulsion Energy =            353.5860146448409864
    One-Electron Energy =               -1164.7354462816804244
    Two-Electron Energy =                 468.0446672687043588
    Total Energy =                       -343.1047643681350223

Computation Completed

Properties will be evaluated at   0.000000,   0.000000,   0.000000 [a0]

Properties computed using the SCF density matrix

  Nuclear Dipole Moment: [e a0]
     X:    -8.4947      Y:    -6.5407      Z:     1.8004

  Electronic Dipole Moment: [e a0]
     X:     9.7091      Y:     6.1119      Z:    -2.3158

  Dipole Moment: [e a0]
     X:     1.2144      Y:    -0.4288      Z:    -0.5154     Total:     1.3872

  Dipole Moment: [D]
     X:     3.0867      Y:    -1.0899      Z:    -1.3099     Total:     3.5258

*** tstop() called on ds3 at Tue Apr 28 14:28:34 2020
Module time:
	user time   =      38.49 seconds =       0.64 minutes
	system time =      17.13 seconds =       0.29 minutes
	total time  =         90 seconds =       1.50 minutes
Total time:
	user time   =      38.49 seconds =       0.64 minutes
	system time =      17.13 seconds =       0.29 minutes
	total time  =         90 seconds =       1.50 minutes
                                     G D M A

                                 by Anthony Stone

                           version 2.2.06, 22 June 2011

               Distributed Multipoles from Gaussian wavefunctions

Starting at 14:28:34 on 28 Apr 2020

Using SCF density matrix from file ./SSI/SSI-227HIE-256LEU-1-dimer.test.25053.fchk

                         Distributed Multipole Analysis

Standard DMA

Positions and radii in angstrom
Multipole moments in atomic units, ea_0^k for rank k

C          x = -0.708598  y =  2.234721  z = -1.425943 angstrom
           Maximum rank =  0   Radius =  0.650 angstrom
                   Q00  =  -0.189841

C          x =  1.291402  y =  0.114721  z =  0.750057 angstrom
           Maximum rank =  0   Radius =  0.650 angstrom
                   Q00  =   0.464209

C          x =  0.292402  y =  1.287721  z = -0.825943 angstrom
           Maximum rank =  0   Radius =  0.650 angstrom
                   Q00  =   0.225678

C          x =  1.407402  y =  0.710721  z = -1.363943 angstrom
           Maximum rank =  0   Radius =  0.650 angstrom
                   Q00  =  -0.022369

N          x =  0.250402  y =  0.897721  z =  0.495057 angstrom
           Maximum rank =  0   Radius =  0.650 angstrom
                   Q00  =  -0.779003

N          x =  2.009402  y = -0.017279  z = -0.361943 angstrom
           Maximum rank =  0   Radius =  0.650 angstrom
                   Q00  =  -0.452651

H          x =  1.468402  y = -0.311279  z =  1.717057 angstrom
           Maximum rank =  0   Radius =  0.325 angstrom
                   Q00  =   0.124181

H          x =  2.857402  y = -0.557279  z = -0.461943 angstrom
           Maximum rank =  0   Radius =  0.325 angstrom
                   Q00  =   0.219860

H          x =  1.820402  y =  0.756721  z = -2.362943 angstrom
           Maximum rank =  0   Radius =  0.325 angstrom
                   Q00  =   0.101178

H          x = -0.327598  y =  2.540721  z = -2.398943 angstrom
           Maximum rank =  0   Radius =  0.325 angstrom
                   Q00  =   0.093459

H          x = -0.750598  y =  3.103721  z = -0.766943 angstrom
           Maximum rank =  0   Radius =  0.325 angstrom
                   Q00  =   0.111191

H          x = -1.733598  y =  1.841421  z = -1.494133 angstrom
           Maximum rank =  0   Radius =  0.325 angstrom
                   Q00  =   0.110197

C          x = -1.770598  y = -2.042279  z =  0.636057 angstrom
           Maximum rank =  0   Radius =  0.650 angstrom
                   Q00  =  -0.244537

C          x = -2.388598  y = -2.747279  z =  1.913057 angstrom
           Maximum rank =  0   Radius =  0.650 angstrom
                   Q00  =  -0.252872

H          x = -1.521598  y = -1.003279  z =  0.865057 angstrom
           Maximum rank =  0   Radius =  0.325 angstrom
                   Q00  =   0.105397

H          x = -0.856598  y = -2.554279  z =  0.328057 angstrom
           Maximum rank =  0   Radius =  0.325 angstrom
                   Q00  =   0.071443

H          x = -2.479598  y = -2.056279  z = -0.188943 angstrom
           Maximum rank =  0   Radius =  0.325 angstrom
                   Q00  =   0.076962

H          x = -1.634598  y = -2.663279  z =  2.695057 angstrom
           Maximum rank =  0   Radius =  0.325 angstrom
                   Q00  =   0.074752

H          x = -3.309718  y = -2.257979  z =  2.262477 angstrom
           Maximum rank =  0   Radius =  0.325 angstrom
                   Q00  =   0.085758

H          x = -2.586648  y = -3.813179  z =  1.727037 angstrom
           Maximum rank =  0   Radius =  0.325 angstrom
                   Q00  =   0.077006

Total multipoles referred to origin at
           x =   0.000000,  y =    0.000000,  z =    0.000000 angstrom
                   Q00  =  -0.000000

Finished at 14:28:34 on 28 Apr 2020

  DMA results are available in the Python driver through the
	  variable('DMA DISTRIBUTED MULTIPOLES')
  and
	  variable('DMA TOTAL MULTIPOLES')
  commands.

    Psi4 stopped on: Tuesday, 28 April 2020 02:28PM
    Psi4 wall time for execution: 0:01:29.95

*** Psi4 exiting successfully. Buy a developer a beer!
