                               Psi4 1.3.2 release

  ==> Input File <==

--------------------------------------------------------------------------
import numpy as np
set {scf_type pk
basis cc-pvdz
d_convergence 10
gdma_switch   0
gdma_limit    0
gdma_origin   [ 0.0,  0.0,  0.0 ]
}
molecule test {
    units Angstrom
    0 1
    --
    0 1
    C                1.207194119572211    -2.325645296070771     0.470220765349816
    C                1.048194119572211    -0.502645296070771    -1.269779234650184
    C                1.306194119572211    -0.877645296070771     0.050220765349816
    C                1.122194119572211     0.839354703929229    -1.653779234650184
    C                1.637194119572211     0.114354703929229     0.983220765349816
    C                1.457194119572211     1.819354703929229    -0.717779234650184
    C                1.716194119572211     1.456354703929229     0.602220765349816
    H                0.784194119572211    -1.255645296070771    -1.996779234650184
    H                0.917194119572211     1.122354703929229    -2.677779234650184
    H                1.173194119572211    -2.968645296070771    -0.410779234650184
    H                0.263194119572211    -2.443645296070771     1.004220765349816
    H                1.808194119572211    -0.130645296070771     2.020220765349816
    H                1.514194119572211     2.858354703929229    -1.015779234650184
    H                1.968194119572211     2.213354703929229     1.333220765349816
    H                2.025484119572211    -2.654398296070771     1.127730765349816
    C               -2.267805880427789    -0.222645296070771     0.423220765349816
    C               -3.371805880427789    -0.985645296070771    -0.316779234650184
    C               -2.799805880427789     0.993354703929229     1.194220765349816
    H               -1.751805880427789    -0.893645296070771     1.110220765349816
    H               -1.541805880427789     0.127354703929229    -0.311779234650184
    H               -3.923805880427789    -0.303645296070771    -0.962779234650184
    H               -3.482805880427789     0.662354703929229     1.974220765349816
    H               -4.059265880427789    -1.446719296070771     0.407660765349816
    H               -2.951885880427789    -1.747559296070771    -0.989949234650184
    H               -1.964695880427789     1.523478703929229     1.675430765349816
    H               -3.338775880427789     1.663479703929229     0.508330765349816

}
e, wfn = energy('scf', return_wfn=True)
gdma(wfn)
dmavals = variable('DMA DISTRIBUTED MULTIPOLES')
charges = np.array(dmavals)
print(charges)
np.save('SSI-068PHE-076LEU-1-dimer.npy', np.array(charges))--------------------------------------------------------------------------

*** tstart() called on ds3
*** at Mon Apr 27 19:31:30 2020

   => Loading Basis Set <=

    Name: CC-PVDZ
    Role: ORBITAL
    Keyword: BASIS
    atoms 1-7, 16-18  entry C          line   138 file /theoryfs2/ds/metcalf/miniconda2/envs/tf2gpu/share/psi4/basis/cc-pvdz.gbs
    atoms 8-15, 19-26 entry H          line    22 file /theoryfs2/ds/metcalf/miniconda2/envs/tf2gpu/share/psi4/basis/cc-pvdz.gbs

         ---------------------------------------------------------
                                   SCF
               by Justin Turney, Rob Parrish, Andy Simmonett
                          and Daniel G. A. Smith
                              RHF Reference
                        1 Threads,    500 MiB Core
         ---------------------------------------------------------

  ==> Geometry <==

    Molecular point group: c1
    Full point group: C1

    Geometry (in Angstrom), charge = 0, multiplicity = 1:

       Center              X                  Y                   Z               Mass
    ------------   -----------------  -----------------  -----------------  -----------------
         C            1.207194119572    -2.325645296071     0.470220765350    12.000000000000
         C            1.048194119572    -0.502645296071    -1.269779234650    12.000000000000
         C            1.306194119572    -0.877645296071     0.050220765350    12.000000000000
         C            1.122194119572     0.839354703929    -1.653779234650    12.000000000000
         C            1.637194119572     0.114354703929     0.983220765350    12.000000000000
         C            1.457194119572     1.819354703929    -0.717779234650    12.000000000000
         C            1.716194119572     1.456354703929     0.602220765350    12.000000000000
         H            0.784194119572    -1.255645296071    -1.996779234650     1.007825032230
         H            0.917194119572     1.122354703929    -2.677779234650     1.007825032230
         H            1.173194119572    -2.968645296071    -0.410779234650     1.007825032230
         H            0.263194119572    -2.443645296071     1.004220765350     1.007825032230
         H            1.808194119572    -0.130645296071     2.020220765350     1.007825032230
         H            1.514194119572     2.858354703929    -1.015779234650     1.007825032230
         H            1.968194119572     2.213354703929     1.333220765350     1.007825032230
         H            2.025484119572    -2.654398296071     1.127730765350     1.007825032230
         C           -2.267805880428    -0.222645296071     0.423220765350    12.000000000000
         C           -3.371805880428    -0.985645296071    -0.316779234650    12.000000000000
         C           -2.799805880428     0.993354703929     1.194220765350    12.000000000000
         H           -1.751805880428    -0.893645296071     1.110220765350     1.007825032230
         H           -1.541805880428     0.127354703929    -0.311779234650     1.007825032230
         H           -3.923805880428    -0.303645296071    -0.962779234650     1.007825032230
         H           -3.482805880428     0.662354703929     1.974220765350     1.007825032230
         H           -4.059265880428    -1.446719296071     0.407660765350     1.007825032230
         H           -2.951885880428    -1.747559296071    -0.989949234650     1.007825032230
         H           -1.964695880428     1.523478703929     1.675430765350     1.007825032230
         H           -3.338775880428     1.663479703929     0.508330765350     1.007825032230

  Running in c1 symmetry.

  Rotational constants: A =      0.04932  B =      0.02500  C =      0.02178 [cm^-1]
  Rotational constants: A =   1478.61266  B =    749.54720  C =    652.79894 [MHz]
  Nuclear repulsion =  499.405845161011882

  Charge       = 0
  Multiplicity = 1
  Electrons    = 76
  Nalpha       = 38
  Nbeta        = 38

  ==> Algorithm <==

  SCF Algorithm Type is PK.
  DIIS enabled.
  MOM disabled.
  Fractional occupation disabled.
  Guess Type is SAD.
  Energy threshold   = 1.00e-06
  Density threshold  = 1.00e-10
  Integral threshold = 0.00e+00

  ==> Primary Basis <==

  Basis Set: CC-PVDZ
    Blend: CC-PVDZ
    Number of shells: 108
    Number of basis function: 220
    Number of Cartesian functions: 230
    Spherical Harmonics?: true
    Max angular momentum: 2

  ==> Pre-Iterations <==

   -------------------------------------------------------
    Irrep   Nso     Nmo     Nalpha   Nbeta   Ndocc  Nsocc
   -------------------------------------------------------
     A        220     220       0       0       0       0
   -------------------------------------------------------
    Total     220     220      38      38      38       0
   -------------------------------------------------------

  ==> Integral Setup <==

  Using integral reordering PK algorithm.
  Sizing the integral batches needed.
  Building batch lookup table.
   Calculation information:
      Number of atoms:                  26
      Number of AO shells:             108
      Number of primitives:            300
      Number of atomic orbitals:       230
      Number of basis functions:       220

      Integral cutoff                 1.00e-12
      Number of threads:                 1

	Batch   1 pq = [       0,    9405] index = [             0,44231715] size =     44231715
	Batch   2 pq = [    9405,   13301] index = [      44231715,88464951] size =     44233236
	Batch   3 pq = [   13301,   16290] index = [      88464951,132690195] size =     44225244
	Batch   4 pq = [   16290,   18810] index = [     132690195,176917455] size =     44227260
	Batch   5 pq = [   18810,   21030] index = [     176917455,221140965] size =     44223510
	Batch   6 pq = [   21030,   23037] index = [     221140965,265363203] size =     44222238
	Batch   7 pq = [   23037,   24310] index = [     265363203,295500205] size =     30137002
  Task number: 27
  Buffer size: 11059200
  Buffer per thread: 2
  We computed 17054708 shell quartets total.
  Whereas there are 17325441 unique shell quartets.

  ==> DiskJK: Disk-Based J/K Matrices <==

    J tasked:                  Yes
    K tasked:                  Yes
    wK tasked:                  No
    Memory [MiB]:              375
    Schwarz Cutoff:          1E-12

    OpenMP threads:              1

  Minimum eigenvalue in the overlap matrix is 3.1900706013E-04.
  Using Symmetric Orthogonalization.

  SCF Guess: Superposition of Atomic Densities via on-the-fly atomic UHF.

  ==> Iterations <==

                        Total Energy        Delta E     RMS |[F,P]|

   @RHF iter SAD:  -386.79926047243902   -3.86799e+02   0.00000e+00
   @RHF iter   1:  -387.77476887667336   -9.75508e-01   2.73451e-03 DIIS
   @RHF iter   2:  -387.99187547809066   -2.17107e-01   1.14762e-03 DIIS
   @RHF iter   3:  -388.02658759363021   -3.47121e-02   2.48257e-04 DIIS
   @RHF iter   4:  -388.02944192839738   -2.85433e-03   5.06078e-05 DIIS
   @RHF iter   5:  -388.02952694327041   -8.50149e-05   1.57473e-05 DIIS
   @RHF iter   6:  -388.02953477151516   -7.82824e-06   4.67524e-06 DIIS
   @RHF iter   7:  -388.02953554030051   -7.68785e-07   1.24613e-06 DIIS
   @RHF iter   8:  -388.02953560300284   -6.27023e-08   2.84250e-07 DIIS
   @RHF iter   9:  -388.02953560990636   -6.90352e-09   1.14996e-07 DIIS
   @RHF iter  10:  -388.02953561127515   -1.36879e-09   5.37518e-08 DIIS
   @RHF iter  11:  -388.02953561171620   -4.41048e-10   2.11398e-08 DIIS
   @RHF iter  12:  -388.02953561179379   -7.75913e-11   8.30541e-09 DIIS
   @RHF iter  13:  -388.02953561180431   -1.05160e-11   3.29965e-09 DIIS
   @RHF iter  14:  -388.02953561180419    1.13687e-13   8.78221e-10 DIIS
   @RHF iter  15:  -388.02953561180544   -1.25056e-12   3.52923e-10 DIIS
   @RHF iter  16:  -388.02953561180647   -1.02318e-12   1.23463e-10 DIIS
   @RHF iter  17:  -388.02953561180794   -1.47793e-12   5.74911e-11 DIIS
  Energy and wave function converged.

  ==> Post-Iterations <==

    Orbital Energies [Eh]
    ---------------------

    Doubly Occupied:

       1A    -11.243690     2A    -11.237930     3A    -11.237746
       4A    -11.233137     5A    -11.232519     6A    -11.232298
       7A    -11.230929     8A    -11.212218     9A    -11.210723
      10A    -11.210140    11A     -1.150822    12A     -1.044252
      13A     -1.042772    14A     -1.010925    15A     -0.931400
      16A     -0.916544    17A     -0.824628    18A     -0.795741
      19A     -0.789144    20A     -0.690573    21A     -0.632537
      22A     -0.629362    23A     -0.618463    24A     -0.588312
      25A     -0.582787    26A     -0.574356    27A     -0.562656
      28A     -0.539151    29A     -0.537602    30A     -0.526356
      31A     -0.489227    32A     -0.485899    33A     -0.481473
      34A     -0.466098    35A     -0.461233    36A     -0.455714
      37A     -0.332049    38A     -0.321501

    Virtual:

      39A      0.132796    40A      0.139770    41A      0.171581
      42A      0.195465    43A      0.200997    44A      0.208948
      45A      0.234971    46A      0.241151    47A      0.245996
      48A      0.250251    49A      0.251588    50A      0.268459
      51A      0.274675    52A      0.289744    53A      0.297246
      54A      0.306130    55A      0.311273    56A      0.342109
      57A      0.369057    58A      0.373184    59A      0.388915
      60A      0.428523    61A      0.449872    62A      0.461023
      63A      0.472594    64A      0.495474    65A      0.560968
      66A      0.576243    67A      0.588104    68A      0.605006
      69A      0.606223    70A      0.615916    71A      0.623027
      72A      0.655075    73A      0.675283    74A      0.702067
      75A      0.707851    76A      0.738108    77A      0.740891
      78A      0.744852    79A      0.748041    80A      0.756950
      81A      0.764310    82A      0.784542    83A      0.796527
      84A      0.808792    85A      0.832540    86A      0.841447
      87A      0.846063    88A      0.857772    89A      0.865048
      90A      0.882762    91A      0.890341    92A      0.897169
      93A      0.900353    94A      0.902745    95A      0.905594
      96A      0.910657    97A      0.917429    98A      0.924380
      99A      0.930960   100A      0.933917   101A      0.950526
     102A      0.964473   103A      0.974007   104A      0.979424
     105A      0.995982   106A      1.009182   107A      1.043873
     108A      1.081893   109A      1.127413   110A      1.130280
     111A      1.132235   112A      1.144547   113A      1.155095
     114A      1.160720   115A      1.196004   116A      1.217785
     117A      1.232388   118A      1.247051   119A      1.257605
     120A      1.284960   121A      1.292789   122A      1.306634
     123A      1.315595   124A      1.322360   125A      1.388387
     126A      1.414729   127A      1.477623   128A      1.487689
     129A      1.510674   130A      1.523390   131A      1.531596
     132A      1.567590   133A      1.598604   134A      1.651757
     135A      1.674495   136A      1.682376   137A      1.690252
     138A      1.693833   139A      1.710826   140A      1.731835
     141A      1.750733   142A      1.760290   143A      1.792680
     144A      1.817404   145A      1.855115   146A      1.869098
     147A      1.877811   148A      1.880891   149A      1.884991
     150A      1.898891   151A      1.906363   152A      1.916578
     153A      1.921835   154A      1.929165   155A      1.942341
     156A      1.944015   157A      1.947303   158A      1.957215
     159A      1.971760   160A      1.976339   161A      1.977786
     162A      1.985024   163A      1.991017   164A      2.000913
     165A      2.010076   166A      2.020733   167A      2.034798
     168A      2.049530   169A      2.065139   170A      2.077989
     171A      2.117639   172A      2.127598   173A      2.142083
     174A      2.152633   175A      2.154869   176A      2.168579
     177A      2.176583   178A      2.188775   179A      2.256321
     180A      2.261288   181A      2.282667   182A      2.288244
     183A      2.301336   184A      2.312877   185A      2.316697
     186A      2.330846   187A      2.342913   188A      2.356610
     189A      2.443305   190A      2.471994   191A      2.486037
     192A      2.511262   193A      2.540627   194A      2.541300
     195A      2.583785   196A      2.621541   197A      2.631035
     198A      2.633205   199A      2.728385   200A      2.745353
     201A      2.759058   202A      2.763027   203A      2.768637
     204A      2.787622   205A      2.791924   206A      2.804373
     207A      2.818257   208A      2.846975   209A      2.856815
     210A      2.919252   211A      2.964829   212A      2.976271
     213A      2.986043   214A      3.015127   215A      3.029089
     216A      3.105934   217A      3.156971   218A      3.190773
     219A      3.289972   220A      3.949485

    Final Occupation by Irrep:
              A
    DOCC [    38 ]

  @RHF Final Energy:  -388.02953561180794

   => Energetics <=

    Nuclear Repulsion Energy =            499.4058451610118823
    One-Electron Energy =               -1513.3449457452418301
    Two-Electron Energy =                 625.9095649724220038
    Total Energy =                       -388.0295356118078871

Computation Completed

Properties will be evaluated at   0.000000,   0.000000,   0.000000 [a0]

Properties computed using the SCF density matrix

  Nuclear Dipole Moment: [e a0]
     X:   -11.7756      Y:    -3.4441      Z:     2.6208

  Electronic Dipole Moment: [e a0]
     X:    11.8698      Y:     3.3482      Z:    -2.5963

  Dipole Moment: [e a0]
     X:     0.0942      Y:    -0.0959      Z:     0.0246     Total:     0.1367

  Dipole Moment: [D]
     X:     0.2395      Y:    -0.2438      Z:     0.0624     Total:     0.3474

*** tstop() called on ds3 at Mon Apr 27 19:37:03 2020
Module time:
	user time   =     116.87 seconds =       1.95 minutes
	system time =      40.18 seconds =       0.67 minutes
	total time  =        333 seconds =       5.55 minutes
Total time:
	user time   =     116.87 seconds =       1.95 minutes
	system time =      40.18 seconds =       0.67 minutes
	total time  =        333 seconds =       5.55 minutes
                                     G D M A

                                 by Anthony Stone

                           version 2.2.06, 22 June 2011

               Distributed Multipoles from Gaussian wavefunctions

Starting at 19:37:3 on 27 Apr 2020

Using SCF density matrix from file ./SSI/SSI-068PHE-076LEU-1-dimer.test.7164.fchk

                         Distributed Multipole Analysis

Standard DMA

Positions and radii in angstrom
Multipole moments in atomic units, ea_0^k for rank k

C          x =  1.207194  y = -2.325645  z =  0.470221 angstrom
           Maximum rank =  0   Radius =  0.650 angstrom
                   Q00  =  -0.203876

C          x =  1.048194  y = -0.502645  z = -1.269779 angstrom
           Maximum rank =  0   Radius =  0.650 angstrom
                   Q00  =  -0.087790

C          x =  1.306194  y = -0.877645  z =  0.050221 angstrom
           Maximum rank =  0   Radius =  0.650 angstrom
                   Q00  =  -0.085944

C          x =  1.122194  y =  0.839355  z = -1.653779 angstrom
           Maximum rank =  0   Radius =  0.650 angstrom
                   Q00  =  -0.064868

C          x =  1.637194  y =  0.114355  z =  0.983221 angstrom
           Maximum rank =  0   Radius =  0.650 angstrom
                   Q00  =  -0.005764

C          x =  1.457194  y =  1.819355  z = -0.717779 angstrom
           Maximum rank =  0   Radius =  0.650 angstrom
                   Q00  =  -0.080354

C          x =  1.716194  y =  1.456355  z =  0.602221 angstrom
           Maximum rank =  0   Radius =  0.650 angstrom
                   Q00  =  -0.078133

H          x =  0.784194  y = -1.255645  z = -1.996779 angstrom
           Maximum rank =  0   Radius =  0.325 angstrom
                   Q00  =   0.059165

H          x =  0.917194  y =  1.122355  z = -2.677779 angstrom
           Maximum rank =  0   Radius =  0.325 angstrom
                   Q00  =   0.066121

H          x =  1.173194  y = -2.968645  z = -0.410779 angstrom
           Maximum rank =  0   Radius =  0.325 angstrom
                   Q00  =   0.098936

H          x =  0.263194  y = -2.443645  z =  1.004221 angstrom
           Maximum rank =  0   Radius =  0.325 angstrom
                   Q00  =   0.100316

H          x =  1.808194  y = -0.130645  z =  2.020221 angstrom
           Maximum rank =  0   Radius =  0.325 angstrom
                   Q00  =   0.056665

H          x =  1.514194  y =  2.858355  z = -1.015779 angstrom
           Maximum rank =  0   Radius =  0.325 angstrom
                   Q00  =   0.062790

H          x =  1.968194  y =  2.213355  z =  1.333221 angstrom
           Maximum rank =  0   Radius =  0.325 angstrom
                   Q00  =   0.066304

H          x =  2.025484  y = -2.654398  z =  1.127731 angstrom
           Maximum rank =  0   Radius =  0.325 angstrom
                   Q00  =   0.102187

C          x = -2.267806  y = -0.222645  z =  0.423221 angstrom
           Maximum rank =  0   Radius =  0.650 angstrom
                   Q00  =  -0.076668

C          x = -3.371806  y = -0.985645  z = -0.316779 angstrom
           Maximum rank =  0   Radius =  0.650 angstrom
                   Q00  =  -0.250546

C          x = -2.799806  y =  0.993355  z =  1.194221 angstrom
           Maximum rank =  0   Radius =  0.650 angstrom
                   Q00  =  -0.241134

H          x = -1.751806  y = -0.893645  z =  1.110221 angstrom
           Maximum rank =  0   Radius =  0.325 angstrom
                   Q00  =   0.042481

H          x = -1.541806  y =  0.127355  z = -0.311779 angstrom
           Maximum rank =  0   Radius =  0.325 angstrom
                   Q00  =   0.060526

H          x = -3.923806  y = -0.303645  z = -0.962779 angstrom
           Maximum rank =  0   Radius =  0.325 angstrom
                   Q00  =   0.075495

H          x = -3.482806  y =  0.662355  z =  1.974221 angstrom
           Maximum rank =  0   Radius =  0.325 angstrom
                   Q00  =   0.071155

H          x = -4.059266  y = -1.446719  z =  0.407661 angstrom
           Maximum rank =  0   Radius =  0.325 angstrom
                   Q00  =   0.073482

H          x = -2.951886  y = -1.747559  z = -0.989949 angstrom
           Maximum rank =  0   Radius =  0.325 angstrom
                   Q00  =   0.078481

H          x = -1.964696  y =  1.523479  z =  1.675431 angstrom
           Maximum rank =  0   Radius =  0.325 angstrom
                   Q00  =   0.085647

H          x = -3.338776  y =  1.663480  z =  0.508331 angstrom
           Maximum rank =  0   Radius =  0.325 angstrom
                   Q00  =   0.075325

Total multipoles referred to origin at
           x =   0.000000,  y =    0.000000,  z =    0.000000 angstrom
                   Q00  =  -0.000000

Finished at 19:37:3 on 27 Apr 2020

  DMA results are available in the Python driver through the
	  variable('DMA DISTRIBUTED MULTIPOLES')
  and
	  variable('DMA TOTAL MULTIPOLES')
  commands.

    Psi4 stopped on: Monday, 27 April 2020 07:37PM
    Psi4 wall time for execution: 0:05:33.46

*** Psi4 exiting successfully. Buy a developer a beer!
