                               Psi4 1.3.2 release

  ==> Input File <==

--------------------------------------------------------------------------
import numpy as np
set {scf_type pk
basis cc-pvdz
d_convergence 10
gdma_switch   0
gdma_limit    0
gdma_origin   [ 0.0,  0.0,  0.0 ]
}
molecule test {
    units Angstrom
    0 1
    --
    0 1
    C               -0.709365134159159     2.379248665484915    -1.345357072336830
    C               -1.537365134159159     0.100248665484915    -0.929357072336830
    N               -1.481365134159159    -1.007751334515085    -0.223357072336830
    N               -0.710365134159159     1.098248665484915    -0.631357072336830
    N               -2.403365134159158     0.197248665484915    -1.949357072336830
    H               -0.831365134159159    -1.063751334515085     0.556642927663170
    H               -2.118365134159159    -1.777751334515085    -0.377357072336830
    H                0.012634865840841     0.939248665484915     0.076642927663170
    H               -2.531365134159159     1.069248665484915    -2.437357072336830
    H               -3.040365134159159    -0.562751334515085    -2.146357072336830
    H               -1.631365134159159     2.917248665484915    -1.131357072336830
    H               -0.697365134159159     2.165248665484915    -2.416357072336830
    H                0.155714865840841     3.031117665484915    -1.153757072336830
    C                2.907634865840841    -1.331751334515085     0.909642927663170
    C                1.645634865840841    -0.646751334515085     1.298642927663170
    O                0.830634865840841    -1.305751334515085     2.010642927663170
    O                1.526634865840841     0.539248665484915     0.909642927663170
    H                3.126634865840841    -2.124751334515085     1.626642927663170
    H                3.750634865840841    -0.639751334515085     0.905642927663170
    H                2.775284865840841    -1.751703334515085    -0.098387072336830

}
e, wfn = energy('scf', return_wfn=True)
gdma(wfn)
dmavals = variable('DMA DISTRIBUTED MULTIPOLES')
charges = np.array(dmavals)
print(charges)
np.save('SSI-024ARG-076GLU-1-dimer.npy', np.array(charges))--------------------------------------------------------------------------

*** tstart() called on ds3
*** at Mon Apr 27 22:48:28 2020

   => Loading Basis Set <=

    Name: CC-PVDZ
    Role: ORBITAL
    Keyword: BASIS
    atoms 1-2, 14-15  entry C          line   138 file /theoryfs2/ds/metcalf/miniconda2/envs/tf2gpu/share/psi4/basis/cc-pvdz.gbs
    atoms 3-5         entry N          line   168 file /theoryfs2/ds/metcalf/miniconda2/envs/tf2gpu/share/psi4/basis/cc-pvdz.gbs
    atoms 6-13, 18-20 entry H          line    22 file /theoryfs2/ds/metcalf/miniconda2/envs/tf2gpu/share/psi4/basis/cc-pvdz.gbs
    atoms 16-17       entry O          line   198 file /theoryfs2/ds/metcalf/miniconda2/envs/tf2gpu/share/psi4/basis/cc-pvdz.gbs

         ---------------------------------------------------------
                                   SCF
               by Justin Turney, Rob Parrish, Andy Simmonett
                          and Daniel G. A. Smith
                              RHF Reference
                        1 Threads,    500 MiB Core
         ---------------------------------------------------------

  ==> Geometry <==

    Molecular point group: c1
    Full point group: C1

    Geometry (in Angstrom), charge = 0, multiplicity = 1:

       Center              X                  Y                   Z               Mass
    ------------   -----------------  -----------------  -----------------  -----------------
         C           -0.709365134159     2.379248665485    -1.345357072337    12.000000000000
         C           -1.537365134159     0.100248665485    -0.929357072337    12.000000000000
         N           -1.481365134159    -1.007751334515    -0.223357072337    14.003074004430
         N           -0.710365134159     1.098248665485    -0.631357072337    14.003074004430
         N           -2.403365134159     0.197248665485    -1.949357072337    14.003074004430
         H           -0.831365134159    -1.063751334515     0.556642927663     1.007825032230
         H           -2.118365134159    -1.777751334515    -0.377357072337     1.007825032230
         H            0.012634865841     0.939248665485     0.076642927663     1.007825032230
         H           -2.531365134159     1.069248665485    -2.437357072337     1.007825032230
         H           -3.040365134159    -0.562751334515    -2.146357072337     1.007825032230
         H           -1.631365134159     2.917248665485    -1.131357072337     1.007825032230
         H           -0.697365134159     2.165248665485    -2.416357072337     1.007825032230
         H            0.155714865841     3.031117665485    -1.153757072337     1.007825032230
         C            2.907634865841    -1.331751334515     0.909642927663    12.000000000000
         C            1.645634865841    -0.646751334515     1.298642927663    12.000000000000
         O            0.830634865841    -1.305751334515     2.010642927663    15.994914619570
         O            1.526634865841     0.539248665485     0.909642927663    15.994914619570
         H            3.126634865841    -2.124751334515     1.626642927663     1.007825032230
         H            3.750634865841    -0.639751334515     0.905642927663     1.007825032230
         H            2.775284865841    -1.751703334515    -0.098387072337     1.007825032230

  Running in c1 symmetry.

  Rotational constants: A =      0.08667  B =      0.02589  C =      0.02181 [cm^-1]
  Rotational constants: A =   2598.17855  B =    776.17430  C =    653.79681 [MHz]
  Nuclear repulsion =  465.836853888529276

  Charge       = 0
  Multiplicity = 1
  Electrons    = 72
  Nalpha       = 36
  Nbeta        = 36

  ==> Algorithm <==

  SCF Algorithm Type is PK.
  DIIS enabled.
  MOM disabled.
  Fractional occupation disabled.
  Guess Type is SAD.
  Energy threshold   = 1.00e-06
  Density threshold  = 1.00e-10
  Integral threshold = 0.00e+00

  ==> Primary Basis <==

  Basis Set: CC-PVDZ
    Blend: CC-PVDZ
    Number of shells: 87
    Number of basis function: 181
    Number of Cartesian functions: 190
    Spherical Harmonics?: true
    Max angular momentum: 2

  ==> Pre-Iterations <==

   -------------------------------------------------------
    Irrep   Nso     Nmo     Nalpha   Nbeta   Ndocc  Nsocc
   -------------------------------------------------------
     A        181     181       0       0       0       0
   -------------------------------------------------------
    Total     181     181      36      36      36       0
   -------------------------------------------------------

  ==> Integral Setup <==

  Using integral reordering PK algorithm.
  Sizing the integral batches needed.
  Building batch lookup table.
   Calculation information:
      Number of atoms:                  20
      Number of AO shells:              87
      Number of primitives:            253
      Number of atomic orbitals:       190
      Number of basis functions:       181

      Integral cutoff                 1.00e-12
      Number of threads:                 1

	Batch   1 pq = [       0,    9405] index = [             0,44231715] size =     44231715
	Batch   2 pq = [    9405,   13301] index = [      44231715,88464951] size =     44233236
	Batch   3 pq = [   13301,   16471] index = [      88464951,135655156] size =     47190205
  Task number: 13
  Buffer size: 11059200
  Buffer per thread: 2
  We computed 6383061 shell quartets total.
  Whereas there are 7328706 unique shell quartets.

  ==> DiskJK: Disk-Based J/K Matrices <==

    J tasked:                  Yes
    K tasked:                  Yes
    wK tasked:                  No
    Memory [MiB]:              375
    Schwarz Cutoff:          1E-12

    OpenMP threads:              1

  Minimum eigenvalue in the overlap matrix is 3.8204740744E-03.
  Using Symmetric Orthogonalization.

  SCF Guess: Superposition of Atomic Densities via on-the-fly atomic UHF.

  ==> Iterations <==

                        Total Energy        Delta E     RMS |[F,P]|

   @RHF iter SAD:  -469.68203021240402   -4.69682e+02   0.00000e+00
   @RHF iter   1:  -470.70820042647409   -1.02617e+00   4.20988e-03 DIIS
   @RHF iter   2:  -470.93137731044595   -2.23177e-01   2.20091e-03 DIIS
   @RHF iter   3:  -470.98912070924854   -5.77434e-02   3.96043e-04 DIIS
   @RHF iter   4:  -470.99235656090707   -3.23585e-03   1.37420e-04 DIIS
   @RHF iter   5:  -470.99274309235989   -3.86531e-04   2.62579e-05 DIIS
   @RHF iter   6:  -470.99276180546428   -1.87131e-05   1.18655e-05 DIIS
   @RHF iter   7:  -470.99276446927985   -2.66382e-06   3.14907e-06 DIIS
   @RHF iter   8:  -470.99276478138569   -3.12106e-07   1.16578e-06 DIIS
   @RHF iter   9:  -470.99276482117955   -3.97939e-08   3.64987e-07 DIIS
   @RHF iter  10:  -470.99276482689032   -5.71077e-09   1.28219e-07 DIIS
   @RHF iter  11:  -470.99276482782437   -9.34051e-10   4.33874e-08 DIIS
   @RHF iter  12:  -470.99276482793499   -1.10617e-10   1.69410e-08 DIIS
   @RHF iter  13:  -470.99276482794556   -1.05729e-11   5.16820e-09 DIIS
   @RHF iter  14:  -470.99276482794363    1.93268e-12   1.33770e-09 DIIS
   @RHF iter  15:  -470.99276482794141    2.21689e-12   4.87606e-10 DIIS
   @RHF iter  16:  -470.99276482794266   -1.25056e-12   1.59867e-10 DIIS
   @RHF iter  17:  -470.99276482794556   -2.89901e-12   6.90453e-11 DIIS
  Energy and wave function converged.

  ==> Post-Iterations <==

    Orbital Energies [Eh]
    ---------------------

    Doubly Occupied:

       1A    -20.430053     2A    -20.422310     3A    -15.657402
       4A    -15.629197     5A    -15.615345     6A    -11.440883
       7A    -11.307029     8A    -11.270264     9A    -11.165751
      10A     -1.390131    11A     -1.307636    12A     -1.247394
      13A     -1.240003    14A     -1.200880    15A     -0.995971
      16A     -0.926739    17A     -0.890773    18A     -0.823958
      19A     -0.793311    20A     -0.715511    21A     -0.701623
      22A     -0.677105    23A     -0.653078    24A     -0.639488
      25A     -0.604777    26A     -0.582193    27A     -0.555081
      28A     -0.548265    29A     -0.543227    30A     -0.479220
      31A     -0.477687    32A     -0.447924    33A     -0.424854
      34A     -0.341670    35A     -0.333755    36A     -0.329934

    Virtual:

      37A      0.117961    38A      0.150993    39A      0.166364
      40A      0.196685    41A      0.212770    42A      0.234356
      43A      0.239432    44A      0.245584    45A      0.269756
      46A      0.294603    47A      0.315586    48A      0.320283
      49A      0.341144    50A      0.402502    51A      0.421973
      52A      0.458081    53A      0.475445    54A      0.480026
      55A      0.579549    56A      0.591688    57A      0.610790
      58A      0.619575    59A      0.650275    60A      0.665067
      61A      0.673999    62A      0.675981    63A      0.700611
      64A      0.702938    65A      0.717178    66A      0.748995
      67A      0.803234    68A      0.816687    69A      0.835276
      70A      0.836531    71A      0.852756    72A      0.865897
      73A      0.884475    74A      0.901407    75A      0.911334
      76A      0.913789    77A      0.923875    78A      0.951340
      79A      0.955657    80A      0.969683    81A      0.987343
      82A      0.999870    83A      1.040353    84A      1.047425
      85A      1.067363    86A      1.090255    87A      1.108567
      88A      1.142831    89A      1.188368    90A      1.205795
      91A      1.232147    92A      1.255881    93A      1.266501
      94A      1.289160    95A      1.294716    96A      1.329933
      97A      1.373782    98A      1.394957    99A      1.415844
     100A      1.424001   101A      1.439982   102A      1.464169
     103A      1.497622   104A      1.540568   105A      1.544285
     106A      1.605695   107A      1.626831   108A      1.638448
     109A      1.649821   110A      1.684612   111A      1.699757
     112A      1.711675   113A      1.720992   114A      1.734235
     115A      1.789938   116A      1.803497   117A      1.852142
     118A      1.870910   119A      1.885823   120A      1.896322
     121A      1.908783   122A      1.922440   123A      1.933734
     124A      1.953315   125A      1.967776   126A      1.978093
     127A      2.005755   128A      2.021898   129A      2.032621
     130A      2.068353   131A      2.089256   132A      2.134534
     133A      2.161213   134A      2.185099   135A      2.192705
     136A      2.243769   137A      2.259708   138A      2.302032
     139A      2.303909   140A      2.319982   141A      2.347322
     142A      2.384713   143A      2.394227   144A      2.415289
     145A      2.457174   146A      2.481144   147A      2.506132
     148A      2.521626   149A      2.564022   150A      2.577176
     151A      2.598112   152A      2.612217   153A      2.622592
     154A      2.694529   155A      2.725730   156A      2.734068
     157A      2.797072   158A      2.807839   159A      2.849580
     160A      2.855231   161A      2.875145   162A      2.897966
     163A      2.917125   164A      2.969782   165A      2.987901
     166A      3.037187   167A      3.104738   168A      3.112658
     169A      3.146072   170A      3.197543   171A      3.213856
     172A      3.244362   173A      3.358918   174A      3.446428
     175A      3.667126   176A      3.685153   177A      3.757031
     178A      3.773667   179A      3.881989   180A      3.945992
     181A      4.028598

    Final Occupation by Irrep:
              A
    DOCC [    36 ]

  @RHF Final Energy:  -470.99276482794556

   => Energetics <=

    Nuclear Repulsion Energy =            465.8368538885292764
    One-Electron Energy =               -1568.0383894571120891
    Two-Electron Energy =                 631.2087707406373056
    Total Energy =                       -470.9927648279455070

Computation Completed

Properties will be evaluated at   0.000000,   0.000000,   0.000000 [a0]

Properties computed using the SCF density matrix

  Nuclear Dipole Moment: [e a0]
     X:    -0.9403      Y:     2.0595      Z:    -6.1608

  Electronic Dipole Moment: [e a0]
     X:    -2.6892      Y:    -1.3545      Z:     2.4642

  Dipole Moment: [e a0]
     X:    -3.6294      Y:     0.7050      Z:    -3.6966     Total:     5.2283

  Dipole Moment: [D]
     X:    -9.2251      Y:     1.7918      Z:    -9.3958     Total:    13.2889

*** tstop() called on ds3 at Mon Apr 27 22:49:43 2020
Module time:
	user time   =      52.47 seconds =       0.87 minutes
	system time =      26.68 seconds =       0.44 minutes
	total time  =         75 seconds =       1.25 minutes
Total time:
	user time   =      52.47 seconds =       0.87 minutes
	system time =      26.68 seconds =       0.44 minutes
	total time  =         75 seconds =       1.25 minutes
                                     G D M A

                                 by Anthony Stone

                           version 2.2.06, 22 June 2011

               Distributed Multipoles from Gaussian wavefunctions

Starting at 22:49:43 on 27 Apr 2020

Using SCF density matrix from file ./SSI/SSI-024ARG-076GLU-1-dimer.test.11489.fchk

                         Distributed Multipole Analysis

Standard DMA

Positions and radii in angstrom
Multipole moments in atomic units, ea_0^k for rank k

C          x = -0.709365  y =  2.379249  z = -1.345357 angstrom
           Maximum rank =  0   Radius =  0.650 angstrom
                   Q00  =  -0.098578

C          x = -1.537365  y =  0.100249  z = -0.929357 angstrom
           Maximum rank =  0   Radius =  0.650 angstrom
                   Q00  =   1.057025

N          x = -1.481365  y = -1.007751  z = -0.223357 angstrom
           Maximum rank =  0   Radius =  0.650 angstrom
                   Q00  =  -0.570542

N          x = -0.710365  y =  1.098249  z = -0.631357 angstrom
           Maximum rank =  0   Radius =  0.650 angstrom
                   Q00  =  -0.515378

N          x = -2.403365  y =  0.197249  z = -1.949357 angstrom
           Maximum rank =  0   Radius =  0.650 angstrom
                   Q00  =  -0.587989

H          x = -0.831365  y = -1.063751  z =  0.556643 angstrom
           Maximum rank =  0   Radius =  0.325 angstrom
                   Q00  =   0.286214

H          x = -2.118365  y = -1.777751  z = -0.377357 angstrom
           Maximum rank =  0   Radius =  0.325 angstrom
                   Q00  =   0.235783

H          x =  0.012635  y =  0.939249  z =  0.076643 angstrom
           Maximum rank =  0   Radius =  0.325 angstrom
                   Q00  =   0.340165

H          x = -2.531365  y =  1.069249  z = -2.437357 angstrom
           Maximum rank =  0   Radius =  0.325 angstrom
                   Q00  =   0.248006

H          x = -3.040365  y = -0.562751  z = -2.146357 angstrom
           Maximum rank =  0   Radius =  0.325 angstrom
                   Q00  =   0.238010

H          x = -1.631365  y =  2.917249  z = -1.131357 angstrom
           Maximum rank =  0   Radius =  0.325 angstrom
                   Q00  =   0.084813

H          x = -0.697365  y =  2.165249  z = -2.416357 angstrom
           Maximum rank =  0   Radius =  0.325 angstrom
                   Q00  =   0.072736

H          x =  0.155715  y =  3.031118  z = -1.153757 angstrom
           Maximum rank =  0   Radius =  0.325 angstrom
                   Q00  =   0.164077

C          x =  2.907635  y = -1.331751  z =  0.909643 angstrom
           Maximum rank =  0   Radius =  0.650 angstrom
                   Q00  =  -0.267130

C          x =  1.645635  y = -0.646751  z =  1.298643 angstrom
           Maximum rank =  0   Radius =  0.650 angstrom
                   Q00  =   0.913607

O          x =  0.830635  y = -1.305751  z =  2.010643 angstrom
           Maximum rank =  0   Radius =  0.650 angstrom
                   Q00  =  -0.911122

O          x =  1.526635  y =  0.539249  z =  0.909643 angstrom
           Maximum rank =  0   Radius =  0.650 angstrom
                   Q00  =  -0.942351

H          x =  3.126635  y = -2.124751  z =  1.626643 angstrom
           Maximum rank =  0   Radius =  0.325 angstrom
                   Q00  =   0.083140

H          x =  3.750635  y = -0.639751  z =  0.905643 angstrom
           Maximum rank =  0   Radius =  0.325 angstrom
                   Q00  =   0.086023

H          x =  2.775285  y = -1.751703  z = -0.098387 angstrom
           Maximum rank =  0   Radius =  0.325 angstrom
                   Q00  =   0.083490

Total multipoles referred to origin at
           x =   0.000000,  y =    0.000000,  z =    0.000000 angstrom
                   Q00  =  -0.000000

Finished at 22:49:43 on 27 Apr 2020

  DMA results are available in the Python driver through the
	  variable('DMA DISTRIBUTED MULTIPOLES')
  and
	  variable('DMA TOTAL MULTIPOLES')
  commands.

    Psi4 stopped on: Monday, 27 April 2020 10:49PM
    Psi4 wall time for execution: 0:01:15.79

*** Psi4 exiting successfully. Buy a developer a beer!
