                               Psi4 1.3.2 release

  ==> Input File <==

--------------------------------------------------------------------------
import numpy as np
set {scf_type pk
basis cc-pvdz
d_convergence 10
gdma_switch   0
gdma_limit    0
gdma_origin   [ 0.0,  0.0,  0.0 ]
}
molecule test {
    units Angstrom
    0 1
    --
    0 1
    C                0.053310056817181     2.381659183784967     0.284391799991506
    C               -0.703689943182819     1.158659183784966     0.724391799991506
    O               -1.685689943182819     0.836659183784967     0.049391799991506
    N               -0.246689943182819     0.471659183784967     1.769391799991506
    H                0.945310056817181     2.504659183784967     0.901391799991506
    H               -0.581689943182819     3.257659183784967     0.408391799991506
    H               -0.749689943182819    -0.354340816215033     2.062391799991506
    H                0.560310056817181     0.793659183784967     2.283391799991506
    H                0.350460056817181     2.270679183784967    -0.768878200008494
    C                1.044310056817181    -1.650340816215033    -1.248608200008494
    C                1.467310056817181    -3.075340816215033    -1.589608200008494
    H                1.333310056817181    -0.976340816215033    -2.054608200008494
    H               -0.038689943182819    -1.610340816215034    -1.122608200008494
    H                1.500310056817181    -1.323340816215034    -0.312608200008494
    H                1.301310056817181    -3.699340816215034    -0.710608200008494
    H                2.533910056817181    -3.097501816215033    -1.857688200008494
    H                0.864400056817181    -3.483319816215033    -2.414258200008494

}
e, wfn = energy('scf', return_wfn=True)
gdma(wfn)
dmavals = variable('DMA DISTRIBUTED MULTIPOLES')
charges = np.array(dmavals)
print(charges)
np.save('SSI-177GLN-190VAL-1-dimer.npy', np.array(charges))--------------------------------------------------------------------------

*** tstart() called on ds3
*** at Mon Apr 27 13:09:41 2020

   => Loading Basis Set <=

    Name: CC-PVDZ
    Role: ORBITAL
    Keyword: BASIS
    atoms 1-2, 10-11 entry C          line   138 file /theoryfs2/ds/metcalf/miniconda2/envs/tf2gpu/share/psi4/basis/cc-pvdz.gbs
    atoms 3          entry O          line   198 file /theoryfs2/ds/metcalf/miniconda2/envs/tf2gpu/share/psi4/basis/cc-pvdz.gbs
    atoms 4          entry N          line   168 file /theoryfs2/ds/metcalf/miniconda2/envs/tf2gpu/share/psi4/basis/cc-pvdz.gbs
    atoms 5-9, 12-17 entry H          line    22 file /theoryfs2/ds/metcalf/miniconda2/envs/tf2gpu/share/psi4/basis/cc-pvdz.gbs

         ---------------------------------------------------------
                                   SCF
               by Justin Turney, Rob Parrish, Andy Simmonett
                          and Daniel G. A. Smith
                              RHF Reference
                        1 Threads,    500 MiB Core
         ---------------------------------------------------------

  ==> Geometry <==

    Molecular point group: c1
    Full point group: C1

    Geometry (in Angstrom), charge = 0, multiplicity = 1:

       Center              X                  Y                   Z               Mass
    ------------   -----------------  -----------------  -----------------  -----------------
         C            0.053310056817     2.381659183785     0.284391799992    12.000000000000
         C           -0.703689943183     1.158659183785     0.724391799992    12.000000000000
         O           -1.685689943183     0.836659183785     0.049391799992    15.994914619570
         N           -0.246689943183     0.471659183785     1.769391799992    14.003074004430
         H            0.945310056817     2.504659183785     0.901391799992     1.007825032230
         H           -0.581689943183     3.257659183785     0.408391799992     1.007825032230
         H           -0.749689943183    -0.354340816215     2.062391799992     1.007825032230
         H            0.560310056817     0.793659183785     2.283391799992     1.007825032230
         H            0.350460056817     2.270679183785    -0.768878200008     1.007825032230
         C            1.044310056817    -1.650340816215    -1.248608200008    12.000000000000
         C            1.467310056817    -3.075340816215    -1.589608200008    12.000000000000
         H            1.333310056817    -0.976340816215    -2.054608200008     1.007825032230
         H           -0.038689943183    -1.610340816215    -1.122608200008     1.007825032230
         H            1.500310056817    -1.323340816215    -0.312608200008     1.007825032230
         H            1.301310056817    -3.699340816215    -0.710608200008     1.007825032230
         H            2.533910056817    -3.097501816215    -1.857688200008     1.007825032230
         H            0.864400056817    -3.483319816215    -2.414258200008     1.007825032230

  Running in c1 symmetry.

  Rotational constants: A =      0.17000  B =      0.03445  C =      0.03404 [cm^-1]
  Rotational constants: A =   5096.37713  B =   1032.64722  C =   1020.49342 [MHz]
  Nuclear repulsion =  230.197157696388615

  Charge       = 0
  Multiplicity = 1
  Electrons    = 50
  Nalpha       = 25
  Nbeta        = 25

  ==> Algorithm <==

  SCF Algorithm Type is PK.
  DIIS enabled.
  MOM disabled.
  Fractional occupation disabled.
  Guess Type is SAD.
  Energy threshold   = 1.00e-06
  Density threshold  = 1.00e-10
  Integral threshold = 0.00e+00

  ==> Primary Basis <==

  Basis Set: CC-PVDZ
    Blend: CC-PVDZ
    Number of shells: 69
    Number of basis function: 139
    Number of Cartesian functions: 145
    Spherical Harmonics?: true
    Max angular momentum: 2

  ==> Pre-Iterations <==

   -------------------------------------------------------
    Irrep   Nso     Nmo     Nalpha   Nbeta   Ndocc  Nsocc
   -------------------------------------------------------
     A        139     139       0       0       0       0
   -------------------------------------------------------
    Total     139     139      25      25      25       0
   -------------------------------------------------------

  ==> Integral Setup <==

  Using integral reordering PK algorithm.
  Sizing the integral batches needed.
  Building batch lookup table.
   Calculation information:
      Number of atoms:                  17
      Number of AO shells:              69
      Number of primitives:            187
      Number of atomic orbitals:       145
      Number of basis functions:       139

      Integral cutoff                 1.00e-12
      Number of threads:                 1

	Batch   1 pq = [       0,    9730] index = [             0,47341315] size =     47341315
  Task number: 5
  Buffer size: 11059200
  Buffer per thread: 2
  We computed 2345316 shell quartets total.
  Whereas there are 2917320 unique shell quartets.

  ==> DiskJK: Disk-Based J/K Matrices <==

    J tasked:                  Yes
    K tasked:                  Yes
    wK tasked:                  No
    Memory [MiB]:              375
    Schwarz Cutoff:          1E-12

    OpenMP threads:              1

  Minimum eigenvalue in the overlap matrix is 4.2960749976E-03.
  Using Symmetric Orthogonalization.

  SCF Guess: Superposition of Atomic Densities via on-the-fly atomic UHF.

  ==> Iterations <==

                        Total Energy        Delta E     RMS |[F,P]|

   @RHF iter SAD:  -285.91756113332752   -2.85918e+02   0.00000e+00
   @RHF iter   1:  -286.99421870468132   -1.07666e+00   4.65328e-03 DIIS
   @RHF iter   2:  -287.17031858440077   -1.76100e-01   2.63466e-03 DIIS
   @RHF iter   3:  -287.22176615821195   -5.14476e-02   5.47570e-04 DIIS
   @RHF iter   4:  -287.22518404042057   -3.41788e-03   2.18965e-04 DIIS
   @RHF iter   5:  -287.22578884797042   -6.04808e-04   3.37326e-05 DIIS
   @RHF iter   6:  -287.22581798571917   -2.91377e-05   1.50780e-05 DIIS
   @RHF iter   7:  -287.22582253225471   -4.54654e-06   6.07767e-06 DIIS
   @RHF iter   8:  -287.22582357200076   -1.03975e-06   2.13941e-06 DIIS
   @RHF iter   9:  -287.22582370697927   -1.34979e-07   5.47436e-07 DIIS
   @RHF iter  10:  -287.22582371348051   -6.50124e-09   1.72190e-07 DIIS
   @RHF iter  11:  -287.22582371418304   -7.02528e-10   3.79654e-08 DIIS
   @RHF iter  12:  -287.22582371421788   -3.48450e-11   8.35847e-09 DIIS
   @RHF iter  13:  -287.22582371421817   -2.84217e-13   1.67487e-09 DIIS
   @RHF iter  14:  -287.22582371421885   -6.82121e-13   6.99103e-10 DIIS
   @RHF iter  15:  -287.22582371422141   -2.55795e-12   2.33322e-10 DIIS
   @RHF iter  16:  -287.22582371422027    1.13687e-12   7.66055e-11 DIIS
  Energy and wave function converged.

  ==> Post-Iterations <==

    Orbital Energies [Eh]
    ---------------------

    Doubly Occupied:

       1A    -20.500795     2A    -15.594503     3A    -11.347375
       4A    -11.239587     5A    -11.215695     6A    -11.210910
       7A     -1.362049     8A     -1.218792     9A     -1.014487
      10A     -0.999459    11A     -0.831592    12A     -0.800303
      13A     -0.729435    14A     -0.654666    15A     -0.612089
      16A     -0.595407    17A     -0.592093    18A     -0.566311
      19A     -0.556952    20A     -0.520629    21A     -0.496509
      22A     -0.481082    23A     -0.479224    24A     -0.406402
      25A     -0.403810

    Virtual:

      26A      0.155715    27A      0.190632    28A      0.200877
      29A      0.210415    30A      0.219605    31A      0.249475
      32A      0.257446    33A      0.263815    34A      0.277768
      35A      0.282982    36A      0.299186    37A      0.307166
      38A      0.382502    39A      0.398622    40A      0.472338
      41A      0.561419    42A      0.599038    43A      0.605007
      44A      0.608980    45A      0.647816    46A      0.663292
      47A      0.672007    48A      0.693408    49A      0.705079
      50A      0.709147    51A      0.739235    52A      0.796004
      53A      0.837900    54A      0.851265    55A      0.872645
      56A      0.893140    57A      0.894725    58A      0.901740
      59A      0.905984    60A      0.917912    61A      0.926500
      62A      0.931529    63A      0.944295    64A      0.968694
      65A      1.006241    66A      1.040282    67A      1.046381
      68A      1.115029    69A      1.123615    70A      1.133025
      71A      1.144042    72A      1.234567    73A      1.323059
      74A      1.365588    75A      1.390169    76A      1.407221
      77A      1.434480    78A      1.452367    79A      1.478032
      80A      1.481475    81A      1.489092    82A      1.582866
      83A      1.635468    84A      1.662104    85A      1.683937
      86A      1.696980    87A      1.718905    88A      1.819877
      89A      1.845260    90A      1.858904    91A      1.869811
      92A      1.884296    93A      1.897952    94A      1.913146
      95A      1.915456    96A      1.932614    97A      1.944345
      98A      1.950122    99A      1.956866   100A      1.967595
     101A      1.979820   102A      1.997453   103A      2.052638
     104A      2.105906   105A      2.120700   106A      2.127493
     107A      2.130311   108A      2.233414   109A      2.304404
     110A      2.316895   111A      2.329441   112A      2.422671
     113A      2.428222   114A      2.452220   115A      2.459175
     116A      2.493605   117A      2.536462   118A      2.562714
     119A      2.567430   120A      2.585956   121A      2.638069
     122A      2.744803   123A      2.763538   124A      2.777295
     125A      2.791638   126A      2.806723   127A      2.824178
     128A      2.853740   129A      2.857464   130A      2.950397
     131A      2.957366   132A      2.966909   133A      3.098373
     134A      3.129377   135A      3.271435   136A      3.504921
     137A      3.522346   138A      3.854734   139A      3.899800

    Final Occupation by Irrep:
              A
    DOCC [    25 ]

  @RHF Final Energy:  -287.22582371422027

   => Energetics <=

    Nuclear Repulsion Energy =            230.1971576963886150
    One-Electron Energy =                -845.9856537109725423
    Two-Electron Energy =                 328.5626723003636016
    Total Energy =                       -287.2258237142202688

Computation Completed

Properties will be evaluated at   0.000000,   0.000000,   0.000000 [a0]

Properties computed using the SCF density matrix

  Nuclear Dipole Moment: [e a0]
     X:     7.5104      Y:    -5.3577      Z:    -3.3664

  Electronic Dipole Moment: [e a0]
     X:    -6.3068      Y:     5.5952      Z:     4.4771

  Dipole Moment: [e a0]
     X:     1.2036      Y:     0.2375      Z:     1.1107     Total:     1.6549

  Dipole Moment: [D]
     X:     3.0593      Y:     0.6038      Z:     2.8231     Total:     4.2064

*** tstop() called on ds3 at Mon Apr 27 13:10:12 2020
Module time:
	user time   =      20.98 seconds =       0.35 minutes
	system time =       9.77 seconds =       0.16 minutes
	total time  =         31 seconds =       0.52 minutes
Total time:
	user time   =      20.98 seconds =       0.35 minutes
	system time =       9.77 seconds =       0.16 minutes
	total time  =         31 seconds =       0.52 minutes
                                     G D M A

                                 by Anthony Stone

                           version 2.2.06, 22 June 2011

               Distributed Multipoles from Gaussian wavefunctions

Starting at 13:10:12 on 27 Apr 2020

Using SCF density matrix from file ./SSI/SSI-177GLN-190VAL-1-dimer.test.5588.fchk

                         Distributed Multipole Analysis

Standard DMA

Positions and radii in angstrom
Multipole moments in atomic units, ea_0^k for rank k

C          x =  0.053310  y =  2.381659  z =  0.284392 angstrom
           Maximum rank =  0   Radius =  0.650 angstrom
                   Q00  =  -0.251895

C          x = -0.703690  y =  1.158659  z =  0.724392 angstrom
           Maximum rank =  0   Radius =  0.650 angstrom
                   Q00  =   0.807246

O          x = -1.685690  y =  0.836659  z =  0.049392 angstrom
           Maximum rank =  0   Radius =  0.650 angstrom
                   Q00  =  -0.789911

N          x = -0.246690  y =  0.471659  z =  1.769392 angstrom
           Maximum rank =  0   Radius =  0.650 angstrom
                   Q00  =  -0.529041

H          x =  0.945310  y =  2.504659  z =  0.901392 angstrom
           Maximum rank =  0   Radius =  0.325 angstrom
                   Q00  =   0.063019

H          x = -0.581690  y =  3.257659  z =  0.408392 angstrom
           Maximum rank =  0   Radius =  0.325 angstrom
                   Q00  =   0.133802

H          x = -0.749690  y = -0.354341  z =  2.062392 angstrom
           Maximum rank =  0   Radius =  0.325 angstrom
                   Q00  =   0.223039

H          x =  0.560310  y =  0.793659  z =  2.283392 angstrom
           Maximum rank =  0   Radius =  0.325 angstrom
                   Q00  =   0.211410

H          x =  0.350460  y =  2.270679  z = -0.768878 angstrom
           Maximum rank =  0   Radius =  0.325 angstrom
                   Q00  =   0.134496

C          x =  1.044310  y = -1.650341  z = -1.248608 angstrom
           Maximum rank =  0   Radius =  0.650 angstrom
                   Q00  =  -0.227667

C          x =  1.467310  y = -3.075341  z = -1.589608 angstrom
           Maximum rank =  0   Radius =  0.650 angstrom
                   Q00  =  -0.236559

H          x =  1.333310  y = -0.976341  z = -2.054608 angstrom
           Maximum rank =  0   Radius =  0.325 angstrom
                   Q00  =   0.076965

H          x = -0.038690  y = -1.610341  z = -1.122608 angstrom
           Maximum rank =  0   Radius =  0.325 angstrom
                   Q00  =   0.091065

H          x =  1.500310  y = -1.323341  z = -0.312608 angstrom
           Maximum rank =  0   Radius =  0.325 angstrom
                   Q00  =   0.064140

H          x =  1.301310  y = -3.699341  z = -0.710608 angstrom
           Maximum rank =  0   Radius =  0.325 angstrom
                   Q00  =   0.073780

H          x =  2.533910  y = -3.097502  z = -1.857688 angstrom
           Maximum rank =  0   Radius =  0.325 angstrom
                   Q00  =   0.074294

H          x =  0.864400  y = -3.483320  z = -2.414258 angstrom
           Maximum rank =  0   Radius =  0.325 angstrom
                   Q00  =   0.081816

Total multipoles referred to origin at
           x =   0.000000,  y =    0.000000,  z =    0.000000 angstrom
                   Q00  =  -0.000000

Finished at 13:10:12 on 27 Apr 2020

  DMA results are available in the Python driver through the
	  variable('DMA DISTRIBUTED MULTIPOLES')
  and
	  variable('DMA TOTAL MULTIPOLES')
  commands.

    Psi4 stopped on: Monday, 27 April 2020 01:10PM
    Psi4 wall time for execution: 0:00:30.37

*** Psi4 exiting successfully. Buy a developer a beer!
