                               Psi4 1.3.2 release

  ==> Input File <==

--------------------------------------------------------------------------
import numpy as np
set {scf_type pk
basis cc-pvdz
d_convergence 10
gdma_switch   0
gdma_limit    0
gdma_origin   [ 0.0,  0.0,  0.0 ]
}
molecule test {
    units Angstrom
    0 1
    --
    0 1
    C               -0.380049057104490     1.512263813423720     1.167165520013768
    C               -1.760049057104490     1.156263813423720     1.721165520013768
    H                0.267950942895510     0.635263813423720     1.156165520013768
    H               -0.481049057104490     1.894263813423720     0.153165520013768
    H                0.073950942895510     2.274263813423721     1.799165520013768
    H               -2.382049057104490     2.054263813423720     1.704165520013768
    H               -1.663281057104490     0.801443813423720     2.757865520013768
    H               -2.265556057104490     0.382293813423720     1.124985520013768
    C                0.349950942895510    -1.315736186576280    -1.199834479986232
    C                1.794950942895510    -1.354736186576280    -1.684834479986232
    H                0.311950942895510    -1.593736186576280    -0.147834479986232
    H               -0.071049057104490    -0.316736186576280    -1.301834479986232
    H               -0.281049057104490    -1.990736186576280    -1.782834479986232
    H                1.786950942895510    -1.264736186576280    -2.766834479986232
    H                2.240480942895510    -2.329416186576279    -1.436834479986232
    H                2.405550942895510    -0.523276186576280    -1.302944479986232

}
e, wfn = energy('scf', return_wfn=True)
gdma(wfn)
dmavals = variable('DMA DISTRIBUTED MULTIPOLES')
charges = np.array(dmavals)
print(charges)
np.save('SSI-029ALA-274ILE-1-dimer.npy', np.array(charges))--------------------------------------------------------------------------

*** tstart() called on ds3
*** at Tue Apr 28 08:53:23 2020

   => Loading Basis Set <=

    Name: CC-PVDZ
    Role: ORBITAL
    Keyword: BASIS
    atoms 1-2, 9-10  entry C          line   138 file /theoryfs2/ds/metcalf/miniconda2/envs/tf2gpu/share/psi4/basis/cc-pvdz.gbs
    atoms 3-8, 11-16 entry H          line    22 file /theoryfs2/ds/metcalf/miniconda2/envs/tf2gpu/share/psi4/basis/cc-pvdz.gbs

         ---------------------------------------------------------
                                   SCF
               by Justin Turney, Rob Parrish, Andy Simmonett
                          and Daniel G. A. Smith
                              RHF Reference
                        1 Threads,    500 MiB Core
         ---------------------------------------------------------

  ==> Geometry <==

    Molecular point group: c1
    Full point group: C1

    Geometry (in Angstrom), charge = 0, multiplicity = 1:

       Center              X                  Y                   Z               Mass
    ------------   -----------------  -----------------  -----------------  -----------------
         C           -0.380049057104     1.512263813424     1.167165520014    12.000000000000
         C           -1.760049057104     1.156263813424     1.721165520014    12.000000000000
         H            0.267950942896     0.635263813424     1.156165520014     1.007825032230
         H           -0.481049057104     1.894263813424     0.153165520014     1.007825032230
         H            0.073950942896     2.274263813424     1.799165520014     1.007825032230
         H           -2.382049057104     2.054263813424     1.704165520014     1.007825032230
         H           -1.663281057104     0.801443813424     2.757865520014     1.007825032230
         H           -2.265556057104     0.382293813424     1.124985520014     1.007825032230
         C            0.349950942896    -1.315736186576    -1.199834479986    12.000000000000
         C            1.794950942896    -1.354736186576    -1.684834479986    12.000000000000
         H            0.311950942896    -1.593736186576    -0.147834479986     1.007825032230
         H           -0.071049057104    -0.316736186576    -1.301834479986     1.007825032230
         H           -0.281049057104    -1.990736186576    -1.782834479986     1.007825032230
         H            1.786950942896    -1.264736186576    -2.766834479986     1.007825032230
         H            2.240480942896    -2.329416186576    -1.436834479986     1.007825032230
         H            2.405550942896    -0.523276186576    -1.302944479986     1.007825032230

  Running in c1 symmetry.

  Rotational constants: A =      0.47609  B =      0.05118  C =      0.04797 [cm^-1]
  Rotational constants: A =  14272.96265  B =   1534.45108  C =   1438.22392 [MHz]
  Nuclear repulsion =  122.781096295278104

  Charge       = 0
  Multiplicity = 1
  Electrons    = 36
  Nalpha       = 18
  Nbeta        = 18

  ==> Algorithm <==

  SCF Algorithm Type is PK.
  DIIS enabled.
  MOM disabled.
  Fractional occupation disabled.
  Guess Type is SAD.
  Energy threshold   = 1.00e-06
  Density threshold  = 1.00e-10
  Integral threshold = 0.00e+00

  ==> Primary Basis <==

  Basis Set: CC-PVDZ
    Blend: CC-PVDZ
    Number of shells: 60
    Number of basis function: 116
    Number of Cartesian functions: 120
    Spherical Harmonics?: true
    Max angular momentum: 2

  ==> Pre-Iterations <==

   -------------------------------------------------------
    Irrep   Nso     Nmo     Nalpha   Nbeta   Ndocc  Nsocc
   -------------------------------------------------------
     A        116     116       0       0       0       0
   -------------------------------------------------------
    Total     116     116      18      18      18       0
   -------------------------------------------------------

  ==> Integral Setup <==

  Using integral reordering PK algorithm.
  Sizing the integral batches needed.
  Building batch lookup table.
   Calculation information:
      Number of atoms:                  16
      Number of AO shells:              60
      Number of primitives:            148
      Number of atomic orbitals:       120
      Number of basis functions:       116

      Integral cutoff                 1.00e-12
      Number of threads:                 1

	Batch   1 pq = [       0,    6786] index = [             0,23028291] size =     23028291
  Task number: 3
  Buffer size: 11059200
  Buffer per thread: 2
  We computed 1456568 shell quartets total.
  Whereas there are 1675365 unique shell quartets.

  ==> DiskJK: Disk-Based J/K Matrices <==

    J tasked:                  Yes
    K tasked:                  Yes
    wK tasked:                  No
    Memory [MiB]:              375
    Schwarz Cutoff:          1E-12

    OpenMP threads:              1

  Minimum eigenvalue in the overlap matrix is 7.5797703126E-03.
  Using Symmetric Orthogonalization.

  SCF Guess: Superposition of Atomic Densities via on-the-fly atomic UHF.

  ==> Iterations <==

                        Total Energy        Delta E     RMS |[F,P]|

   @RHF iter SAD:  -157.35093976176481   -1.57351e+02   0.00000e+00
   @RHF iter   1:  -158.30703986987083   -9.56100e-01   4.21647e-03 DIIS
   @RHF iter   2:  -158.44073328808443   -1.33693e-01   1.80096e-03 DIIS
   @RHF iter   3:  -158.46424821780067   -2.35149e-02   3.49279e-04 DIIS
   @RHF iter   4:  -158.46608131065463   -1.83309e-03   3.83875e-05 DIIS
   @RHF iter   5:  -158.46610440652853   -2.30959e-05   6.12243e-06 DIIS
   @RHF iter   6:  -158.46610497558424   -5.69056e-07   8.88339e-07 DIIS
   @RHF iter   7:  -158.46610498411212   -8.52788e-09   2.85123e-07 DIIS
   @RHF iter   8:  -158.46610498481820   -7.06081e-10   4.32186e-08 DIIS
   @RHF iter   9:  -158.46610498484904   -3.08376e-11   8.47476e-09 DIIS
   @RHF iter  10:  -158.46610498485032   -1.27898e-12   2.54203e-09 DIIS
   @RHF iter  11:  -158.46610498485001    3.12639e-13   6.71353e-10 DIIS
   @RHF iter  12:  -158.46610498485001    0.00000e+00   1.41911e-10 DIIS
   @RHF iter  13:  -158.46610498485015   -1.42109e-13   2.50537e-11 DIIS
  Energy and wave function converged.

  ==> Post-Iterations <==

    Orbital Energies [Eh]
    ---------------------

    Doubly Occupied:

       1A    -11.219134     2A    -11.218695     3A    -11.216472
       4A    -11.216454     5A     -1.019645     6A     -1.016809
       7A     -0.839323     8A     -0.835362     9A     -0.602014
      10A     -0.600422    11A     -0.596180    12A     -0.590990
      13A     -0.504882    14A     -0.500500    15A     -0.489021
      16A     -0.487459    17A     -0.482127    18A     -0.479159

    Virtual:

      19A      0.171289    20A      0.197291    21A      0.228680
      22A      0.231700    23A      0.243457    24A      0.251279
      25A      0.260966    26A      0.270594    27A      0.283916
      28A      0.290160    29A      0.308918    30A      0.362318
      31A      0.391521    32A      0.405089    33A      0.574061
      34A      0.586002    35A      0.599434    36A      0.602611
      37A      0.621605    38A      0.635185    39A      0.663418
      40A      0.680269    41A      0.684154    42A      0.820449
      43A      0.839333    44A      0.849874    45A      0.881198
      46A      0.890060    47A      0.894248    48A      0.895437
      49A      0.899157    50A      0.907253    51A      0.913290
      52A      0.926454    53A      0.930063    54A      0.955498
      55A      0.982922    56A      0.989929    57A      1.115410
      58A      1.123896    59A      1.130748    60A      1.158529
      61A      1.235138    62A      1.248515    63A      1.460305
      64A      1.476918    65A      1.478632    66A      1.491444
      67A      1.565212    68A      1.572047    69A      1.684430
      70A      1.686106    71A      1.696101    72A      1.707907
      73A      1.860867    74A      1.868454    75A      1.875375
      76A      1.880771    77A      1.897816    78A      1.899802
      79A      1.933155    80A      1.943852    81A      1.947798
      82A      1.948803    83A      1.951599    84A      1.959844
      85A      1.963902    86A      1.965671    87A      1.983076
      88A      2.001759    89A      2.088211    90A      2.096818
      91A      2.117398    92A      2.146130    93A      2.301043
      94A      2.306867    95A      2.317236    96A      2.324373
      97A      2.430898    98A      2.453263    99A      2.465385
     100A      2.470974   101A      2.551566   102A      2.560012
     103A      2.573696   104A      2.593168   105A      2.758732
     106A      2.760651   107A      2.786390   108A      2.798409
     109A      2.851617   110A      2.856044   111A      2.863214
     112A      2.869029   113A      2.926712   114A      2.959044
     115A      2.971957   116A      2.980429

    Final Occupation by Irrep:
              A
    DOCC [    18 ]

  @RHF Final Energy:  -158.46610498485015

   => Energetics <=

    Nuclear Repulsion Energy =            122.7810962952781040
    One-Electron Energy =                -454.6651024102784504
    Two-Electron Energy =                 173.4179011301502271
    Total Energy =                       -158.4661049848501477

Computation Completed

Properties will be evaluated at   0.000000,   0.000000,   0.000000 [a0]

Properties computed using the SCF density matrix

  Nuclear Dipole Moment: [e a0]
     X:    -0.0536      Y:     0.0217      Z:    -0.0409

  Electronic Dipole Moment: [e a0]
     X:     0.0496      Y:    -0.0124      Z:     0.0249

  Dipole Moment: [e a0]
     X:    -0.0040      Y:     0.0093      Z:    -0.0159     Total:     0.0189

  Dipole Moment: [D]
     X:    -0.0103      Y:     0.0238      Z:    -0.0405     Total:     0.0481

*** tstop() called on ds3 at Tue Apr 28 08:53:36 2020
Module time:
	user time   =       9.24 seconds =       0.15 minutes
	system time =       3.73 seconds =       0.06 minutes
	total time  =         13 seconds =       0.22 minutes
Total time:
	user time   =       9.24 seconds =       0.15 minutes
	system time =       3.73 seconds =       0.06 minutes
	total time  =         13 seconds =       0.22 minutes
                                     G D M A

                                 by Anthony Stone

                           version 2.2.06, 22 June 2011

               Distributed Multipoles from Gaussian wavefunctions

Starting at 8:53:36 on 28 Apr 2020

Using SCF density matrix from file ./SSI/SSI-029ALA-274ILE-1-dimer.test.18319.fchk

                         Distributed Multipole Analysis

Standard DMA

Positions and radii in angstrom
Multipole moments in atomic units, ea_0^k for rank k

C          x = -0.380049  y =  1.512264  z =  1.167166 angstrom
           Maximum rank =  0   Radius =  0.650 angstrom
                   Q00  =  -0.230781

C          x = -1.760049  y =  1.156264  z =  1.721166 angstrom
           Maximum rank =  0   Radius =  0.650 angstrom
                   Q00  =  -0.243875

H          x =  0.267951  y =  0.635264  z =  1.156166 angstrom
           Maximum rank =  0   Radius =  0.325 angstrom
                   Q00  =   0.081620

H          x = -0.481049  y =  1.894264  z =  0.153166 angstrom
           Maximum rank =  0   Radius =  0.325 angstrom
                   Q00  =   0.078538

H          x =  0.073951  y =  2.274264  z =  1.799166 angstrom
           Maximum rank =  0   Radius =  0.325 angstrom
                   Q00  =   0.078838

H          x = -2.382049  y =  2.054264  z =  1.704166 angstrom
           Maximum rank =  0   Radius =  0.325 angstrom
                   Q00  =   0.077424

H          x = -1.663281  y =  0.801444  z =  2.757866 angstrom
           Maximum rank =  0   Radius =  0.325 angstrom
                   Q00  =   0.077562

H          x = -2.265556  y =  0.382294  z =  1.124986 angstrom
           Maximum rank =  0   Radius =  0.325 angstrom
                   Q00  =   0.080368

C          x =  0.349951  y = -1.315736  z = -1.199834 angstrom
           Maximum rank =  0   Radius =  0.650 angstrom
                   Q00  =  -0.243907

C          x =  1.794951  y = -1.354736  z = -1.684834 angstrom
           Maximum rank =  0   Radius =  0.650 angstrom
                   Q00  =  -0.229171

H          x =  0.311951  y = -1.593736  z = -0.147834 angstrom
           Maximum rank =  0   Radius =  0.325 angstrom
                   Q00  =   0.076488

H          x = -0.071049  y = -0.316736  z = -1.301834 angstrom
           Maximum rank =  0   Radius =  0.325 angstrom
                   Q00  =   0.081235

H          x = -0.281049  y = -1.990736  z = -1.782834 angstrom
           Maximum rank =  0   Radius =  0.325 angstrom
                   Q00  =   0.079474

H          x =  1.786951  y = -1.264736  z = -2.766834 angstrom
           Maximum rank =  0   Radius =  0.325 angstrom
                   Q00  =   0.075810

H          x =  2.240481  y = -2.329416  z = -1.436834 angstrom
           Maximum rank =  0   Radius =  0.325 angstrom
                   Q00  =   0.078154

H          x =  2.405551  y = -0.523276  z = -1.302944 angstrom
           Maximum rank =  0   Radius =  0.325 angstrom
                   Q00  =   0.082223

Total multipoles referred to origin at
           x =   0.000000,  y =    0.000000,  z =    0.000000 angstrom
                   Q00  =  -0.000000

Finished at 8:53:36 on 28 Apr 2020

  DMA results are available in the Python driver through the
	  variable('DMA DISTRIBUTED MULTIPOLES')
  and
	  variable('DMA TOTAL MULTIPOLES')
  commands.

    Psi4 stopped on: Tuesday, 28 April 2020 08:53AM
    Psi4 wall time for execution: 0:00:12.70

*** Psi4 exiting successfully. Buy a developer a beer!
