                               Psi4 1.3.2 release

  ==> Input File <==

--------------------------------------------------------------------------
import numpy as np
set {scf_type pk
basis cc-pvdz
d_convergence 10
gdma_switch   0
gdma_limit    0
gdma_origin   [ 0.0,  0.0,  0.0 ]
}
molecule test {
    units Angstrom
    0 1
    --
    0 1
    C               -0.559966078086575    -0.891472097788677     1.747373726862526
    C               -0.705966078086575    -0.317472097788676     3.153373726862526
    C                0.261033921913425    -0.065472097788676     0.822373726862527
    C                1.611033921913425    -0.106472097788676     0.671373726862526
    C               -0.220966078086575     0.924527902211324    -0.097626273137474
    C                0.904033921913425     1.451527902211324    -0.778626273137474
    C               -1.489966078086575     1.422527902211324    -0.413626273137474
    C                0.795033921913425     2.443527902211323    -1.740626273137474
    C               -1.601966078086575     2.414527902211324    -1.382626273137474
    C               -0.468966078086575     2.918527902211323    -2.036626273137474
    N                2.001033921913425     0.801527902211324    -0.282626273137474
    H               -0.093966078086575    -1.857472097788676     1.835373726862527
    H               -1.544966078086575    -1.046472097788677     1.306373726862526
    H                0.293033921913425    -0.174472097788676     3.563373726862527
    H                2.279033921913425    -0.762472097788676     1.220373726862526
    H                2.962033921913425     1.027527902211324    -0.534626273137473
    H               -2.357966078086575     1.050527902211323     0.103373726862526
    H                1.679033921913425     2.847527902211324    -2.204626273137474
    H               -2.575966078086575     2.801527902211323    -1.643626273137474
    H               -0.590966078086575     3.699527902211324    -2.773626273137474
    H               -1.284033078086575    -1.022062097788677     3.769323726862527
    H               -1.238774078086575     0.644477902211324     3.125823726862527
    C               -0.280966078086575    -3.927472097788676    -0.016626273137474
    C               -0.239966078086575    -5.446472097788676    -0.193626273137474
    H                0.225033921913425    -3.687472097788677     0.913373726862526
    H                0.241033921913425    -3.435472097788677    -0.838626273137474
    H               -1.301966078086575    -3.544472097788676    -0.005626273137474
    H               -0.694966078086575    -5.693472097788677    -1.154626273137474
    H               -0.814465078086575    -5.948892097788676     0.598543726862526
    H                0.800761921913425    -5.802682097788677    -0.192196273137474

}
e, wfn = energy('scf', return_wfn=True)
gdma(wfn)
dmavals = variable('DMA DISTRIBUTED MULTIPOLES')
charges = np.array(dmavals)
print(charges)
np.save('SSI-010TRP-032ILE-1-dimer.npy', np.array(charges))--------------------------------------------------------------------------

*** tstart() called on ds3
*** at Sun Apr 26 22:18:02 2020

   => Loading Basis Set <=

    Name: CC-PVDZ
    Role: ORBITAL
    Keyword: BASIS
    atoms 1-10, 23-24  entry C          line   138 file /theoryfs2/ds/metcalf/miniconda2/envs/tf2gpu/share/psi4/basis/cc-pvdz.gbs
    atoms 11           entry N          line   168 file /theoryfs2/ds/metcalf/miniconda2/envs/tf2gpu/share/psi4/basis/cc-pvdz.gbs
    atoms 12-22, 25-30 entry H          line    22 file /theoryfs2/ds/metcalf/miniconda2/envs/tf2gpu/share/psi4/basis/cc-pvdz.gbs

         ---------------------------------------------------------
                                   SCF
               by Justin Turney, Rob Parrish, Andy Simmonett
                          and Daniel G. A. Smith
                              RHF Reference
                        1 Threads,    500 MiB Core
         ---------------------------------------------------------

  ==> Geometry <==

    Molecular point group: c1
    Full point group: C1

    Geometry (in Angstrom), charge = 0, multiplicity = 1:

       Center              X                  Y                   Z               Mass
    ------------   -----------------  -----------------  -----------------  -----------------
         C           -0.559966078087    -0.891472097789     1.747373726863    12.000000000000
         C           -0.705966078087    -0.317472097789     3.153373726863    12.000000000000
         C            0.261033921913    -0.065472097789     0.822373726863    12.000000000000
         C            1.611033921913    -0.106472097789     0.671373726863    12.000000000000
         C           -0.220966078087     0.924527902211    -0.097626273137    12.000000000000
         C            0.904033921913     1.451527902211    -0.778626273137    12.000000000000
         C           -1.489966078087     1.422527902211    -0.413626273137    12.000000000000
         C            0.795033921913     2.443527902211    -1.740626273137    12.000000000000
         C           -1.601966078087     2.414527902211    -1.382626273137    12.000000000000
         C           -0.468966078087     2.918527902211    -2.036626273137    12.000000000000
         N            2.001033921913     0.801527902211    -0.282626273137    14.003074004430
         H           -0.093966078087    -1.857472097789     1.835373726863     1.007825032230
         H           -1.544966078087    -1.046472097789     1.306373726863     1.007825032230
         H            0.293033921913    -0.174472097789     3.563373726863     1.007825032230
         H            2.279033921913    -0.762472097789     1.220373726863     1.007825032230
         H            2.962033921913     1.027527902211    -0.534626273137     1.007825032230
         H           -2.357966078087     1.050527902211     0.103373726863     1.007825032230
         H            1.679033921913     2.847527902211    -2.204626273137     1.007825032230
         H           -2.575966078087     2.801527902211    -1.643626273137     1.007825032230
         H           -0.590966078087     3.699527902211    -2.773626273137     1.007825032230
         H           -1.284033078087    -1.022062097789     3.769323726863     1.007825032230
         H           -1.238774078087     0.644477902211     3.125823726863     1.007825032230
         C           -0.280966078087    -3.927472097789    -0.016626273137    12.000000000000
         C           -0.239966078087    -5.446472097789    -0.193626273137    12.000000000000
         H            0.225033921913    -3.687472097789     0.913373726863     1.007825032230
         H            0.241033921913    -3.435472097789    -0.838626273137     1.007825032230
         H           -1.301966078087    -3.544472097789    -0.005626273137     1.007825032230
         H           -0.694966078087    -5.693472097789    -1.154626273137     1.007825032230
         H           -0.814465078087    -5.948892097789     0.598543726863     1.007825032230
         H            0.800761921913    -5.802682097789    -0.192196273137     1.007825032230

  Running in c1 symmetry.

  Rotational constants: A =      0.03389  B =      0.01269  C =      0.01205 [cm^-1]
  Rotational constants: A =   1015.93819  B =    380.35702  C =    361.34686 [MHz]
  Nuclear repulsion =  744.757959385861909

  Charge       = 0
  Multiplicity = 1
  Electrons    = 96
  Nalpha       = 48
  Nbeta        = 48

  ==> Algorithm <==

  SCF Algorithm Type is PK.
  DIIS enabled.
  MOM disabled.
  Fractional occupation disabled.
  Guess Type is SAD.
  Energy threshold   = 1.00e-06
  Density threshold  = 1.00e-10
  Integral threshold = 0.00e+00

  ==> Primary Basis <==

  Basis Set: CC-PVDZ
    Blend: CC-PVDZ
    Number of shells: 129
    Number of basis function: 267
    Number of Cartesian functions: 280
    Spherical Harmonics?: true
    Max angular momentum: 2

  ==> Pre-Iterations <==

   -------------------------------------------------------
    Irrep   Nso     Nmo     Nalpha   Nbeta   Ndocc  Nsocc
   -------------------------------------------------------
     A        267     267       0       0       0       0
   -------------------------------------------------------
    Total     267     267      48      48      48       0
   -------------------------------------------------------

  ==> Integral Setup <==

  Using integral reordering PK algorithm.
  Sizing the integral batches needed.
  Building batch lookup table.
   Calculation information:
      Number of atoms:                  30
      Number of AO shells:             129
      Number of primitives:            371
      Number of atomic orbitals:       280
      Number of basis functions:       267

      Integral cutoff                 1.00e-12
      Number of threads:                 1

	Batch   1 pq = [       0,    9405] index = [             0,44231715] size =     44231715
	Batch   2 pq = [    9405,   13301] index = [      44231715,88464951] size =     44233236
	Batch   3 pq = [   13301,   16290] index = [      88464951,132690195] size =     44225244
	Batch   4 pq = [   16290,   18810] index = [     132690195,176917455] size =     44227260
	Batch   5 pq = [   18810,   21030] index = [     176917455,221140965] size =     44223510
	Batch   6 pq = [   21030,   23037] index = [     221140965,265363203] size =     44222238
	Batch   7 pq = [   23037,   24883] index = [     265363203,309594286] size =     44231083
	Batch   8 pq = [   24883,   26601] index = [     309594286,353819901] size =     44225615
	Batch   9 pq = [   26601,   28214] index = [     353819901,398029005] size =     44209104
	Batch  10 pq = [   28214,   29740] index = [     398029005,442248670] size =     44219665
	Batch  11 pq = [   29740,   31191] index = [     442248670,486454836] size =     44206166
	Batch  12 pq = [   31191,   32578] index = [     486454836,530679331] size =     44224495
	Batch  13 pq = [   32578,   33908] index = [     530679331,574893186] size =     44213855
	Batch  14 pq = [   33908,   35188] index = [     574893186,619115266] size =     44222080
	Batch  15 pq = [   35188,   35778] index = [     619115266,640050531] size =     20935265
  Task number: 58
  Buffer size: 11059200
  Buffer per thread: 2
  We computed 32501819 shell quartets total.
  Whereas there are 35158305 unique shell quartets.

  ==> DiskJK: Disk-Based J/K Matrices <==

    J tasked:                  Yes
    K tasked:                  Yes
    wK tasked:                  No
    Memory [MiB]:              375
    Schwarz Cutoff:          1E-12

    OpenMP threads:              1

  Minimum eigenvalue in the overlap matrix is 2.3181030185E-04.
  Using Symmetric Orthogonalization.

  SCF Guess: Superposition of Atomic Densities via on-the-fly atomic UHF.

  ==> Iterations <==

                        Total Energy        Delta E     RMS |[F,P]|

   @RHF iter SAD:  -518.11978471753559   -5.18120e+02   0.00000e+00
   @RHF iter   1:  -518.49104019103220   -3.71255e-01   2.50660e-03 DIIS
   @RHF iter   2:  -518.74936359963897   -2.58323e-01   1.12994e-03 DIIS
   @RHF iter   3:  -518.79723623148209   -4.78726e-02   2.97489e-04 DIIS
   @RHF iter   4:  -518.80159813096236   -4.36190e-03   1.38851e-04 DIIS
   @RHF iter   5:  -518.80236905171500   -7.70921e-04   1.89219e-05 DIIS
   @RHF iter   6:  -518.80240089274855   -3.18410e-05   8.58549e-06 DIIS
   @RHF iter   7:  -518.80240711361557   -6.22087e-06   3.70577e-06 DIIS
   @RHF iter   8:  -518.80240894962287   -1.83601e-06   1.47807e-06 DIIS
   @RHF iter   9:  -518.80240935603217   -4.06409e-07   6.55902e-07 DIIS
   @RHF iter  10:  -518.80240943533431   -7.93021e-08   2.98275e-07 DIIS
   @RHF iter  11:  -518.80240945308140   -1.77471e-08   1.10143e-07 DIIS
   @RHF iter  12:  -518.80240945555636   -2.47496e-09   4.01296e-08 DIIS
   @RHF iter  13:  -518.80240945575542   -1.99066e-10   1.26417e-08 DIIS
   @RHF iter  14:  -518.80240945576406   -8.64020e-12   4.56193e-09 DIIS
   @RHF iter  15:  -518.80240945576440   -3.41061e-13   1.95179e-09 DIIS
   @RHF iter  16:  -518.80240945576656   -2.16005e-12   8.63823e-10 DIIS
   @RHF iter  17:  -518.80240945577032   -3.75167e-12   3.87227e-10 DIIS
   @RHF iter  18:  -518.80240945576622    4.09273e-12   1.61368e-10 DIIS
   @RHF iter  19:  -518.80240945577088   -4.66116e-12   6.16457e-11 DIIS
  Energy and wave function converged.

  ==> Post-Iterations <==

    Orbital Energies [Eh]
    ---------------------

    Doubly Occupied:

       1A    -15.600861     2A    -11.263277     3A    -11.260986
       4A    -11.229164     5A    -11.228935     6A    -11.227672
       7A    -11.220122     8A    -11.219994     9A    -11.218240
      10A    -11.217548    11A    -11.216562    12A    -11.213353
      13A    -11.212357    14A     -1.295540    15A     -1.128266
      16A     -1.084536    17A     -1.016479    18A     -1.014466
      19A     -0.992138    20A     -0.967253    21A     -0.857443
      22A     -0.838629    23A     -0.834281    24A     -0.802592
      25A     -0.747440    26A     -0.717798    27A     -0.664140
      28A     -0.643955    29A     -0.616712    30A     -0.597840
      31A     -0.594947    32A     -0.592582    33A     -0.589097
      34A     -0.584973    35A     -0.575717    36A     -0.544335
      37A     -0.515332    38A     -0.507603    39A     -0.503254
      40A     -0.495499    41A     -0.486247    42A     -0.481397
      43A     -0.477005    44A     -0.461382    45A     -0.457965
      46A     -0.371898    47A     -0.294515    48A     -0.273998

    Virtual:

      49A      0.126007    50A      0.170776    51A      0.172102
      52A      0.181742    53A      0.194621    54A      0.202397
      55A      0.215751    56A      0.223726    57A      0.231743
      58A      0.238788    59A      0.254736    60A      0.255023
      61A      0.260520    62A      0.268877    63A      0.278263
      64A      0.283272    65A      0.291242    66A      0.296915
      67A      0.329385    68A      0.357982    69A      0.372285
      70A      0.386237    71A      0.394849    72A      0.414344
      73A      0.427370    74A      0.434867    75A      0.447970
      76A      0.476415    77A      0.486432    78A      0.509230
      79A      0.518673    80A      0.571573    81A      0.590170
      82A      0.599107    83A      0.608226    84A      0.610567
      85A      0.623024    86A      0.647069    87A      0.655004
      88A      0.661778    89A      0.680537    90A      0.694227
      91A      0.698375    92A      0.718282    93A      0.728340
      94A      0.736742    95A      0.740796    96A      0.745208
      97A      0.754910    98A      0.761684    99A      0.762910
     100A      0.771656   101A      0.790936   102A      0.792189
     103A      0.798440   104A      0.820727   105A      0.848022
     106A      0.852879   107A      0.875345   108A      0.880542
     109A      0.890824   110A      0.892438   111A      0.894082
     112A      0.896713   113A      0.904365   114A      0.905985
     115A      0.916671   116A      0.922540   117A      0.924846
     118A      0.933877   119A      0.947326   120A      0.953754
     121A      0.962077   122A      0.970356   123A      0.978868
     124A      0.988851   125A      0.997436   126A      1.002059
     127A      1.019931   128A      1.057276   129A      1.071435
     130A      1.080834   131A      1.099421   132A      1.126162
     133A      1.133292   134A      1.135455   135A      1.146485
     136A      1.156745   137A      1.164290   138A      1.173251
     139A      1.206799   140A      1.211692   141A      1.226144
     142A      1.239496   143A      1.253560   144A      1.263013
     145A      1.280128   146A      1.286008   147A      1.302351
     148A      1.330077   149A      1.333722   150A      1.360413
     151A      1.372657   152A      1.391340   153A      1.423345
     154A      1.437967   155A      1.468473   156A      1.475500
     157A      1.501343   158A      1.524002   159A      1.554658
     160A      1.581607   161A      1.585921   162A      1.608597
     163A      1.644776   164A      1.647904   165A      1.662807
     166A      1.682102   167A      1.689973   168A      1.697666
     169A      1.724314   170A      1.736863   171A      1.757884
     172A      1.770576   173A      1.786898   174A      1.804099
     175A      1.821609   176A      1.833993   177A      1.866288
     178A      1.869139   179A      1.880537   180A      1.888777
     181A      1.895586   182A      1.900029   183A      1.902403
     184A      1.914302   185A      1.922245   186A      1.928491
     187A      1.930904   188A      1.941192   189A      1.945861
     190A      1.951169   191A      1.959429   192A      1.964411
     193A      1.973715   194A      1.984288   195A      1.989736
     196A      1.999575   197A      2.006196   198A      2.010187
     199A      2.029087   200A      2.034511   201A      2.059609
     202A      2.071271   203A      2.083143   204A      2.091960
     205A      2.098893   206A      2.102788   207A      2.112303
     208A      2.121896   209A      2.128787   210A      2.158654
     211A      2.167473   212A      2.172775   213A      2.174968
     214A      2.184664   215A      2.232290   216A      2.265340
     217A      2.282787   218A      2.298475   219A      2.308352
     220A      2.313447   221A      2.319442   222A      2.345590
     223A      2.353028   224A      2.371579   225A      2.389891
     226A      2.412598   227A      2.459386   228A      2.462093
     229A      2.472503   230A      2.481811   231A      2.520409
     232A      2.552024   233A      2.555611   234A      2.579310
     235A      2.587020   236A      2.601505   237A      2.610619
     238A      2.653165   239A      2.675986   240A      2.715531
     241A      2.723785   242A      2.762592   243A      2.773522
     244A      2.779395   245A      2.781667   246A      2.796727
     247A      2.805803   248A      2.819149   249A      2.837965
     250A      2.852894   251A      2.865566   252A      2.904629
     253A      2.920313   254A      2.937661   255A      2.955924
     256A      2.966501   257A      2.986179   258A      2.995347
     259A      3.052954   260A      3.072879   261A      3.111988
     262A      3.139743   263A      3.223540   264A      3.325067
     265A      3.391554   266A      3.740471   267A      3.962100

    Final Occupation by Irrep:
              A
    DOCC [    48 ]

  @RHF Final Energy:  -518.80240945577088

   => Energetics <=

    Nuclear Repulsion Energy =            744.7579593858619091
    One-Electron Energy =               -2179.2080817809428481
    Two-Electron Energy =                 915.6477129393101677
    Total Energy =                       -518.8024094557708850

Computation Completed

Properties will be evaluated at   0.000000,   0.000000,   0.000000 [a0]

Properties computed using the SCF density matrix

  Nuclear Dipole Moment: [e a0]
     X:    -3.7726      Y:   -19.5995      Z:     6.6459

  Electronic Dipole Moment: [e a0]
     X:     4.5539      Y:    19.4528      Z:    -6.5594

  Dipole Moment: [e a0]
     X:     0.7813      Y:    -0.1466      Z:     0.0865     Total:     0.7996

  Dipole Moment: [D]
     X:     1.9859      Y:    -0.3727      Z:     0.2200     Total:     2.0325

*** tstop() called on ds3 at Sun Apr 26 22:25:39 2020
Module time:
	user time   =     263.06 seconds =       4.38 minutes
	system time =     107.34 seconds =       1.79 minutes
	total time  =        457 seconds =       7.62 minutes
Total time:
	user time   =     263.06 seconds =       4.38 minutes
	system time =     107.34 seconds =       1.79 minutes
	total time  =        457 seconds =       7.62 minutes
                                     G D M A

                                 by Anthony Stone

                           version 2.2.06, 22 June 2011

               Distributed Multipoles from Gaussian wavefunctions

Starting at 22:25:39 on 26 Apr 2020

Using SCF density matrix from file ./SSI/SSI-010TRP-032ILE-1-dimer.test.31346.fchk

                         Distributed Multipole Analysis

Standard DMA

Positions and radii in angstrom
Multipole moments in atomic units, ea_0^k for rank k

C          x = -0.559966  y = -0.891472  z =  1.747374 angstrom
           Maximum rank =  0   Radius =  0.650 angstrom
                   Q00  =  -0.058381

C          x = -0.705966  y = -0.317472  z =  3.153374 angstrom
           Maximum rank =  0   Radius =  0.650 angstrom
                   Q00  =  -0.226918

C          x =  0.261034  y = -0.065472  z =  0.822374 angstrom
           Maximum rank =  0   Radius =  0.650 angstrom
                   Q00  =  -0.127747

C          x =  1.611034  y = -0.106472  z =  0.671374 angstrom
           Maximum rank =  0   Radius =  0.650 angstrom
                   Q00  =   0.066899

C          x = -0.220966  y =  0.924528  z = -0.097626 angstrom
           Maximum rank =  0   Radius =  0.650 angstrom
                   Q00  =  -0.047290

C          x =  0.904034  y =  1.451528  z = -0.778626 angstrom
           Maximum rank =  0   Radius =  0.650 angstrom
                   Q00  =   0.294846

C          x = -1.489966  y =  1.422528  z = -0.413626 angstrom
           Maximum rank =  0   Radius =  0.650 angstrom
                   Q00  =  -0.102553

C          x =  0.795034  y =  2.443528  z = -1.740626 angstrom
           Maximum rank =  0   Radius =  0.650 angstrom
                   Q00  =  -0.120062

C          x = -1.601966  y =  2.414528  z = -1.382626 angstrom
           Maximum rank =  0   Radius =  0.650 angstrom
                   Q00  =  -0.078254

C          x = -0.468966  y =  2.918528  z = -2.036626 angstrom
           Maximum rank =  0   Radius =  0.650 angstrom
                   Q00  =  -0.076409

N          x =  2.001034  y =  0.801528  z = -0.282626 angstrom
           Maximum rank =  0   Radius =  0.650 angstrom
                   Q00  =  -0.494376

H          x = -0.093966  y = -1.857472  z =  1.835374 angstrom
           Maximum rank =  0   Radius =  0.325 angstrom
                   Q00  =   0.073604

H          x = -1.544966  y = -1.046472  z =  1.306374 angstrom
           Maximum rank =  0   Radius =  0.325 angstrom
                   Q00  =   0.071946

H          x =  0.293034  y = -0.174472  z =  3.563374 angstrom
           Maximum rank =  0   Radius =  0.325 angstrom
                   Q00  =   0.078441

H          x =  2.279034  y = -0.762472  z =  1.220374 angstrom
           Maximum rank =  0   Radius =  0.325 angstrom
                   Q00  =   0.101020

H          x =  2.962034  y =  1.027528  z = -0.534626 angstrom
           Maximum rank =  0   Radius =  0.325 angstrom
                   Q00  =   0.215237

H          x = -2.357966  y =  1.050528  z =  0.103374 angstrom
           Maximum rank =  0   Radius =  0.325 angstrom
                   Q00  =   0.069573

H          x =  1.679034  y =  2.847528  z = -2.204626 angstrom
           Maximum rank =  0   Radius =  0.325 angstrom
                   Q00  =   0.073136

H          x = -2.575966  y =  2.801528  z = -1.643626 angstrom
           Maximum rank =  0   Radius =  0.325 angstrom
                   Q00  =   0.059689

H          x = -0.590966  y =  3.699528  z = -2.773626 angstrom
           Maximum rank =  0   Radius =  0.325 angstrom
                   Q00  =   0.064127

H          x = -1.284033  y = -1.022062  z =  3.769324 angstrom
           Maximum rank =  0   Radius =  0.325 angstrom
                   Q00  =   0.076069

H          x = -1.238774  y =  0.644478  z =  3.125824 angstrom
           Maximum rank =  0   Radius =  0.325 angstrom
                   Q00  =   0.083327

C          x = -0.280966  y = -3.927472  z = -0.016626 angstrom
           Maximum rank =  0   Radius =  0.650 angstrom
                   Q00  =  -0.224124

C          x = -0.239966  y = -5.446472  z = -0.193626 angstrom
           Maximum rank =  0   Radius =  0.650 angstrom
                   Q00  =  -0.241535

H          x =  0.225034  y = -3.687472  z =  0.913374 angstrom
           Maximum rank =  0   Radius =  0.325 angstrom
                   Q00  =   0.067731

H          x =  0.241034  y = -3.435472  z = -0.838626 angstrom
           Maximum rank =  0   Radius =  0.325 angstrom
                   Q00  =   0.085124

H          x = -1.301966  y = -3.544472  z = -0.005626 angstrom
           Maximum rank =  0   Radius =  0.325 angstrom
                   Q00  =   0.082011

H          x = -0.694966  y = -5.693472  z = -1.154626 angstrom
           Maximum rank =  0   Radius =  0.325 angstrom
                   Q00  =   0.078058

H          x = -0.814465  y = -5.948892  z =  0.598544 angstrom
           Maximum rank =  0   Radius =  0.325 angstrom
                   Q00  =   0.078238

H          x =  0.800762  y = -5.802682  z = -0.192196 angstrom
           Maximum rank =  0   Radius =  0.325 angstrom
                   Q00  =   0.078573

Total multipoles referred to origin at
           x =   0.000000,  y =    0.000000,  z =    0.000000 angstrom
                   Q00  =  -0.000000

Finished at 22:25:39 on 26 Apr 2020

  DMA results are available in the Python driver through the
	  variable('DMA DISTRIBUTED MULTIPOLES')
  and
	  variable('DMA TOTAL MULTIPOLES')
  commands.

    Psi4 stopped on: Sunday, 26 April 2020 10:25PM
    Psi4 wall time for execution: 0:07:37.33

*** Psi4 exiting successfully. Buy a developer a beer!
