                               Psi4 1.3.2 release

  ==> Input File <==

--------------------------------------------------------------------------
import numpy as np
set {scf_type pk
basis cc-pvdz
d_convergence 10
gdma_switch   0
gdma_limit    0
gdma_origin   [ 0.0,  0.0,  0.0 ]
}
molecule test {
    units Angstrom
    0 1
    --
    0 1
    C                0.478191203849159    -0.676476722077686     1.412446858494513
    C                0.455191203849159    -1.082476722077686     2.889446858494512
    H               -0.496808796150841    -0.288476722077686     1.115446858494513
    H                1.231191203849159     0.097523277922314     1.263446858494513
    H                0.745191203849159    -1.522476722077686     0.779446858494513
    H                1.421191203849159    -1.514476722077686     3.139446858494513
    H               -0.336758796150841    -1.819392722077686     3.088866858494512
    H                0.287101203849159    -0.201602722077686     3.526476858494513
    C               -0.261808796150841     0.145523277922314    -2.202553141505487
    C               -0.676808796150841     1.613523277922314    -2.103553141505487
    H                0.316191203849159    -0.037476722077686    -3.108553141505487
    H                0.368191203849159    -0.108476722077686    -1.349553141505487
    H               -1.139808796150841    -0.500476722077686    -2.194553141505488
    H               -1.122808796150842     1.769523277922314    -1.121553141505487
    H               -1.411728796150841     1.856095277922314    -2.885255141505487
    H                0.201191203849159     2.268605277922314    -2.203505141505487

}
e, wfn = energy('scf', return_wfn=True)
gdma(wfn)
dmavals = variable('DMA DISTRIBUTED MULTIPOLES')
charges = np.array(dmavals)
print(charges)
np.save('SSI-100LEU-130VAL-1-dimer.npy', np.array(charges))--------------------------------------------------------------------------

*** tstart() called on ds3
*** at Tue Apr 28 11:48:38 2020

   => Loading Basis Set <=

    Name: CC-PVDZ
    Role: ORBITAL
    Keyword: BASIS
    atoms 1-2, 9-10  entry C          line   138 file /theoryfs2/ds/metcalf/miniconda2/envs/tf2gpu/share/psi4/basis/cc-pvdz.gbs
    atoms 3-8, 11-16 entry H          line    22 file /theoryfs2/ds/metcalf/miniconda2/envs/tf2gpu/share/psi4/basis/cc-pvdz.gbs

         ---------------------------------------------------------
                                   SCF
               by Justin Turney, Rob Parrish, Andy Simmonett
                          and Daniel G. A. Smith
                              RHF Reference
                        1 Threads,    500 MiB Core
         ---------------------------------------------------------

  ==> Geometry <==

    Molecular point group: c1
    Full point group: C1

    Geometry (in Angstrom), charge = 0, multiplicity = 1:

       Center              X                  Y                   Z               Mass
    ------------   -----------------  -----------------  -----------------  -----------------
         C            0.478191203849    -0.676476722078     1.412446858495    12.000000000000
         C            0.455191203849    -1.082476722078     2.889446858495    12.000000000000
         H           -0.496808796151    -0.288476722078     1.115446858495     1.007825032230
         H            1.231191203849     0.097523277922     1.263446858495     1.007825032230
         H            0.745191203849    -1.522476722078     0.779446858495     1.007825032230
         H            1.421191203849    -1.514476722078     3.139446858495     1.007825032230
         H           -0.336758796151    -1.819392722078     3.088866858495     1.007825032230
         H            0.287101203849    -0.201602722078     3.526476858495     1.007825032230
         C           -0.261808796151     0.145523277922    -2.202553141505    12.000000000000
         C           -0.676808796151     1.613523277922    -2.103553141505    12.000000000000
         H            0.316191203849    -0.037476722078    -3.108553141505     1.007825032230
         H            0.368191203849    -0.108476722078    -1.349553141505     1.007825032230
         H           -1.139808796151    -0.500476722078    -2.194553141505     1.007825032230
         H           -1.122808796151     1.769523277922    -1.121553141505     1.007825032230
         H           -1.411728796151     1.856095277922    -2.885255141505     1.007825032230
         H            0.201191203849     2.268605277922    -2.203505141505     1.007825032230

  Running in c1 symmetry.

  Rotational constants: A =      0.55850  B =      0.04544  C =      0.04353 [cm^-1]
  Rotational constants: A =  16743.29385  B =   1362.18297  C =   1305.11885 [MHz]
  Nuclear repulsion =  121.270817117855628

  Charge       = 0
  Multiplicity = 1
  Electrons    = 36
  Nalpha       = 18
  Nbeta        = 18

  ==> Algorithm <==

  SCF Algorithm Type is PK.
  DIIS enabled.
  MOM disabled.
  Fractional occupation disabled.
  Guess Type is SAD.
  Energy threshold   = 1.00e-06
  Density threshold  = 1.00e-10
  Integral threshold = 0.00e+00

  ==> Primary Basis <==

  Basis Set: CC-PVDZ
    Blend: CC-PVDZ
    Number of shells: 60
    Number of basis function: 116
    Number of Cartesian functions: 120
    Spherical Harmonics?: true
    Max angular momentum: 2

  ==> Pre-Iterations <==

   -------------------------------------------------------
    Irrep   Nso     Nmo     Nalpha   Nbeta   Ndocc  Nsocc
   -------------------------------------------------------
     A        116     116       0       0       0       0
   -------------------------------------------------------
    Total     116     116      18      18      18       0
   -------------------------------------------------------

  ==> Integral Setup <==

  Using integral reordering PK algorithm.
  Sizing the integral batches needed.
  Building batch lookup table.
   Calculation information:
      Number of atoms:                  16
      Number of AO shells:              60
      Number of primitives:            148
      Number of atomic orbitals:       120
      Number of basis functions:       116

      Integral cutoff                 1.00e-12
      Number of threads:                 1

	Batch   1 pq = [       0,    6786] index = [             0,23028291] size =     23028291
  Task number: 3
  Buffer size: 11059200
  Buffer per thread: 2
  We computed 1397086 shell quartets total.
  Whereas there are 1675365 unique shell quartets.

  ==> DiskJK: Disk-Based J/K Matrices <==

    J tasked:                  Yes
    K tasked:                  Yes
    wK tasked:                  No
    Memory [MiB]:              375
    Schwarz Cutoff:          1E-12

    OpenMP threads:              1

  Minimum eigenvalue in the overlap matrix is 6.0675192931E-03.
  Using Symmetric Orthogonalization.

  SCF Guess: Superposition of Atomic Densities via on-the-fly atomic UHF.

  ==> Iterations <==

                        Total Energy        Delta E     RMS |[F,P]|

   @RHF iter SAD:  -157.34147337027261   -1.57341e+02   0.00000e+00
   @RHF iter   1:  -158.30878398964433   -9.67311e-01   4.20434e-03 DIIS
   @RHF iter   2:  -158.44181697782719   -1.33033e-01   1.79088e-03 DIIS
   @RHF iter   3:  -158.46511545647809   -2.32985e-02   3.49787e-04 DIIS
   @RHF iter   4:  -158.46695427302677   -1.83882e-03   3.89497e-05 DIIS
   @RHF iter   5:  -158.46697832132105   -2.40483e-05   6.51754e-06 DIIS
   @RHF iter   6:  -158.46697895952394   -6.38203e-07   1.03323e-06 DIIS
   @RHF iter   7:  -158.46697897074947   -1.12255e-08   3.19235e-07 DIIS
   @RHF iter   8:  -158.46697897166436   -9.14895e-10   4.76241e-08 DIIS
   @RHF iter   9:  -158.46697897170506   -4.06999e-11   1.04025e-08 DIIS
   @RHF iter  10:  -158.46697897170662   -1.56319e-12   2.55372e-09 DIIS
   @RHF iter  11:  -158.46697897170674   -1.13687e-13   3.90432e-10 DIIS
   @RHF iter  12:  -158.46697897170600    7.38964e-13   9.13867e-11 DIIS
  Energy and wave function converged.

  ==> Post-Iterations <==

    Orbital Energies [Eh]
    ---------------------

    Doubly Occupied:

       1A    -11.219966     2A    -11.218551     3A    -11.218352
       4A    -11.214682     5A     -1.018920     6A     -1.016197
       7A     -0.839792     8A     -0.834027     9A     -0.601234
      10A     -0.596684    11A     -0.596330    12A     -0.595577
      13A     -0.504960    14A     -0.497416    15A     -0.488207
      16A     -0.485974    17A     -0.484982    18A     -0.480597

    Virtual:

      19A      0.172497    20A      0.194621    21A      0.227171
      22A      0.236237    23A      0.240707    24A      0.258028
      25A      0.260038    26A      0.274656    27A      0.284788
      28A      0.285867    29A      0.312833    30A      0.332295
      31A      0.392145    32A      0.424431    33A      0.584372
      34A      0.589141    35A      0.600045    36A      0.603907
      37A      0.608588    38A      0.645565    39A      0.674583
      40A      0.689619    41A      0.704520    42A      0.749688
      43A      0.841965    44A      0.881707    45A      0.887794
      46A      0.891300    47A      0.891902    48A      0.894640
      49A      0.900535    50A      0.908598    51A      0.915237
      52A      0.921532    53A      0.938485    54A      0.941697
      55A      0.979874    56A      1.015781    57A      1.121126
      58A      1.125068    59A      1.127930    60A      1.134383
      61A      1.230402    62A      1.283541    63A      1.468415
      64A      1.473859    65A      1.474858    66A      1.487688
      67A      1.574240    68A      1.583987    69A      1.681550
      70A      1.681716    71A      1.693289    72A      1.701324
      73A      1.845063    74A      1.855694    75A      1.866005
      76A      1.884702    77A      1.896705    78A      1.910007
      79A      1.934374    80A      1.938313    81A      1.942052
      82A      1.947426    83A      1.949373    84A      1.955066
      85A      1.959519    86A      1.967909    87A      1.984321
      88A      2.045136    89A      2.094834    90A      2.107354
      91A      2.110420    92A      2.128810    93A      2.292279
      94A      2.300068    95A      2.315079    96A      2.344706
      97A      2.449792    98A      2.454065    99A      2.459449
     100A      2.475874   101A      2.553356   102A      2.569608
     103A      2.571700   104A      2.581133   105A      2.755404
     106A      2.763907   107A      2.778160   108A      2.802783
     109A      2.846048   110A      2.847539   111A      2.861020
     112A      2.864324   113A      2.945350   114A      2.948116
     115A      2.958654   116A      2.967423

    Final Occupation by Irrep:
              A
    DOCC [    18 ]

  @RHF Final Energy:  -158.46697897170600

   => Energetics <=

    Nuclear Repulsion Energy =            121.2708171178556285
    One-Electron Energy =                -451.6506987772598904
    Two-Electron Energy =                 171.9129026876982493
    Total Energy =                       -158.4669789717059984

Computation Completed

Properties will be evaluated at   0.000000,   0.000000,   0.000000 [a0]

Properties computed using the SCF density matrix

  Nuclear Dipole Moment: [e a0]
     X:     0.0584      Y:    -0.0010      Z:     0.0470

  Electronic Dipole Moment: [e a0]
     X:    -0.0399      Y:    -0.0135      Z:    -0.0255

  Dipole Moment: [e a0]
     X:     0.0185      Y:    -0.0145      Z:     0.0215     Total:     0.0319

  Dipole Moment: [D]
     X:     0.0471      Y:    -0.0370      Z:     0.0547     Total:     0.0811

*** tstop() called on ds3 at Tue Apr 28 11:48:48 2020
Module time:
	user time   =       7.47 seconds =       0.12 minutes
	system time =       2.58 seconds =       0.04 minutes
	total time  =         10 seconds =       0.17 minutes
Total time:
	user time   =       7.47 seconds =       0.12 minutes
	system time =       2.58 seconds =       0.04 minutes
	total time  =         10 seconds =       0.17 minutes
                                     G D M A

                                 by Anthony Stone

                           version 2.2.06, 22 June 2011

               Distributed Multipoles from Gaussian wavefunctions

Starting at 11:48:48 on 28 Apr 2020

Using SCF density matrix from file ./SSI/SSI-100LEU-130VAL-1-dimer.test.3498.fchk

                         Distributed Multipole Analysis

Standard DMA

Positions and radii in angstrom
Multipole moments in atomic units, ea_0^k for rank k

C          x =  0.478191  y = -0.676477  z =  1.412447 angstrom
           Maximum rank =  0   Radius =  0.650 angstrom
                   Q00  =  -0.254753

C          x =  0.455191  y = -1.082477  z =  2.889447 angstrom
           Maximum rank =  0   Radius =  0.650 angstrom
                   Q00  =  -0.222724

H          x = -0.496809  y = -0.288477  z =  1.115447 angstrom
           Maximum rank =  0   Radius =  0.325 angstrom
                   Q00  =   0.080463

H          x =  1.231191  y =  0.097523  z =  1.263447 angstrom
           Maximum rank =  0   Radius =  0.325 angstrom
                   Q00  =   0.077669

H          x =  0.745191  y = -1.522477  z =  0.779447 angstrom
           Maximum rank =  0   Radius =  0.325 angstrom
                   Q00  =   0.079952

H          x =  1.421191  y = -1.514477  z =  3.139447 angstrom
           Maximum rank =  0   Radius =  0.325 angstrom
                   Q00  =   0.080681

H          x = -0.336759  y = -1.819393  z =  3.088867 angstrom
           Maximum rank =  0   Radius =  0.325 angstrom
                   Q00  =   0.081102

H          x =  0.287101  y = -0.201603  z =  3.526477 angstrom
           Maximum rank =  0   Radius =  0.325 angstrom
                   Q00  =   0.080165

C          x = -0.261809  y =  0.145523  z = -2.202553 angstrom
           Maximum rank =  0   Radius =  0.650 angstrom
                   Q00  =  -0.231496

C          x = -0.676809  y =  1.613523  z = -2.103553 angstrom
           Maximum rank =  0   Radius =  0.650 angstrom
                   Q00  =  -0.245218

H          x =  0.316191  y = -0.037477  z = -3.108553 angstrom
           Maximum rank =  0   Radius =  0.325 angstrom
                   Q00  =   0.077666

H          x =  0.368191  y = -0.108477  z = -1.349553 angstrom
           Maximum rank =  0   Radius =  0.325 angstrom
                   Q00  =   0.082694

H          x = -1.139809  y = -0.500477  z = -2.194553 angstrom
           Maximum rank =  0   Radius =  0.325 angstrom
                   Q00  =   0.078642

H          x = -1.122809  y =  1.769523  z = -1.121553 angstrom
           Maximum rank =  0   Radius =  0.325 angstrom
                   Q00  =   0.077475

H          x = -1.411729  y =  1.856095  z = -2.885255 angstrom
           Maximum rank =  0   Radius =  0.325 angstrom
                   Q00  =   0.078813

H          x =  0.201191  y =  2.268605  z = -2.203505 angstrom
           Maximum rank =  0   Radius =  0.325 angstrom
                   Q00  =   0.078870

Total multipoles referred to origin at
           x =   0.000000,  y =    0.000000,  z =    0.000000 angstrom
                   Q00  =  -0.000000

Finished at 11:48:48 on 28 Apr 2020

  DMA results are available in the Python driver through the
	  variable('DMA DISTRIBUTED MULTIPOLES')
  and
	  variable('DMA TOTAL MULTIPOLES')
  commands.

    Psi4 stopped on: Tuesday, 28 April 2020 11:48AM
    Psi4 wall time for execution: 0:00:09.76

*** Psi4 exiting successfully. Buy a developer a beer!
