                               Psi4 1.3.2 release

  ==> Input File <==

--------------------------------------------------------------------------
import numpy as np
set {scf_type pk
basis cc-pvdz
d_convergence 10
gdma_switch   0
gdma_limit    0
gdma_origin   [ 0.0,  0.0,  0.0 ]
}
molecule test {
    units Angstrom
    0 1
    --
    0 1
    C               -1.461033320780768    -0.255340881635941     0.753151493847400
    C               -2.693033320780768    -0.179340881635941     1.594151493847400
    H               -1.379033320780768    -1.232340881635941     0.276151493847400
    H               -1.505033320780768     0.512659118364060    -0.017848506152600
    H               -0.583033320780768    -0.081340881635941     1.377151493847400
    H               -3.574033320780768    -0.273340881635941     0.956151493847401
    H               -2.705033320780768     0.820659118364059     2.022151493847401
    H               -2.724623320780768    -0.951070881635940     2.377371493847400
    C                1.360966679219232    -0.029340881635941    -1.180848506152600
    C                2.793966679219232     0.457659118364059    -1.164848506152600
    H                1.231966679219232    -0.790340881635941    -1.950848506152600
    H                1.108966679219232    -0.460340881635941    -0.210848506152600
    H                0.682966679219232     0.797659118364059    -1.394848506152600
    H                2.891966679219232     1.257659118364060    -0.439848506152600
    H                3.098686679219232     0.853339118364060    -2.144948506152599
    H                3.445916679219232    -0.377430881635941    -0.868908506152600

}
e, wfn = energy('scf', return_wfn=True)
gdma(wfn)
dmavals = variable('DMA DISTRIBUTED MULTIPOLES')
charges = np.array(dmavals)
print(charges)
np.save('SSI-031ILE-246ALA-1-dimer.npy', np.array(charges))--------------------------------------------------------------------------

*** tstart() called on ds3
*** at Sun Apr 26 17:52:14 2020

   => Loading Basis Set <=

    Name: CC-PVDZ
    Role: ORBITAL
    Keyword: BASIS
    atoms 1-2, 9-10  entry C          line   138 file /theoryfs2/ds/metcalf/miniconda2/envs/tf2gpu/share/psi4/basis/cc-pvdz.gbs
    atoms 3-8, 11-16 entry H          line    22 file /theoryfs2/ds/metcalf/miniconda2/envs/tf2gpu/share/psi4/basis/cc-pvdz.gbs

         ---------------------------------------------------------
                                   SCF
               by Justin Turney, Rob Parrish, Andy Simmonett
                          and Daniel G. A. Smith
                              RHF Reference
                        1 Threads,    500 MiB Core
         ---------------------------------------------------------

  ==> Geometry <==

    Molecular point group: c1
    Full point group: C1

    Geometry (in Angstrom), charge = 0, multiplicity = 1:

       Center              X                  Y                   Z               Mass
    ------------   -----------------  -----------------  -----------------  -----------------
         C           -1.461033320781    -0.255340881636     0.753151493847    12.000000000000
         C           -2.693033320781    -0.179340881636     1.594151493847    12.000000000000
         H           -1.379033320781    -1.232340881636     0.276151493847     1.007825032230
         H           -1.505033320781     0.512659118364    -0.017848506153     1.007825032230
         H           -0.583033320781    -0.081340881636     1.377151493847     1.007825032230
         H           -3.574033320781    -0.273340881636     0.956151493847     1.007825032230
         H           -2.705033320781     0.820659118364     2.022151493847     1.007825032230
         H           -2.724623320781    -0.951070881636     2.377371493847     1.007825032230
         C            1.360966679219    -0.029340881636    -1.180848506153    12.000000000000
         C            2.793966679219     0.457659118364    -1.164848506153    12.000000000000
         H            1.231966679219    -0.790340881636    -1.950848506153     1.007825032230
         H            1.108966679219    -0.460340881636    -0.210848506153     1.007825032230
         H            0.682966679219     0.797659118364    -1.394848506153     1.007825032230
         H            2.891966679219     1.257659118364    -0.439848506153     1.007825032230
         H            3.098686679219     0.853339118364    -2.144948506153     1.007825032230
         H            3.445916679219    -0.377430881636    -0.868908506153     1.007825032230

  Running in c1 symmetry.

  Rotational constants: A =      0.91768  B =      0.04346  C =      0.04288 [cm^-1]
  Rotational constants: A =  27511.40202  B =   1302.75108  C =   1285.46565 [MHz]
  Nuclear repulsion =  122.583966782278878

  Charge       = 0
  Multiplicity = 1
  Electrons    = 36
  Nalpha       = 18
  Nbeta        = 18

  ==> Algorithm <==

  SCF Algorithm Type is PK.
  DIIS enabled.
  MOM disabled.
  Fractional occupation disabled.
  Guess Type is SAD.
  Energy threshold   = 1.00e-06
  Density threshold  = 1.00e-10
  Integral threshold = 0.00e+00

  ==> Primary Basis <==

  Basis Set: CC-PVDZ
    Blend: CC-PVDZ
    Number of shells: 60
    Number of basis function: 116
    Number of Cartesian functions: 120
    Spherical Harmonics?: true
    Max angular momentum: 2

  ==> Pre-Iterations <==

   -------------------------------------------------------
    Irrep   Nso     Nmo     Nalpha   Nbeta   Ndocc  Nsocc
   -------------------------------------------------------
     A        116     116       0       0       0       0
   -------------------------------------------------------
    Total     116     116      18      18      18       0
   -------------------------------------------------------

  ==> Integral Setup <==

  Using integral reordering PK algorithm.
  Sizing the integral batches needed.
  Building batch lookup table.
   Calculation information:
      Number of atoms:                  16
      Number of AO shells:              60
      Number of primitives:            148
      Number of atomic orbitals:       120
      Number of basis functions:       116

      Integral cutoff                 1.00e-12
      Number of threads:                 1

	Batch   1 pq = [       0,    6786] index = [             0,23028291] size =     23028291
  Task number: 3
  Buffer size: 11059200
  Buffer per thread: 2
  We computed 1399650 shell quartets total.
  Whereas there are 1675365 unique shell quartets.

  ==> DiskJK: Disk-Based J/K Matrices <==

    J tasked:                  Yes
    K tasked:                  Yes
    wK tasked:                  No
    Memory [MiB]:              375
    Schwarz Cutoff:          1E-12

    OpenMP threads:              1

  Minimum eigenvalue in the overlap matrix is 5.2706206417E-03.
  Using Symmetric Orthogonalization.

  SCF Guess: Superposition of Atomic Densities via on-the-fly atomic UHF.

  ==> Iterations <==

                        Total Energy        Delta E     RMS |[F,P]|

   @RHF iter SAD:  -157.45852251519830   -1.57459e+02   0.00000e+00
   @RHF iter   1:  -158.29903083856649   -8.40508e-01   4.30276e-03 DIIS
   @RHF iter   2:  -158.43712729094875   -1.38096e-01   1.84122e-03 DIIS
   @RHF iter   3:  -158.46161514579262   -2.44879e-02   3.55874e-04 DIIS
   @RHF iter   4:  -158.46350305751790   -1.88791e-03   3.95581e-05 DIIS
   @RHF iter   5:  -158.46352742850470   -2.43710e-05   7.08504e-06 DIIS
   @RHF iter   6:  -158.46352813754368   -7.09039e-07   1.32718e-06 DIIS
   @RHF iter   7:  -158.46352815370781   -1.61641e-08   3.27852e-07 DIIS
   @RHF iter   8:  -158.46352815475208   -1.04427e-09   4.35167e-08 DIIS
   @RHF iter   9:  -158.46352815478284   -3.07523e-11   1.01247e-08 DIIS
   @RHF iter  10:  -158.46352815478477   -1.93268e-12   3.12227e-09 DIIS
   @RHF iter  11:  -158.46352815478451    2.55795e-13   7.70588e-10 DIIS
   @RHF iter  12:  -158.46352815478500   -4.83169e-13   1.45223e-10 DIIS
   @RHF iter  13:  -158.46352815478494    5.68434e-14   2.43017e-11 DIIS
  Energy and wave function converged.

  ==> Post-Iterations <==

    Orbital Energies [Eh]
    ---------------------

    Doubly Occupied:

       1A    -11.216023     2A    -11.214501     3A    -11.213143
       4A    -11.213071     5A     -1.028148     6A     -1.020143
       7A     -0.838771     8A     -0.827992     9A     -0.605411
      10A     -0.602834    11A     -0.598059    12A     -0.596506
      13A     -0.513573    14A     -0.496408    15A     -0.488860
      16A     -0.481632    17A     -0.479246    18A     -0.476412

    Virtual:

      19A      0.177158    20A      0.195015    21A      0.225349
      22A      0.235061    23A      0.243626    24A      0.262514
      25A      0.266809    26A      0.276704    27A      0.284388
      28A      0.285346    29A      0.312701    30A      0.335693
      31A      0.385701    32A      0.426763    33A      0.565484
      34A      0.596575    35A      0.597565    36A      0.607922
      37A      0.609784    38A      0.635794    39A      0.675637
      40A      0.692045    41A      0.713254    42A      0.777788
      43A      0.852015    44A      0.884712    45A      0.892519
      46A      0.893987    47A      0.895928    48A      0.900936
      49A      0.905944    50A      0.908482    51A      0.915120
      52A      0.923203    53A      0.945846    54A      0.955023
      55A      0.976659    56A      1.003207    57A      1.124074
      58A      1.130394    59A      1.142760    60A      1.160416
      61A      1.220535    62A      1.286692    63A      1.475239
      64A      1.481094    65A      1.485778    66A      1.498616
      67A      1.572292    68A      1.598499    69A      1.678435
      70A      1.683241    71A      1.694262    72A      1.699123
      73A      1.841852    74A      1.849302    75A      1.866225
      76A      1.894588    77A      1.910898    78A      1.929877
      79A      1.938763    80A      1.947030    81A      1.950750
      82A      1.958939    83A      1.967417    84A      1.971355
      85A      1.974090    86A      2.000541    87A      2.008153
      88A      2.065517    89A      2.092843    90A      2.109685
      91A      2.130323    92A      2.136018    93A      2.308815
      94A      2.310782    95A      2.322149    96A      2.363207
      97A      2.453355    98A      2.468273    99A      2.480329
     100A      2.486148   101A      2.561205   102A      2.575595
     103A      2.586486   104A      2.592849   105A      2.762366
     106A      2.771384   107A      2.794284   108A      2.803707
     109A      2.849560   110A      2.854348   111A      2.867816
     112A      2.873305   113A      2.951764   114A      2.962638
     115A      2.969783   116A      2.974133

    Final Occupation by Irrep:
              A
    DOCC [    18 ]

  @RHF Final Energy:  -158.46352815478494

   => Energetics <=

    Nuclear Repulsion Energy =            122.5839667822788783
    One-Electron Energy =                -454.2735222066822303
    Two-Electron Energy =                 173.2260272696184131
    Total Energy =                       -158.4635281547849388

Computation Completed

Properties will be evaluated at   0.000000,   0.000000,   0.000000 [a0]

Properties computed using the SCF density matrix

  Nuclear Dipole Moment: [e a0]
     X:    -0.0097      Y:     0.0710      Z:    -0.0179

  Electronic Dipole Moment: [e a0]
     X:    -0.0078      Y:    -0.0617      Z:     0.0220

  Dipole Moment: [e a0]
     X:    -0.0175      Y:     0.0093      Z:     0.0041     Total:     0.0202

  Dipole Moment: [D]
     X:    -0.0444      Y:     0.0238      Z:     0.0104     Total:     0.0514

*** tstop() called on ds3 at Sun Apr 26 17:52:25 2020
Module time:
	user time   =       7.58 seconds =       0.13 minutes
	system time =       3.45 seconds =       0.06 minutes
	total time  =         11 seconds =       0.18 minutes
Total time:
	user time   =       7.58 seconds =       0.13 minutes
	system time =       3.45 seconds =       0.06 minutes
	total time  =         11 seconds =       0.18 minutes
                                     G D M A

                                 by Anthony Stone

                           version 2.2.06, 22 June 2011

               Distributed Multipoles from Gaussian wavefunctions

Starting at 17:52:25 on 26 Apr 2020

Using SCF density matrix from file ./SSI/SSI-031ILE-246ALA-1-dimer.test.17615.fchk

                         Distributed Multipole Analysis

Standard DMA

Positions and radii in angstrom
Multipole moments in atomic units, ea_0^k for rank k

C          x = -1.461033  y = -0.255341  z =  0.753151 angstrom
           Maximum rank =  0   Radius =  0.650 angstrom
                   Q00  =  -0.233159

C          x = -2.693033  y = -0.179341  z =  1.594151 angstrom
           Maximum rank =  0   Radius =  0.650 angstrom
                   Q00  =  -0.215307

H          x = -1.379033  y = -1.232341  z =  0.276151 angstrom
           Maximum rank =  0   Radius =  0.325 angstrom
                   Q00  =   0.074346

H          x = -1.505033  y =  0.512659  z = -0.017849 angstrom
           Maximum rank =  0   Radius =  0.325 angstrom
                   Q00  =   0.077262

H          x = -0.583033  y = -0.081341  z =  1.377151 angstrom
           Maximum rank =  0   Radius =  0.325 angstrom
                   Q00  =   0.071030

H          x = -3.574033  y = -0.273341  z =  0.956151 angstrom
           Maximum rank =  0   Radius =  0.325 angstrom
                   Q00  =   0.075322

H          x = -2.705033  y =  0.820659  z =  2.022151 angstrom
           Maximum rank =  0   Radius =  0.325 angstrom
                   Q00  =   0.073767

H          x = -2.724623  y = -0.951071  z =  2.377371 angstrom
           Maximum rank =  0   Radius =  0.325 angstrom
                   Q00  =   0.079005

C          x =  1.360967  y = -0.029341  z = -1.180849 angstrom
           Maximum rank =  0   Radius =  0.650 angstrom
                   Q00  =  -0.233070

C          x =  2.793967  y =  0.457659  z = -1.164849 angstrom
           Maximum rank =  0   Radius =  0.650 angstrom
                   Q00  =  -0.231736

H          x =  1.231967  y = -0.790341  z = -1.950849 angstrom
           Maximum rank =  0   Radius =  0.325 angstrom
                   Q00  =   0.076887

H          x =  1.108967  y = -0.460341  z = -0.210849 angstrom
           Maximum rank =  0   Radius =  0.325 angstrom
                   Q00  =   0.080283

H          x =  0.682967  y =  0.797659  z = -1.394849 angstrom
           Maximum rank =  0   Radius =  0.325 angstrom
                   Q00  =   0.075153

H          x =  2.891967  y =  1.257659  z = -0.439849 angstrom
           Maximum rank =  0   Radius =  0.325 angstrom
                   Q00  =   0.077000

H          x =  3.098687  y =  0.853339  z = -2.144949 angstrom
           Maximum rank =  0   Radius =  0.325 angstrom
                   Q00  =   0.077711

H          x =  3.445917  y = -0.377431  z = -0.868909 angstrom
           Maximum rank =  0   Radius =  0.325 angstrom
                   Q00  =   0.075505

Total multipoles referred to origin at
           x =   0.000000,  y =    0.000000,  z =    0.000000 angstrom
                   Q00  =  -0.000000

Finished at 17:52:25 on 26 Apr 2020

  DMA results are available in the Python driver through the
	  variable('DMA DISTRIBUTED MULTIPOLES')
  and
	  variable('DMA TOTAL MULTIPOLES')
  commands.

    Psi4 stopped on: Sunday, 26 April 2020 05:52PM
    Psi4 wall time for execution: 0:00:10.86

*** Psi4 exiting successfully. Buy a developer a beer!
