                               Psi4 1.3.2 release

  ==> Input File <==

--------------------------------------------------------------------------
import numpy as np
set {scf_type pk
basis cc-pvdz
d_convergence 10
gdma_switch   0
gdma_limit    0
gdma_origin   [ 0.0,  0.0,  0.0 ]
}
molecule test {
    units Angstrom
    0 1
    --
    0 1
    C               -2.177685645883947    -3.180137114680297     1.384793246931053
    C               -2.341685645883947    -0.166137114680297    -0.930206753068947
    C               -2.226685645883947    -0.949137114680297     0.221793246931053
    C               -2.565685645883947    -0.774137114680297    -2.166206753068947
    C               -2.333685645883947    -2.340137114680297     0.148793246931053
    C               -2.672685645883947    -2.163137114680297    -2.247206753068947
    C               -2.555685645883947    -2.940137114680296    -1.093206753068947
    H               -2.251685645883947     0.910862885319703    -0.867206753068947
    H               -2.029685645883947    -0.470137114680297     1.168793246931053
    H               -2.651685645883947    -0.170137114680297    -3.060206753068947
    H               -2.835685645883947    -2.638137114680297    -3.206206753068947
    H               -2.242685645883947    -2.549137114680297     2.273793246931053
    H               -1.171685645883947    -3.602137114680297     1.343793246931053
    H               -2.599685645883947    -4.014137114680296    -1.198206753068947
    H               -2.901424645883947    -4.005013114680296     1.460825246931053
    C                0.806314354116053     1.852862885319703    -0.047206753068947
    C                0.968314354116053     2.326862885319704    -1.472206753068947
    C                3.031314354116053     1.350862885319703    -0.827206753068947
    C                1.731314354116053     1.710862885319703     2.750793246931053
    C                2.688314354116053     1.487862885319703     1.585793246931053
    O                3.881314354116053     1.260862885319703     1.790793246931053
    N                2.186314354116053     1.551862885319703     0.348793246931053
    H                0.358314354116053     2.653862885319703     0.539793246931053
    H                0.199314354116053     0.946862885319703    -0.008206753068947
    H                1.308314354116053     3.362862885319704    -1.493206753068947
    H                0.041314354116053     2.216862885319703    -2.036206753068947
    H                3.487314354116053     0.359862885319703    -0.796206753068947
    H                0.721314354116053     1.892862885319703     2.394793246931053
    H                1.751913354116053     1.652501885319703    -1.847984753068947
    H                2.319221354116053     1.386936885319703    -1.664835753068947
    H                3.830221354116053     2.100827885319703    -0.923651753068947
    H                1.723020354116053     0.825667885319703     3.403756246931053
    H                2.033406354116053     2.617142885319703     3.296138246931053

}
e, wfn = energy('scf', return_wfn=True)
gdma(wfn)
dmavals = variable('DMA DISTRIBUTED MULTIPOLES')
charges = np.array(dmavals)
print(charges)
np.save('SSI-004PHE-160PRO-1-dimer.npy', np.array(charges))--------------------------------------------------------------------------

*** tstart() called on ds3
*** at Mon Apr 27 16:10:08 2020

   => Loading Basis Set <=

    Name: CC-PVDZ
    Role: ORBITAL
    Keyword: BASIS
    atoms 1-7, 16-20  entry C          line   138 file /theoryfs2/ds/metcalf/miniconda2/envs/tf2gpu/share/psi4/basis/cc-pvdz.gbs
    atoms 8-15, 23-33 entry H          line    22 file /theoryfs2/ds/metcalf/miniconda2/envs/tf2gpu/share/psi4/basis/cc-pvdz.gbs
    atoms 21          entry O          line   198 file /theoryfs2/ds/metcalf/miniconda2/envs/tf2gpu/share/psi4/basis/cc-pvdz.gbs
    atoms 22          entry N          line   168 file /theoryfs2/ds/metcalf/miniconda2/envs/tf2gpu/share/psi4/basis/cc-pvdz.gbs

         ---------------------------------------------------------
                                   SCF
               by Justin Turney, Rob Parrish, Andy Simmonett
                          and Daniel G. A. Smith
                              RHF Reference
                        1 Threads,    500 MiB Core
         ---------------------------------------------------------

  ==> Geometry <==

    Molecular point group: c1
    Full point group: C1

    Geometry (in Angstrom), charge = 0, multiplicity = 1:

       Center              X                  Y                   Z               Mass
    ------------   -----------------  -----------------  -----------------  -----------------
         C           -2.177685645884    -3.180137114680     1.384793246931    12.000000000000
         C           -2.341685645884    -0.166137114680    -0.930206753069    12.000000000000
         C           -2.226685645884    -0.949137114680     0.221793246931    12.000000000000
         C           -2.565685645884    -0.774137114680    -2.166206753069    12.000000000000
         C           -2.333685645884    -2.340137114680     0.148793246931    12.000000000000
         C           -2.672685645884    -2.163137114680    -2.247206753069    12.000000000000
         C           -2.555685645884    -2.940137114680    -1.093206753069    12.000000000000
         H           -2.251685645884     0.910862885320    -0.867206753069     1.007825032230
         H           -2.029685645884    -0.470137114680     1.168793246931     1.007825032230
         H           -2.651685645884    -0.170137114680    -3.060206753069     1.007825032230
         H           -2.835685645884    -2.638137114680    -3.206206753069     1.007825032230
         H           -2.242685645884    -2.549137114680     2.273793246931     1.007825032230
         H           -1.171685645884    -3.602137114680     1.343793246931     1.007825032230
         H           -2.599685645884    -4.014137114680    -1.198206753069     1.007825032230
         H           -2.901424645884    -4.005013114680     1.460825246931     1.007825032230
         C            0.806314354116     1.852862885320    -0.047206753069    12.000000000000
         C            0.968314354116     2.326862885320    -1.472206753069    12.000000000000
         C            3.031314354116     1.350862885320    -0.827206753069    12.000000000000
         C            1.731314354116     1.710862885320     2.750793246931    12.000000000000
         C            2.688314354116     1.487862885320     1.585793246931    12.000000000000
         O            3.881314354116     1.260862885320     1.790793246931    15.994914619570
         N            2.186314354116     1.551862885320     0.348793246931    14.003074004430
         H            0.358314354116     2.653862885320     0.539793246931     1.007825032230
         H            0.199314354116     0.946862885320    -0.008206753069     1.007825032230
         H            1.308314354116     3.362862885320    -1.493206753069     1.007825032230
         H            0.041314354116     2.216862885320    -2.036206753069     1.007825032230
         H            3.487314354116     0.359862885320    -0.796206753069     1.007825032230
         H            0.721314354116     1.892862885320     2.394793246931     1.007825032230
         H            1.751913354116     1.652501885320    -1.847984753069     1.007825032230
         H            2.319221354116     1.386936885320    -1.664835753069     1.007825032230
         H            3.830221354116     2.100827885320    -0.923651753069     1.007825032230
         H            1.723020354116     0.825667885320     3.403756246931     1.007825032230
         H            2.033406354116     2.617142885320     3.296138246931     1.007825032230

  Running in c1 symmetry.

  Rotational constants: A =      0.03222  B =      0.00882  C =      0.00771 [cm^-1]
  Rotational constants: A =    965.85016  B =    264.55015  C =    231.10451 [MHz]
  Nuclear repulsion =  841.366809084296278

  Charge       = 0
  Multiplicity = 1
  Electrons    = 106
  Nalpha       = 53
  Nbeta        = 53

  ==> Algorithm <==

  SCF Algorithm Type is PK.
  DIIS enabled.
  MOM disabled.
  Fractional occupation disabled.
  Guess Type is SAD.
  Energy threshold   = 1.00e-06
  Density threshold  = 1.00e-10
  Integral threshold = 0.00e+00

  ==> Primary Basis <==

  Basis Set: CC-PVDZ
    Blend: CC-PVDZ
    Number of shells: 141
    Number of basis function: 291
    Number of Cartesian functions: 305
    Spherical Harmonics?: true
    Max angular momentum: 2

  ==> Pre-Iterations <==

   -------------------------------------------------------
    Irrep   Nso     Nmo     Nalpha   Nbeta   Ndocc  Nsocc
   -------------------------------------------------------
     A        291     291       0       0       0       0
   -------------------------------------------------------
    Total     291     291      53      53      53       0
   -------------------------------------------------------

  ==> Integral Setup <==

  Using integral reordering PK algorithm.
  Sizing the integral batches needed.
  Building batch lookup table.
   Calculation information:
      Number of atoms:                  33
      Number of AO shells:             141
      Number of primitives:            403
      Number of atomic orbitals:       305
      Number of basis functions:       291

      Integral cutoff                 1.00e-12
      Number of threads:                 1

	Batch   1 pq = [       0,    9405] index = [             0,44231715] size =     44231715
	Batch   2 pq = [    9405,   13301] index = [      44231715,88464951] size =     44233236
	Batch   3 pq = [   13301,   16290] index = [      88464951,132690195] size =     44225244
	Batch   4 pq = [   16290,   18810] index = [     132690195,176917455] size =     44227260
	Batch   5 pq = [   18810,   21030] index = [     176917455,221140965] size =     44223510
	Batch   6 pq = [   21030,   23037] index = [     221140965,265363203] size =     44222238
	Batch   7 pq = [   23037,   24883] index = [     265363203,309594286] size =     44231083
	Batch   8 pq = [   24883,   26601] index = [     309594286,353819901] size =     44225615
	Batch   9 pq = [   26601,   28214] index = [     353819901,398029005] size =     44209104
	Batch  10 pq = [   28214,   29740] index = [     398029005,442248670] size =     44219665
	Batch  11 pq = [   29740,   31191] index = [     442248670,486454836] size =     44206166
	Batch  12 pq = [   31191,   32578] index = [     486454836,530679331] size =     44224495
	Batch  13 pq = [   32578,   33908] index = [     530679331,574893186] size =     44213855
	Batch  14 pq = [   33908,   35188] index = [     574893186,619115266] size =     44222080
	Batch  15 pq = [   35188,   36423] index = [     619115266,663335676] size =     44220410
	Batch  16 pq = [   36423,   37617] index = [     663335676,707538153] size =     44202477
	Batch  17 pq = [   37617,   38775] index = [     707538153,751769700] size =     44231547
	Batch  18 pq = [   38775,   39899] index = [     751769700,795985050] size =     44215350
	Batch  19 pq = [   39899,   40992] index = [     795985050,840192528] size =     44207478
	Batch  20 pq = [   40992,   42057] index = [     840192528,884416653] size =     44224125
	Batch  21 pq = [   42057,   42486] index = [     884416653,902551341] size =     18134688
  Task number: 82
  Buffer size: 11059200
  Buffer per thread: 2
  We computed 44518137 shell quartets total.
  Whereas there are 50115066 unique shell quartets.

  ==> DiskJK: Disk-Based J/K Matrices <==

    J tasked:                  Yes
    K tasked:                  Yes
    wK tasked:                  No
    Memory [MiB]:              375
    Schwarz Cutoff:          1E-12

    OpenMP threads:              1

  Minimum eigenvalue in the overlap matrix is 3.1725496859E-04.
  Using Symmetric Orthogonalization.

  SCF Guess: Superposition of Atomic Densities via on-the-fly atomic UHF.

  ==> Iterations <==

                        Total Energy        Delta E     RMS |[F,P]|

   @RHF iter SAD:  -593.90580055231123   -5.93906e+02   0.00000e+00
   @RHF iter   1:  -594.27524606182828   -3.69446e-01   2.60993e-03 DIIS
   @RHF iter   2:  -594.56149682333978   -2.86251e-01   1.38986e-03 DIIS
   @RHF iter   3:  -594.62784384874692   -6.63470e-02   3.51936e-04 DIIS
   @RHF iter   4:  -594.63397143498617   -6.12759e-03   1.36026e-04 DIIS
   @RHF iter   5:  -594.63489655627382   -9.25121e-04   2.28163e-05 DIIS
   @RHF iter   6:  -594.63494996177906   -5.34055e-05   1.15852e-05 DIIS
   @RHF iter   7:  -594.63496123157176   -1.12698e-05   4.11053e-06 DIIS
   @RHF iter   8:  -594.63496350377511   -2.27220e-06   1.69005e-06 DIIS
   @RHF iter   9:  -594.63496385306894   -3.49294e-07   5.19243e-07 DIIS
   @RHF iter  10:  -594.63496387957207   -2.65031e-08   1.57929e-07 DIIS
   @RHF iter  11:  -594.63496388214355   -2.57148e-09   6.25681e-08 DIIS
   @RHF iter  12:  -594.63496388243311   -2.89560e-10   2.34191e-08 DIIS
   @RHF iter  13:  -594.63496388248598   -5.28644e-11   6.86236e-09 DIIS
   @RHF iter  14:  -594.63496388250383   -1.78488e-11   2.64699e-09 DIIS
   @RHF iter  15:  -594.63496388250519   -1.36424e-12   1.22571e-09 DIIS
   @RHF iter  16:  -594.63496388249916    6.02540e-12   5.55647e-10 DIIS
   @RHF iter  17:  -594.63496388250428   -5.11591e-12   1.89481e-10 DIIS
   @RHF iter  18:  -594.63496388249462    9.66338e-12   7.68395e-11 DIIS
  Energy and wave function converged.

  ==> Post-Iterations <==

    Orbital Energies [Eh]
    ---------------------

    Doubly Occupied:

       1A    -20.492933     2A    -15.580906     3A    -11.337380
       4A    -11.275237     5A    -11.249934     6A    -11.245729
       7A    -11.244116     8A    -11.242026     9A    -11.239983
      10A    -11.239850    11A    -11.238202    12A    -11.235542
      13A    -11.235475    14A    -11.219343    15A     -1.358832
      16A     -1.253323    17A     -1.158411    18A     -1.071258
      19A     -1.051155    20A     -1.018556    21A     -1.003980
      22A     -0.968846    23A     -0.937370    24A     -0.854082
      25A     -0.831743    26A     -0.802735    27A     -0.753883
      28A     -0.729148    29A     -0.697340    30A     -0.670198
      31A     -0.652953    32A     -0.639442    33A     -0.637235
      34A     -0.616223    35A     -0.595118    36A     -0.589897
      37A     -0.582316    38A     -0.572120    39A     -0.569062
      40A     -0.543955    41A     -0.543243    42A     -0.539918
      43A     -0.527961    44A     -0.521576    45A     -0.493901
      46A     -0.493191    47A     -0.487327    48A     -0.482138
      49A     -0.397678    50A     -0.386991    51A     -0.360795
      52A     -0.338792    53A     -0.328123

    Virtual:

      54A      0.125491    55A      0.131886    56A      0.159380
      57A      0.178884    58A      0.183944    59A      0.192755
      60A      0.203099    61A      0.212378    62A      0.225581
      63A      0.230895    64A      0.245173    65A      0.252631
      66A      0.257305    67A      0.260622    68A      0.264886
      69A      0.269357    70A      0.274694    71A      0.286181
      72A      0.293432    73A      0.304218    74A      0.319607
      75A      0.340984    76A      0.352493    77A      0.359544
      78A      0.371912    79A      0.391835    80A      0.422210
      81A      0.445367    82A      0.452073    83A      0.459499
      84A      0.469119    85A      0.488402    86A      0.498255
      87A      0.526945    88A      0.541963    89A      0.561033
      90A      0.581063    91A      0.595441    92A      0.622216
      93A      0.623195    94A      0.648938    95A      0.668096
      96A      0.672615    97A      0.688965    98A      0.691382
      99A      0.691655   100A      0.700266   101A      0.706786
     102A      0.709279   103A      0.730696   104A      0.732611
     105A      0.738403   106A      0.745689   107A      0.749074
     108A      0.756297   109A      0.763615   110A      0.776292
     111A      0.788813   112A      0.794706   113A      0.809071
     114A      0.829830   115A      0.840862   116A      0.846271
     117A      0.856787   118A      0.865351   119A      0.867607
     120A      0.870998   121A      0.871619   122A      0.881274
     123A      0.883422   124A      0.888785   125A      0.892884
     126A      0.897687   127A      0.911276   128A      0.916215
     129A      0.925890   130A      0.930760   131A      0.934639
     132A      0.941459   133A      0.950370   134A      0.974640
     135A      0.987246   136A      0.999704   137A      1.012171
     138A      1.031571   139A      1.050507   140A      1.065115
     141A      1.083885   142A      1.096401   143A      1.116501
     144A      1.123941   145A      1.133935   146A      1.143809
     147A      1.158640   148A      1.176035   149A      1.188606
     150A      1.212940   151A      1.221984   152A      1.227051
     153A      1.240527   154A      1.248527   155A      1.252416
     156A      1.267899   157A      1.285509   158A      1.300959
     159A      1.313609   160A      1.316165   161A      1.359365
     162A      1.372371   163A      1.403516   164A      1.413517
     165A      1.423893   166A      1.434351   167A      1.449536
     168A      1.493296   169A      1.497511   170A      1.515166
     171A      1.549034   172A      1.558788   173A      1.578008
     174A      1.587195   175A      1.595637   176A      1.603367
     177A      1.620550   178A      1.648308   179A      1.660359
     180A      1.664409   181A      1.688048   182A      1.708492
     183A      1.724602   184A      1.731482   185A      1.749921
     186A      1.750442   187A      1.775286   188A      1.783721
     189A      1.804569   190A      1.831580   191A      1.836499
     192A      1.852248   193A      1.858982   194A      1.870545
     195A      1.881239   196A      1.887794   197A      1.895087
     198A      1.898139   199A      1.902035   200A      1.911693
     201A      1.917085   202A      1.917816   203A      1.923945
     204A      1.933811   205A      1.942305   206A      1.950918
     207A      1.955581   208A      1.965954   209A      1.974208
     210A      1.981915   211A      1.991207   212A      2.005661
     213A      2.018772   214A      2.030279   215A      2.051056
     216A      2.059711   217A      2.067562   218A      2.071404
     219A      2.101382   220A      2.115841   221A      2.120004
     222A      2.124796   223A      2.127413   224A      2.146364
     225A      2.149234   226A      2.155076   227A      2.165666
     228A      2.175015   229A      2.182701   230A      2.194424
     231A      2.228465   232A      2.247450   233A      2.252403
     234A      2.259226   235A      2.268599   236A      2.280857
     237A      2.284520   238A      2.293251   239A      2.312986
     240A      2.342113   241A      2.354533   242A      2.372312
     243A      2.430844   244A      2.436569   245A      2.444276
     246A      2.467482   247A      2.479334   248A      2.484191
     249A      2.494263   250A      2.519957   251A      2.536547
     252A      2.555764   253A      2.609571   254A      2.624512
     255A      2.638798   256A      2.718635   257A      2.723051
     258A      2.735932   259A      2.755447   260A      2.756731
     261A      2.765583   262A      2.774765   263A      2.779327
     264A      2.793872   265A      2.804309   266A      2.821180
     267A      2.834609   268A      2.838438   269A      2.841094
     270A      2.847249   271A      2.861505   272A      2.945636
     273A      2.968389   274A      2.987209   275A      3.008818
     276A      3.017200   277A      3.024217   278A      3.097278
     279A      3.116793   280A      3.154132   281A      3.170651
     282A      3.188109   283A      3.228551   284A      3.282942
     285A      3.349935   286A      3.374043   287A      3.526486
     288A      3.841208   289A      3.911732   290A      3.944809
     291A      5.130290

    Final Occupation by Irrep:
              A
    DOCC [    53 ]

  @RHF Final Energy:  -594.63496388249462

   => Energetics <=

    Nuclear Repulsion Energy =            841.3668090842962783
    One-Electron Energy =               -2475.7286056542789083
    Two-Electron Energy =                1039.7268326874882405
    Total Energy =                       -594.6349638824945032

Computation Completed

Properties will be evaluated at   0.000000,   0.000000,   0.000000 [a0]

Properties computed using the SCF density matrix

  Nuclear Dipole Moment: [e a0]
     X:    -0.8413      Y:     3.2623      Z:    -1.1365

  Electronic Dipole Moment: [e a0]
     X:    -0.7199      Y:    -3.1627      Z:     0.3953

  Dipole Moment: [e a0]
     X:    -1.5612      Y:     0.0997      Z:    -0.7413     Total:     1.7311

  Dipole Moment: [D]
     X:    -3.9683      Y:     0.2533      Z:    -1.8841     Total:     4.4001

*** tstop() called on ds3 at Mon Apr 27 16:20:58 2020
Module time:
	user time   =     360.95 seconds =       6.02 minutes
	system time =     155.98 seconds =       2.60 minutes
	total time  =        650 seconds =      10.83 minutes
Total time:
	user time   =     360.95 seconds =       6.02 minutes
	system time =     155.98 seconds =       2.60 minutes
	total time  =        650 seconds =      10.83 minutes
                                     G D M A

                                 by Anthony Stone

                           version 2.2.06, 22 June 2011

               Distributed Multipoles from Gaussian wavefunctions

Starting at 16:20:58 on 27 Apr 2020

Using SCF density matrix from file ./SSI/SSI-004PHE-160PRO-1-dimer.test.20117.fchk

                         Distributed Multipole Analysis

Standard DMA

Positions and radii in angstrom
Multipole moments in atomic units, ea_0^k for rank k

C          x = -2.177686  y = -3.180137  z =  1.384793 angstrom
           Maximum rank =  0   Radius =  0.650 angstrom
                   Q00  =  -0.203459

C          x = -2.341686  y = -0.166137  z = -0.930207 angstrom
           Maximum rank =  0   Radius =  0.650 angstrom
                   Q00  =  -0.086175

C          x = -2.226686  y = -0.949137  z =  0.221793 angstrom
           Maximum rank =  0   Radius =  0.650 angstrom
                   Q00  =  -0.063337

C          x = -2.565686  y = -0.774137  z = -2.166207 angstrom
           Maximum rank =  0   Radius =  0.650 angstrom
                   Q00  =  -0.082812

C          x = -2.333686  y = -2.340137  z =  0.148793 angstrom
           Maximum rank =  0   Radius =  0.650 angstrom
                   Q00  =  -0.089160

C          x = -2.672686  y = -2.163137  z = -2.247207 angstrom
           Maximum rank =  0   Radius =  0.650 angstrom
                   Q00  =  -0.076557

C          x = -2.555686  y = -2.940137  z = -1.093207 angstrom
           Maximum rank =  0   Radius =  0.650 angstrom
                   Q00  =  -0.018900

H          x = -2.251686  y =  0.910863  z = -0.867207 angstrom
           Maximum rank =  0   Radius =  0.325 angstrom
                   Q00  =   0.063701

H          x = -2.029686  y = -0.470137  z =  1.168793 angstrom
           Maximum rank =  0   Radius =  0.325 angstrom
                   Q00  =   0.058147

H          x = -2.651686  y = -0.170137  z = -3.060207 angstrom
           Maximum rank =  0   Radius =  0.325 angstrom
                   Q00  =   0.062663

H          x = -2.835686  y = -2.638137  z = -3.206207 angstrom
           Maximum rank =  0   Radius =  0.325 angstrom
                   Q00  =   0.068372

H          x = -2.242686  y = -2.549137  z =  2.273793 angstrom
           Maximum rank =  0   Radius =  0.325 angstrom
                   Q00  =   0.098655

H          x = -1.171686  y = -3.602137  z =  1.343793 angstrom
           Maximum rank =  0   Radius =  0.325 angstrom
                   Q00  =   0.104241

H          x = -2.599686  y = -4.014137  z = -1.198207 angstrom
           Maximum rank =  0   Radius =  0.325 angstrom
                   Q00  =   0.058977

H          x = -2.901425  y = -4.005013  z =  1.460825 angstrom
           Maximum rank =  0   Radius =  0.325 angstrom
                   Q00  =   0.104035

C          x =  0.806314  y =  1.852863  z = -0.047207 angstrom
           Maximum rank =  0   Radius =  0.650 angstrom
                   Q00  =  -0.013419

C          x =  0.968314  y =  2.326863  z = -1.472207 angstrom
           Maximum rank =  0   Radius =  0.650 angstrom
                   Q00  =  -0.211998

C          x =  3.031314  y =  1.350863  z = -0.827207 angstrom
           Maximum rank =  0   Radius =  0.650 angstrom
                   Q00  =  -0.102422

C          x =  1.731314  y =  1.710863  z =  2.750793 angstrom
           Maximum rank =  0   Radius =  0.650 angstrom
                   Q00  =  -0.266585

C          x =  2.688314  y =  1.487863  z =  1.585793 angstrom
           Maximum rank =  0   Radius =  0.650 angstrom
                   Q00  =   0.749306

O          x =  3.881314  y =  1.260863  z =  1.790793 angstrom
           Maximum rank =  0   Radius =  0.650 angstrom
                   Q00  =  -0.787085

N          x =  2.186314  y =  1.551863  z =  0.348793 angstrom
           Maximum rank =  0   Radius =  0.650 angstrom
                   Q00  =  -0.458056

H          x =  0.358314  y =  2.653863  z =  0.539793 angstrom
           Maximum rank =  0   Radius =  0.325 angstrom
                   Q00  =   0.080190

H          x =  0.199314  y =  0.946863  z = -0.008207 angstrom
           Maximum rank =  0   Radius =  0.325 angstrom
                   Q00  =   0.072189

H          x =  1.308314  y =  3.362863  z = -1.493207 angstrom
           Maximum rank =  0   Radius =  0.325 angstrom
                   Q00  =   0.092407

H          x =  0.041314  y =  2.216863  z = -2.036207 angstrom
           Maximum rank =  0   Radius =  0.325 angstrom
                   Q00  =   0.088312

H          x =  3.487314  y =  0.359863  z = -0.796207 angstrom
           Maximum rank =  0   Radius =  0.325 angstrom
                   Q00  =   0.099424

H          x =  0.721314  y =  1.892863  z =  2.394793 angstrom
           Maximum rank =  0   Radius =  0.325 angstrom
                   Q00  =   0.079061

H          x =  1.751913  y =  1.652502  z = -1.847985 angstrom
           Maximum rank =  0   Radius =  0.325 angstrom
                   Q00  =   0.108901

H          x =  2.319221  y =  1.386937  z = -1.664836 angstrom
           Maximum rank =  0   Radius =  0.325 angstrom
                   Q00  =   0.104942

H          x =  3.830221  y =  2.100828  z = -0.923652 angstrom
           Maximum rank =  0   Radius =  0.325 angstrom
                   Q00  =   0.107351

H          x =  1.723020  y =  0.825668  z =  3.403756 angstrom
           Maximum rank =  0   Radius =  0.325 angstrom
                   Q00  =   0.131173

H          x =  2.033406  y =  2.617143  z =  3.296138 angstrom
           Maximum rank =  0   Radius =  0.325 angstrom
                   Q00  =   0.127915

Total multipoles referred to origin at
           x =   0.000000,  y =    0.000000,  z =    0.000000 angstrom
                   Q00  =  -0.000000

Finished at 16:20:58 on 27 Apr 2020

  DMA results are available in the Python driver through the
	  variable('DMA DISTRIBUTED MULTIPOLES')
  and
	  variable('DMA TOTAL MULTIPOLES')
  commands.

    Psi4 stopped on: Monday, 27 April 2020 04:20PM
    Psi4 wall time for execution: 0:10:50.05

*** Psi4 exiting successfully. Buy a developer a beer!
