                               Psi4 1.3.2 release

  ==> Input File <==

--------------------------------------------------------------------------
import numpy as np
set {scf_type pk
basis cc-pvdz
d_convergence 10
gdma_switch   0
gdma_limit    0
gdma_origin   [ 0.0,  0.0,  0.0 ]
}
molecule test {
    units Angstrom
    0 1
    --
    0 1
    C               -2.013912478277839    -0.105523487323751     0.510261023718412
    C               -2.732912478277839     0.995476512676249    -0.270738976281588
    H               -1.333912478277839    -0.653523487323751    -0.143738976281588
    H               -1.445912478277839     0.320476512676249     1.337261023718412
    H               -2.735912478277839    -0.792523487323751     0.943261023718412
    H               -3.460912478277839     1.457476512676249     0.396261023718412
    H               -3.261772478277839     0.559866512676249    -1.131288976281588
    H               -2.043462478277839     1.770396512676249    -0.637008976281588
    C                1.804087521722161    -0.282523487323751     0.357261023718412
    C                2.947087521722161    -0.604523487323751    -0.600738976281588
    H                1.248087521722161    -1.187523487323751     0.608261023718412
    H                2.191087521722161     0.167476512676249     1.272261023718412
    H                1.124087521722161     0.430476512676249    -0.112738976281588
    H                3.524087521722160     0.297476512676249    -0.815738976281588
    H                2.532669521722161    -1.046473487323751    -1.518858976281588
    H                3.610069521722161    -1.358203487323751    -0.150828976281588

}
e, wfn = energy('scf', return_wfn=True)
gdma(wfn)
dmavals = variable('DMA DISTRIBUTED MULTIPOLES')
charges = np.array(dmavals)
print(charges)
np.save('SSI-011ILE-018ALA-1-dimer.npy', np.array(charges))--------------------------------------------------------------------------

*** tstart() called on ds3
*** at Mon Apr 27 18:43:18 2020

   => Loading Basis Set <=

    Name: CC-PVDZ
    Role: ORBITAL
    Keyword: BASIS
    atoms 1-2, 9-10  entry C          line   138 file /theoryfs2/ds/metcalf/miniconda2/envs/tf2gpu/share/psi4/basis/cc-pvdz.gbs
    atoms 3-8, 11-16 entry H          line    22 file /theoryfs2/ds/metcalf/miniconda2/envs/tf2gpu/share/psi4/basis/cc-pvdz.gbs

         ---------------------------------------------------------
                                   SCF
               by Justin Turney, Rob Parrish, Andy Simmonett
                          and Daniel G. A. Smith
                              RHF Reference
                        1 Threads,    500 MiB Core
         ---------------------------------------------------------

  ==> Geometry <==

    Molecular point group: c1
    Full point group: C1

    Geometry (in Angstrom), charge = 0, multiplicity = 1:

       Center              X                  Y                   Z               Mass
    ------------   -----------------  -----------------  -----------------  -----------------
         C           -2.013912478278    -0.105523487324     0.510261023718    12.000000000000
         C           -2.732912478278     0.995476512676    -0.270738976282    12.000000000000
         H           -1.333912478278    -0.653523487324    -0.143738976282     1.007825032230
         H           -1.445912478278     0.320476512676     1.337261023718     1.007825032230
         H           -2.735912478278    -0.792523487324     0.943261023718     1.007825032230
         H           -3.460912478278     1.457476512676     0.396261023718     1.007825032230
         H           -3.261772478278     0.559866512676    -1.131288976282     1.007825032230
         H           -2.043462478278     1.770396512676    -0.637008976282     1.007825032230
         C            1.804087521722    -0.282523487324     0.357261023718    12.000000000000
         C            2.947087521722    -0.604523487324    -0.600738976282    12.000000000000
         H            1.248087521722    -1.187523487324     0.608261023718     1.007825032230
         H            2.191087521722     0.167476512676     1.272261023718     1.007825032230
         H            1.124087521722     0.430476512676    -0.112738976282     1.007825032230
         H            3.524087521722     0.297476512676    -0.815738976282     1.007825032230
         H            2.532669521722    -1.046473487324    -1.518858976282     1.007825032230
         H            3.610069521722    -1.358203487324    -0.150828976282     1.007825032230

  Running in c1 symmetry.

  Rotational constants: A =      0.52992  B =      0.04365  C =      0.04233 [cm^-1]
  Rotational constants: A =  15886.54007  B =   1308.57592  C =   1268.96845 [MHz]
  Nuclear repulsion =  120.421690819334984

  Charge       = 0
  Multiplicity = 1
  Electrons    = 36
  Nalpha       = 18
  Nbeta        = 18

  ==> Algorithm <==

  SCF Algorithm Type is PK.
  DIIS enabled.
  MOM disabled.
  Fractional occupation disabled.
  Guess Type is SAD.
  Energy threshold   = 1.00e-06
  Density threshold  = 1.00e-10
  Integral threshold = 0.00e+00

  ==> Primary Basis <==

  Basis Set: CC-PVDZ
    Blend: CC-PVDZ
    Number of shells: 60
    Number of basis function: 116
    Number of Cartesian functions: 120
    Spherical Harmonics?: true
    Max angular momentum: 2

  ==> Pre-Iterations <==

   -------------------------------------------------------
    Irrep   Nso     Nmo     Nalpha   Nbeta   Ndocc  Nsocc
   -------------------------------------------------------
     A        116     116       0       0       0       0
   -------------------------------------------------------
    Total     116     116      18      18      18       0
   -------------------------------------------------------

  ==> Integral Setup <==

  Using integral reordering PK algorithm.
  Sizing the integral batches needed.
  Building batch lookup table.
   Calculation information:
      Number of atoms:                  16
      Number of AO shells:              60
      Number of primitives:            148
      Number of atomic orbitals:       120
      Number of basis functions:       116

      Integral cutoff                 1.00e-12
      Number of threads:                 1

	Batch   1 pq = [       0,    6786] index = [             0,23028291] size =     23028291
  Task number: 3
  Buffer size: 11059200
  Buffer per thread: 2
  We computed 1366584 shell quartets total.
  Whereas there are 1675365 unique shell quartets.

  ==> DiskJK: Disk-Based J/K Matrices <==

    J tasked:                  Yes
    K tasked:                  Yes
    wK tasked:                  No
    Memory [MiB]:              375
    Schwarz Cutoff:          1E-12

    OpenMP threads:              1

  Minimum eigenvalue in the overlap matrix is 7.3019805721E-03.
  Using Symmetric Orthogonalization.

  SCF Guess: Superposition of Atomic Densities via on-the-fly atomic UHF.

  ==> Iterations <==

                        Total Energy        Delta E     RMS |[F,P]|

   @RHF iter SAD:  -157.33838173873741   -1.57338e+02   0.00000e+00
   @RHF iter   1:  -158.30834655846550   -9.69965e-01   4.21421e-03 DIIS
   @RHF iter   2:  -158.44176474039563   -1.33418e-01   1.80292e-03 DIIS
   @RHF iter   3:  -158.46532614234332   -2.35614e-02   3.49830e-04 DIIS
   @RHF iter   4:  -158.46716487473978   -1.83873e-03   3.89308e-05 DIIS
   @RHF iter   5:  -158.46718862658227   -2.37518e-05   6.60544e-06 DIIS
   @RHF iter   6:  -158.46718926286718   -6.36285e-07   1.13216e-06 DIIS
   @RHF iter   7:  -158.46718927518293   -1.23158e-08   3.15781e-07 DIIS
   @RHF iter   8:  -158.46718927607242   -8.89486e-10   3.79084e-08 DIIS
   @RHF iter   9:  -158.46718927609572   -2.33058e-11   6.76275e-09 DIIS
   @RHF iter  10:  -158.46718927609609   -3.69482e-13   1.80045e-09 DIIS
   @RHF iter  11:  -158.46718927609683   -7.38964e-13   4.95324e-10 DIIS
   @RHF iter  12:  -158.46718927609635    4.83169e-13   1.29976e-10 DIIS
   @RHF iter  13:  -158.46718927609678   -4.26326e-13   1.89913e-11 DIIS
  Energy and wave function converged.

  ==> Post-Iterations <==

    Orbital Energies [Eh]
    ---------------------

    Doubly Occupied:

       1A    -11.219339     2A    -11.219334     3A    -11.216502
       4A    -11.215870     5A     -1.018886     6A     -1.016780
       7A     -0.838785     8A     -0.834148     9A     -0.602224
      10A     -0.599205    11A     -0.595292    12A     -0.592099
      13A     -0.503955    14A     -0.499972    15A     -0.490203
      16A     -0.484917    17A     -0.483405    18A     -0.479056

    Virtual:

      19A      0.172455    20A      0.195029    21A      0.223579
      22A      0.234734    23A      0.244260    24A      0.256863
      25A      0.262949    26A      0.274168    27A      0.279752
      28A      0.285839    29A      0.305947    30A      0.317905
      31A      0.398400    32A      0.400937    33A      0.571040
      34A      0.595419    35A      0.600270    36A      0.606853
      37A      0.611497    38A      0.630331    39A      0.664519
      40A      0.682080    41A      0.690420    42A      0.785634
      43A      0.841604    44A      0.869344    45A      0.881997
      46A      0.890912    47A      0.891316    48A      0.894711
      49A      0.895793    50A      0.905587    51A      0.909960
      52A      0.915103    53A      0.933294    54A      0.945840
      55A      0.977412    56A      0.981440    57A      1.120901
      58A      1.126416    59A      1.131036    60A      1.153909
      61A      1.228844    62A      1.241549    63A      1.466623
      64A      1.474973    65A      1.476870    66A      1.487049
      67A      1.563737    68A      1.582103    69A      1.678810
      70A      1.683706    71A      1.694648    72A      1.697940
      73A      1.855473    74A      1.861640    75A      1.866592
      76A      1.885860    77A      1.887337    78A      1.919652
      79A      1.941108    80A      1.942153    81A      1.947132
      82A      1.947667    83A      1.953883    84A      1.955426
      85A      1.958972    86A      1.966725    87A      1.969471
      88A      2.014826    89A      2.087046    90A      2.096958
      91A      2.110370    92A      2.124305    93A      2.295818
      94A      2.307310    95A      2.316644    96A      2.322217
      97A      2.447823    98A      2.451967    99A      2.462460
     100A      2.477386   101A      2.552928   102A      2.560826
     103A      2.564772   104A      2.576519   105A      2.754489
     106A      2.763081   107A      2.784942   108A      2.790708
     109A      2.837336   110A      2.853872   111A      2.862860
     112A      2.868947   113A      2.936216   114A      2.945216
     115A      2.962389   116A      2.973748

    Final Occupation by Irrep:
              A
    DOCC [    18 ]

  @RHF Final Energy:  -158.46718927609678

   => Energetics <=

    Nuclear Repulsion Energy =            120.4216908193349838
    One-Electron Energy =                -449.9578169662909204
    Two-Electron Energy =                 171.0689368708591758
    Total Energy =                       -158.4671892760967751

Computation Completed

Properties will be evaluated at   0.000000,   0.000000,   0.000000 [a0]

Properties computed using the SCF density matrix

  Nuclear Dipole Moment: [e a0]
     X:    -0.0486      Y:    -0.0324      Z:     0.0442

  Electronic Dipole Moment: [e a0]
     X:     0.0439      Y:     0.0274      Z:    -0.0245

  Dipole Moment: [e a0]
     X:    -0.0047      Y:    -0.0051      Z:     0.0196     Total:     0.0208

  Dipole Moment: [D]
     X:    -0.0120      Y:    -0.0129      Z:     0.0499     Total:     0.0529

*** tstop() called on ds3 at Mon Apr 27 18:43:28 2020
Module time:
	user time   =       7.22 seconds =       0.12 minutes
	system time =       2.77 seconds =       0.05 minutes
	total time  =         10 seconds =       0.17 minutes
Total time:
	user time   =       7.22 seconds =       0.12 minutes
	system time =       2.77 seconds =       0.05 minutes
	total time  =         10 seconds =       0.17 minutes
                                     G D M A

                                 by Anthony Stone

                           version 2.2.06, 22 June 2011

               Distributed Multipoles from Gaussian wavefunctions

Starting at 18:43:28 on 27 Apr 2020

Using SCF density matrix from file ./SSI/SSI-011ILE-018ALA-1-dimer.test.28398.fchk

                         Distributed Multipole Analysis

Standard DMA

Positions and radii in angstrom
Multipole moments in atomic units, ea_0^k for rank k

C          x = -2.013912  y = -0.105523  z =  0.510261 angstrom
           Maximum rank =  0   Radius =  0.650 angstrom
                   Q00  =  -0.236404

C          x = -2.732912  y =  0.995477  z = -0.270739 angstrom
           Maximum rank =  0   Radius =  0.650 angstrom
                   Q00  =  -0.238213

H          x = -1.333912  y = -0.653523  z = -0.143739 angstrom
           Maximum rank =  0   Radius =  0.325 angstrom
                   Q00  =   0.080110

H          x = -1.445912  y =  0.320477  z =  1.337261 angstrom
           Maximum rank =  0   Radius =  0.325 angstrom
                   Q00  =   0.079529

H          x = -2.735912  y = -0.792523  z =  0.943261 angstrom
           Maximum rank =  0   Radius =  0.325 angstrom
                   Q00  =   0.079499

H          x = -3.460912  y =  1.457477  z =  0.396261 angstrom
           Maximum rank =  0   Radius =  0.325 angstrom
                   Q00  =   0.077977

H          x = -3.261772  y =  0.559867  z = -1.131289 angstrom
           Maximum rank =  0   Radius =  0.325 angstrom
                   Q00  =   0.077917

H          x = -2.043462  y =  1.770397  z = -0.637009 angstrom
           Maximum rank =  0   Radius =  0.325 angstrom
                   Q00  =   0.079923

C          x =  1.804088  y = -0.282523  z =  0.357261 angstrom
           Maximum rank =  0   Radius =  0.650 angstrom
                   Q00  =  -0.229310

C          x =  2.947088  y = -0.604523  z = -0.600739 angstrom
           Maximum rank =  0   Radius =  0.650 angstrom
                   Q00  =  -0.242218

H          x =  1.248088  y = -1.187523  z =  0.608261 angstrom
           Maximum rank =  0   Radius =  0.325 angstrom
                   Q00  =   0.080258

H          x =  2.191088  y =  0.167477  z =  1.272261 angstrom
           Maximum rank =  0   Radius =  0.325 angstrom
                   Q00  =   0.078425

H          x =  1.124088  y =  0.430477  z = -0.112739 angstrom
           Maximum rank =  0   Radius =  0.325 angstrom
                   Q00  =   0.077382

H          x =  3.524088  y =  0.297477  z = -0.815739 angstrom
           Maximum rank =  0   Radius =  0.325 angstrom
                   Q00  =   0.081657

H          x =  2.532670  y = -1.046473  z = -1.518859 angstrom
           Maximum rank =  0   Radius =  0.325 angstrom
                   Q00  =   0.077037

H          x =  3.610070  y = -1.358203  z = -0.150829 angstrom
           Maximum rank =  0   Radius =  0.325 angstrom
                   Q00  =   0.076431

Total multipoles referred to origin at
           x =   0.000000,  y =    0.000000,  z =    0.000000 angstrom
                   Q00  =  -0.000000

Finished at 18:43:28 on 27 Apr 2020

  DMA results are available in the Python driver through the
	  variable('DMA DISTRIBUTED MULTIPOLES')
  and
	  variable('DMA TOTAL MULTIPOLES')
  commands.

    Psi4 stopped on: Monday, 27 April 2020 06:43PM
    Psi4 wall time for execution: 0:00:09.94

*** Psi4 exiting successfully. Buy a developer a beer!
