                               Psi4 1.3.2 release

  ==> Input File <==

--------------------------------------------------------------------------
import numpy as np
set {scf_type pk
basis cc-pvdz
d_convergence 10
gdma_switch   0
gdma_limit    0
gdma_origin   [ 0.0,  0.0,  0.0 ]
}
molecule test {
    units Angstrom
    0 1
    --
    0 1
    C               -0.283094061798923    -1.066532179021443    -3.150750421319444
    C                0.324905938201077     0.383467820978557    -1.089750421319443
    C                0.615905938201077    -0.627532179021443    -2.057750421319443
    C                1.449905938201077     0.487467820978557    -0.235750421319443
    C                1.865905938201077    -1.084532179021443    -1.778750421319443
    C               -0.736094061798923     2.114467820978557     0.203249578680557
    C                0.395905938201077     2.192467820978556     1.034249578680557
    C               -0.777094061798923     1.219467820978557    -0.862750421319443
    C                1.498905938201077     1.387467820978556     0.818249578680557
    N                2.365905938201077    -0.429532179021443    -0.679750421319443
    H               -1.587094061798923     2.754467820978557     0.386249578680557
    H                0.403905938201077     2.892467820978557     1.858249578680557
    H               -1.646094061798923     1.155467820978556    -1.499750421319443
    H                2.371905938201076     1.437467820978557     1.446249578680557
    H                0.314905938201077    -1.398532179021444    -3.997750421319444
    H               -0.873094061798923    -0.208532179021443    -3.477750421319443
    H                2.379905938201076    -1.865532179021443    -2.327750421319444
    H                3.293905938201076    -0.604532179021443    -0.295750421319443
    H               -0.963463061798923    -1.874292179021444    -2.843136421319444
    C               -2.127094061798923    -0.722532179021444     2.438249578680556
    C               -3.007094061798924    -1.667532179021443     1.611249578680557
    C               -0.938094061798923    -1.410532179021444     3.147249578680557
    H               -1.750094061798923     0.064467820978557     1.787249578680557
    H               -2.751094061798923    -0.268532179021443     3.209249578680557
    H               -2.456094061798924    -1.993532179021444     0.731249578680557
    H               -1.306094061798923    -2.228532179021443     3.763249578680556
    H               -3.939961061798924    -1.163932179021443     1.317737578680557
    H               -3.274865061798923    -2.539972179021444     2.225379578680557
    H               -0.226489061798923    -1.825692179021444     2.418379578680557
    H               -0.417261061798923    -0.719692179021443     3.826569578680557

}
e, wfn = energy('scf', return_wfn=True)
gdma(wfn)
dmavals = variable('DMA DISTRIBUTED MULTIPOLES')
charges = np.array(dmavals)
print(charges)
np.save('SSI-039TRP-066LEU-2-dimer.npy', np.array(charges))--------------------------------------------------------------------------

*** tstart() called on ds3
*** at Mon Apr 27 08:58:04 2020

   => Loading Basis Set <=

    Name: CC-PVDZ
    Role: ORBITAL
    Keyword: BASIS
    atoms 1-9, 20-22   entry C          line   138 file /theoryfs2/ds/metcalf/miniconda2/envs/tf2gpu/share/psi4/basis/cc-pvdz.gbs
    atoms 10           entry N          line   168 file /theoryfs2/ds/metcalf/miniconda2/envs/tf2gpu/share/psi4/basis/cc-pvdz.gbs
    atoms 11-19, 23-30 entry H          line    22 file /theoryfs2/ds/metcalf/miniconda2/envs/tf2gpu/share/psi4/basis/cc-pvdz.gbs

         ---------------------------------------------------------
                                   SCF
               by Justin Turney, Rob Parrish, Andy Simmonett
                          and Daniel G. A. Smith
                              RHF Reference
                        1 Threads,    500 MiB Core
         ---------------------------------------------------------

  ==> Geometry <==

    Molecular point group: c1
    Full point group: C1

    Geometry (in Angstrom), charge = 0, multiplicity = 1:

       Center              X                  Y                   Z               Mass
    ------------   -----------------  -----------------  -----------------  -----------------
         C           -0.283094061799    -1.066532179021    -3.150750421319    12.000000000000
         C            0.324905938201     0.383467820979    -1.089750421319    12.000000000000
         C            0.615905938201    -0.627532179021    -2.057750421319    12.000000000000
         C            1.449905938201     0.487467820979    -0.235750421319    12.000000000000
         C            1.865905938201    -1.084532179021    -1.778750421319    12.000000000000
         C           -0.736094061799     2.114467820979     0.203249578681    12.000000000000
         C            0.395905938201     2.192467820979     1.034249578681    12.000000000000
         C           -0.777094061799     1.219467820979    -0.862750421319    12.000000000000
         C            1.498905938201     1.387467820979     0.818249578681    12.000000000000
         N            2.365905938201    -0.429532179021    -0.679750421319    14.003074004430
         H           -1.587094061799     2.754467820979     0.386249578681     1.007825032230
         H            0.403905938201     2.892467820979     1.858249578681     1.007825032230
         H           -1.646094061799     1.155467820979    -1.499750421319     1.007825032230
         H            2.371905938201     1.437467820979     1.446249578681     1.007825032230
         H            0.314905938201    -1.398532179021    -3.997750421319     1.007825032230
         H           -0.873094061799    -0.208532179021    -3.477750421319     1.007825032230
         H            2.379905938201    -1.865532179021    -2.327750421319     1.007825032230
         H            3.293905938201    -0.604532179021    -0.295750421319     1.007825032230
         H           -0.963463061799    -1.874292179021    -2.843136421319     1.007825032230
         C           -2.127094061799    -0.722532179021     2.438249578681    12.000000000000
         C           -3.007094061799    -1.667532179021     1.611249578681    12.000000000000
         C           -0.938094061799    -1.410532179021     3.147249578681    12.000000000000
         H           -1.750094061799     0.064467820979     1.787249578681     1.007825032230
         H           -2.751094061799    -0.268532179021     3.209249578681     1.007825032230
         H           -2.456094061799    -1.993532179021     0.731249578681     1.007825032230
         H           -1.306094061799    -2.228532179021     3.763249578681     1.007825032230
         H           -3.939961061799    -1.163932179021     1.317737578681     1.007825032230
         H           -3.274865061799    -2.539972179021     2.225379578681     1.007825032230
         H           -0.226489061799    -1.825692179021     2.418379578681     1.007825032230
         H           -0.417261061799    -0.719692179021     3.826569578681     1.007825032230

  Running in c1 symmetry.

  Rotational constants: A =      0.02962  B =      0.01722  C =      0.01503 [cm^-1]
  Rotational constants: A =    887.98094  B =    516.10828  C =    450.66901 [MHz]
  Nuclear repulsion =  759.384640951440929

  Charge       = 0
  Multiplicity = 1
  Electrons    = 96
  Nalpha       = 48
  Nbeta        = 48

  ==> Algorithm <==

  SCF Algorithm Type is PK.
  DIIS enabled.
  MOM disabled.
  Fractional occupation disabled.
  Guess Type is SAD.
  Energy threshold   = 1.00e-06
  Density threshold  = 1.00e-10
  Integral threshold = 0.00e+00

  ==> Primary Basis <==

  Basis Set: CC-PVDZ
    Blend: CC-PVDZ
    Number of shells: 129
    Number of basis function: 267
    Number of Cartesian functions: 280
    Spherical Harmonics?: true
    Max angular momentum: 2

  ==> Pre-Iterations <==

   -------------------------------------------------------
    Irrep   Nso     Nmo     Nalpha   Nbeta   Ndocc  Nsocc
   -------------------------------------------------------
     A        267     267       0       0       0       0
   -------------------------------------------------------
    Total     267     267      48      48      48       0
   -------------------------------------------------------

  ==> Integral Setup <==

  Using integral reordering PK algorithm.
  Sizing the integral batches needed.
  Building batch lookup table.
   Calculation information:
      Number of atoms:                  30
      Number of AO shells:             129
      Number of primitives:            371
      Number of atomic orbitals:       280
      Number of basis functions:       267

      Integral cutoff                 1.00e-12
      Number of threads:                 1

	Batch   1 pq = [       0,    9405] index = [             0,44231715] size =     44231715
	Batch   2 pq = [    9405,   13301] index = [      44231715,88464951] size =     44233236
	Batch   3 pq = [   13301,   16290] index = [      88464951,132690195] size =     44225244
	Batch   4 pq = [   16290,   18810] index = [     132690195,176917455] size =     44227260
	Batch   5 pq = [   18810,   21030] index = [     176917455,221140965] size =     44223510
	Batch   6 pq = [   21030,   23037] index = [     221140965,265363203] size =     44222238
	Batch   7 pq = [   23037,   24883] index = [     265363203,309594286] size =     44231083
	Batch   8 pq = [   24883,   26601] index = [     309594286,353819901] size =     44225615
	Batch   9 pq = [   26601,   28214] index = [     353819901,398029005] size =     44209104
	Batch  10 pq = [   28214,   29740] index = [     398029005,442248670] size =     44219665
	Batch  11 pq = [   29740,   31191] index = [     442248670,486454836] size =     44206166
	Batch  12 pq = [   31191,   32578] index = [     486454836,530679331] size =     44224495
	Batch  13 pq = [   32578,   33908] index = [     530679331,574893186] size =     44213855
	Batch  14 pq = [   33908,   35188] index = [     574893186,619115266] size =     44222080
	Batch  15 pq = [   35188,   35778] index = [     619115266,640050531] size =     20935265
  Task number: 58
  Buffer size: 11059200
  Buffer per thread: 2
  We computed 37427218 shell quartets total.
  Whereas there are 35158305 unique shell quartets.
     6.45 percent of shell quartets recomputed by reordering.

  ==> DiskJK: Disk-Based J/K Matrices <==

    J tasked:                  Yes
    K tasked:                  Yes
    wK tasked:                  No
    Memory [MiB]:              375
    Schwarz Cutoff:          1E-12

    OpenMP threads:              1

  Minimum eigenvalue in the overlap matrix is 2.3994118983E-04.
  Using Symmetric Orthogonalization.

  SCF Guess: Superposition of Atomic Densities via on-the-fly atomic UHF.

  ==> Iterations <==

                        Total Energy        Delta E     RMS |[F,P]|

   @RHF iter SAD:  -518.04257269741606   -5.18043e+02   0.00000e+00
   @RHF iter   1:  -518.49354246303164   -4.50970e-01   2.50562e-03 DIIS
   @RHF iter   2:  -518.75165888558149   -2.58116e-01   1.13687e-03 DIIS
   @RHF iter   3:  -518.80011696065367   -4.84581e-02   2.92460e-04 DIIS
   @RHF iter   4:  -518.80438640916611   -4.26945e-03   1.33004e-04 DIIS
   @RHF iter   5:  -518.80509512798972   -7.08719e-04   1.95028e-05 DIIS
   @RHF iter   6:  -518.80512568848121   -3.05605e-05   8.59559e-06 DIIS
   @RHF iter   7:  -518.80513178887827   -6.10040e-06   3.41653e-06 DIIS
   @RHF iter   8:  -518.80513330353176   -1.51465e-06   1.41780e-06 DIIS
   @RHF iter   9:  -518.80513363826753   -3.34736e-07   6.05186e-07 DIIS
   @RHF iter  10:  -518.80513370243284   -6.41653e-08   2.68913e-07 DIIS
   @RHF iter  11:  -518.80513371823599   -1.58032e-08   1.08594e-07 DIIS
   @RHF iter  12:  -518.80513372075802   -2.52203e-09   3.83339e-08 DIIS
   @RHF iter  13:  -518.80513372095925   -2.01226e-10   1.08785e-08 DIIS
   @RHF iter  14:  -518.80513372097153   -1.22782e-11   4.02175e-09 DIIS
   @RHF iter  15:  -518.80513372097744   -5.91172e-12   1.88901e-09 DIIS
   @RHF iter  16:  -518.80513372098176   -4.32010e-12   9.68677e-10 DIIS
   @RHF iter  17:  -518.80513372098812   -6.36646e-12   3.94652e-10 DIIS
   @RHF iter  18:  -518.80513372098471    3.41061e-12   1.58395e-10 DIIS
   @RHF iter  19:  -518.80513372097448    1.02318e-11   6.08379e-11 DIIS
  Energy and wave function converged.

  ==> Post-Iterations <==

    Orbital Energies [Eh]
    ---------------------

    Doubly Occupied:

       1A    -15.602864     2A    -11.264108     3A    -11.263603
       4A    -11.231671     5A    -11.231373     6A    -11.230124
       7A    -11.225205     8A    -11.222981     9A    -11.220019
      10A    -11.215505    11A    -11.207629    12A    -11.207256
      13A    -11.206030    14A     -1.296739    15A     -1.129859
      16A     -1.076676    17A     -1.036161    18A     -0.999355
      19A     -0.988757    20A     -0.932539    21A     -0.912685
      22A     -0.840907    23A     -0.805869    24A     -0.784094
      25A     -0.753362    26A     -0.720070    27A     -0.664283
      28A     -0.643588    29A     -0.613043    30A     -0.604256
      31A     -0.593705    32A     -0.592762    33A     -0.580071
      34A     -0.569669    35A     -0.553441    36A     -0.540432
      37A     -0.535223    38A     -0.527016    39A     -0.521420
      40A     -0.496068    41A     -0.472476    42A     -0.469298
      43A     -0.461279    44A     -0.454191    45A     -0.449000
      46A     -0.373891    47A     -0.296409    48A     -0.275538

    Virtual:

      49A      0.124174    50A      0.166740    51A      0.175790
      52A      0.180225    53A      0.195839    54A      0.205158
      55A      0.217729    56A      0.225292    57A      0.228982
      58A      0.244125    59A      0.248676    60A      0.254268
      61A      0.264244    62A      0.266741    63A      0.281722
      64A      0.289328    65A      0.298860    66A      0.307264
      67A      0.319558    68A      0.332590    69A      0.375644
      70A      0.380196    71A      0.384284    72A      0.406805
      73A      0.421180    74A      0.434317    75A      0.445424
      76A      0.472136    77A      0.479021    78A      0.503258
      79A      0.510786    80A      0.578953    81A      0.593518
      82A      0.595294    83A      0.614551    84A      0.615424
      85A      0.632430    86A      0.636059    87A      0.644976
      88A      0.647489    89A      0.669029    90A      0.699969
      91A      0.709418    92A      0.720769    93A      0.735510
      94A      0.738796    95A      0.742352    96A      0.755875
      97A      0.758107    98A      0.768577    99A      0.776180
     100A      0.787455   101A      0.790856   102A      0.798046
     103A      0.810124   104A      0.834361   105A      0.843610
     106A      0.859517   107A      0.866391   108A      0.869283
     109A      0.876809   110A      0.884283   111A      0.887602
     112A      0.893390   113A      0.903125   114A      0.907623
     115A      0.911408   116A      0.912661   117A      0.928203
     118A      0.934793   119A      0.940588   120A      0.950322
     121A      0.954002   122A      0.956349   123A      0.966138
     124A      0.972344   125A      0.985795   126A      0.993839
     127A      1.015184   128A      1.050312   129A      1.065306
     130A      1.073806   131A      1.110047   132A      1.127937
     133A      1.132606   134A      1.137965   135A      1.142089
     136A      1.142993   137A      1.159907   138A      1.176762
     139A      1.213946   140A      1.223462   141A      1.229289
     142A      1.236764   143A      1.250353   144A      1.271373
     145A      1.288082   146A      1.296736   147A      1.325674
     148A      1.330002   149A      1.359350   150A      1.362670
     151A      1.372138   152A      1.381814   153A      1.421312
     154A      1.441888   155A      1.482435   156A      1.500640
     157A      1.520868   158A      1.525662   159A      1.559066
     160A      1.574872   161A      1.598104   162A      1.624884
     163A      1.637627   164A      1.639537   165A      1.656026
     166A      1.674086   167A      1.690281   168A      1.699895
     169A      1.702921   170A      1.709219   171A      1.740130
     172A      1.760549   173A      1.767971   174A      1.786204
     175A      1.810116   176A      1.825740   177A      1.832759
     178A      1.852346   179A      1.869499   180A      1.888537
     181A      1.891880   182A      1.898340   183A      1.903025
     184A      1.907745   185A      1.919621   186A      1.925068
     187A      1.928502   188A      1.940639   189A      1.950131
     190A      1.955084   191A      1.968390   192A      1.968562
     193A      1.977142   194A      1.984982   195A      1.989897
     196A      1.998710   197A      2.005505   198A      2.009006
     199A      2.017233   200A      2.029354   201A      2.048744
     202A      2.055657   203A      2.075578   204A      2.090120
     205A      2.095602   206A      2.112291   207A      2.112819
     208A      2.117985   209A      2.128503   210A      2.145234
     211A      2.160732   212A      2.172880   213A      2.175070
     214A      2.190089   215A      2.227512   216A      2.265278
     217A      2.284816   218A      2.297025   219A      2.303126
     220A      2.307890   221A      2.312109   222A      2.329215
     223A      2.339756   224A      2.347839   225A      2.360558
     226A      2.402987   227A      2.416840   228A      2.448796
     229A      2.464798   230A      2.500510   231A      2.536935
     232A      2.548165   233A      2.584235   234A      2.589961
     235A      2.602661   236A      2.622052   237A      2.636683
     238A      2.640806   239A      2.668827   240A      2.687292
     241A      2.713220   242A      2.761109   243A      2.768007
     244A      2.770772   245A      2.771738   246A      2.786083
     247A      2.804080   248A      2.805070   249A      2.815036
     250A      2.829325   251A      2.858423   252A      2.882095
     253A      2.914704   254A      2.931005   255A      2.961946
     256A      2.980409   257A      2.988624   258A      3.032694
     259A      3.053738   260A      3.078589   261A      3.104729
     262A      3.123587   263A      3.211808   264A      3.311257
     265A      3.384674   266A      3.740754   267A      3.956216

    Final Occupation by Irrep:
              A
    DOCC [    48 ]

  @RHF Final Energy:  -518.80513372097448

   => Energetics <=

    Nuclear Repulsion Energy =            759.3846409514409288
    One-Electron Energy =               -2208.5945434761920296
    Two-Electron Energy =                 930.4047688037767330
    Total Energy =                       -518.8051337209744815

Computation Completed

Properties will be evaluated at   0.000000,   0.000000,   0.000000 [a0]

Properties computed using the SCF density matrix

  Nuclear Dipole Moment: [e a0]
     X:   -11.6570      Y:    -7.8613      Z:     7.9966

  Electronic Dipole Moment: [e a0]
     X:    12.4254      Y:     7.5431      Z:    -8.1178

  Dipole Moment: [e a0]
     X:     0.7685      Y:    -0.3182      Z:    -0.1211     Total:     0.8405

  Dipole Moment: [D]
     X:     1.9533      Y:    -0.8087      Z:    -0.3079     Total:     2.1363

*** tstop() called on ds3 at Mon Apr 27 09:13:45 2020
Module time:
	user time   =     288.40 seconds =       4.81 minutes
	system time =      97.95 seconds =       1.63 minutes
	total time  =        941 seconds =      15.68 minutes
Total time:
	user time   =     288.40 seconds =       4.81 minutes
	system time =      97.95 seconds =       1.63 minutes
	total time  =        941 seconds =      15.68 minutes
                                     G D M A

                                 by Anthony Stone

                           version 2.2.06, 22 June 2011

               Distributed Multipoles from Gaussian wavefunctions

Starting at 9:13:45 on 27 Apr 2020

Using SCF density matrix from file ./SSI/SSI-039TRP-066LEU-2-dimer.test.1318.fchk

                         Distributed Multipole Analysis

Standard DMA

Positions and radii in angstrom
Multipole moments in atomic units, ea_0^k for rank k

C          x = -0.283094  y = -1.066532  z = -3.150750 angstrom
           Maximum rank =  0   Radius =  0.650 angstrom
                   Q00  =  -0.212579

C          x =  0.324906  y =  0.383468  z = -1.089750 angstrom
           Maximum rank =  0   Radius =  0.650 angstrom
                   Q00  =  -0.052619

C          x =  0.615906  y = -0.627532  z = -2.057750 angstrom
           Maximum rank =  0   Radius =  0.650 angstrom
                   Q00  =  -0.117986

C          x =  1.449906  y =  0.487468  z = -0.235750 angstrom
           Maximum rank =  0   Radius =  0.650 angstrom
                   Q00  =   0.274224

C          x =  1.865906  y = -1.084532  z = -1.778750 angstrom
           Maximum rank =  0   Radius =  0.650 angstrom
                   Q00  =   0.070376

C          x = -0.736094  y =  2.114468  z =  0.203250 angstrom
           Maximum rank =  0   Radius =  0.650 angstrom
                   Q00  =  -0.101710

C          x =  0.395906  y =  2.192468  z =  1.034250 angstrom
           Maximum rank =  0   Radius =  0.650 angstrom
                   Q00  =  -0.038909

C          x = -0.777094  y =  1.219468  z = -0.862750 angstrom
           Maximum rank =  0   Radius =  0.650 angstrom
                   Q00  =  -0.102176

C          x =  1.498906  y =  1.387468  z =  0.818250 angstrom
           Maximum rank =  0   Radius =  0.650 angstrom
                   Q00  =  -0.116623

N          x =  2.365906  y = -0.429532  z = -0.679750 angstrom
           Maximum rank =  0   Radius =  0.650 angstrom
                   Q00  =  -0.496267

H          x = -1.587094  y =  2.754468  z =  0.386250 angstrom
           Maximum rank =  0   Radius =  0.325 angstrom
                   Q00  =   0.061919

H          x =  0.403906  y =  2.892468  z =  1.858250 angstrom
           Maximum rank =  0   Radius =  0.325 angstrom
                   Q00  =   0.065319

H          x = -1.646094  y =  1.155468  z = -1.499750 angstrom
           Maximum rank =  0   Radius =  0.325 angstrom
                   Q00  =   0.071460

H          x =  2.371906  y =  1.437468  z =  1.446250 angstrom
           Maximum rank =  0   Radius =  0.325 angstrom
                   Q00  =   0.074345

H          x =  0.314906  y = -1.398532  z = -3.997750 angstrom
           Maximum rank =  0   Radius =  0.325 angstrom
                   Q00  =   0.103844

H          x = -0.873094  y = -0.208532  z = -3.477750 angstrom
           Maximum rank =  0   Radius =  0.325 angstrom
                   Q00  =   0.101710

H          x =  2.379906  y = -1.865532  z = -2.327750 angstrom
           Maximum rank =  0   Radius =  0.325 angstrom
                   Q00  =   0.101420

H          x =  3.293906  y = -0.604532  z = -0.295750 angstrom
           Maximum rank =  0   Radius =  0.325 angstrom
                   Q00  =   0.218036

H          x = -0.963463  y = -1.874292  z = -2.843136 angstrom
           Maximum rank =  0   Radius =  0.325 angstrom
                   Q00  =   0.098581

C          x = -2.127094  y = -0.722532  z =  2.438250 angstrom
           Maximum rank =  0   Radius =  0.650 angstrom
                   Q00  =  -0.084429

C          x = -3.007094  y = -1.667532  z =  1.611250 angstrom
           Maximum rank =  0   Radius =  0.650 angstrom
                   Q00  =  -0.241908

C          x = -0.938094  y = -1.410532  z =  3.147250 angstrom
           Maximum rank =  0   Radius =  0.650 angstrom
                   Q00  =  -0.251533

H          x = -1.750094  y =  0.064468  z =  1.787250 angstrom
           Maximum rank =  0   Radius =  0.325 angstrom
                   Q00  =   0.076173

H          x = -2.751094  y = -0.268532  z =  3.209250 angstrom
           Maximum rank =  0   Radius =  0.325 angstrom
                   Q00  =   0.035712

H          x = -2.456094  y = -1.993532  z =  0.731250 angstrom
           Maximum rank =  0   Radius =  0.325 angstrom
                   Q00  =   0.081075

H          x = -1.306094  y = -2.228532  z =  3.763250 angstrom
           Maximum rank =  0   Radius =  0.325 angstrom
                   Q00  =   0.069320

H          x = -3.939961  y = -1.163932  z =  1.317738 angstrom
           Maximum rank =  0   Radius =  0.325 angstrom
                   Q00  =   0.080546

H          x = -3.274865  y = -2.539972  z =  2.225380 angstrom
           Maximum rank =  0   Radius =  0.325 angstrom
                   Q00  =   0.069284

H          x = -0.226489  y = -1.825692  z =  2.418380 angstrom
           Maximum rank =  0   Radius =  0.325 angstrom
                   Q00  =   0.080637

H          x = -0.417261  y = -0.719692  z =  3.826570 angstrom
           Maximum rank =  0   Radius =  0.325 angstrom
                   Q00  =   0.082758

Total multipoles referred to origin at
           x =   0.000000,  y =    0.000000,  z =    0.000000 angstrom
                   Q00  =  -0.000000

Finished at 9:13:46 on 27 Apr 2020

  DMA results are available in the Python driver through the
	  variable('DMA DISTRIBUTED MULTIPOLES')
  and
	  variable('DMA TOTAL MULTIPOLES')
  commands.

    Psi4 stopped on: Monday, 27 April 2020 09:13AM
    Psi4 wall time for execution: 0:15:42.03

*** Psi4 exiting successfully. Buy a developer a beer!
