                               Psi4 1.3.2 release

  ==> Input File <==

--------------------------------------------------------------------------
import numpy as np
set {scf_type pk
basis cc-pvdz
d_convergence 10
gdma_switch   0
gdma_limit    0
gdma_origin   [ 0.0,  0.0,  0.0 ]
}
molecule test {
    units Angstrom
    0 1
    --
    0 1
    C                2.980185962108698     0.415798856772484     1.912050807390004
    C                2.120185962108697     0.528798856772484     0.681050807390004
    O                1.251185962108697    -0.351201143227516     0.435050807390004
    O                2.410185962108697     1.458798856772484    -0.094949192609996
    H                3.241185962108697     1.404798856772485     2.293050807390004
    H                3.900185962108698    -0.088201143227516     1.613050807390004
    H                2.469225962108697    -0.160201143227516     2.697640807390004
    C               -1.155814037891303    -0.324201143227516    -2.497949192609996
    C               -1.898814037891303    -0.420201143227516    -0.115949192609996
    N               -0.961814037891303    -0.373201143227516    -1.041949192609996
    N               -3.201814037891302    -0.389201143227516    -0.408949192609996
    N               -1.485814037891303    -0.515201143227516     1.124050807390004
    H               -0.002814037891303    -0.392201143227516    -0.697949192609996
    H               -3.511814037891302    -0.372201143227516    -1.371949192609996
    H               -3.882814037891303    -0.420201143227516     0.333050807390004
    H               -0.478814037891303    -0.571201143227516     1.255050807390004
    H               -2.146814037891303    -0.621201143227516     1.885050807390004
    H               -2.195814037891302    -0.156201143227516    -2.774949192609996
    H               -0.854814037891303    -1.288201143227516    -2.912949192609996
    H               -0.508523037891303     0.454408856772484    -2.927799192609996

}
e, wfn = energy('scf', return_wfn=True)
gdma(wfn)
dmavals = variable('DMA DISTRIBUTED MULTIPOLES')
charges = np.array(dmavals)
print(charges)
np.save('SSI-007ASP-131ARG-1-dimer.npy', np.array(charges))--------------------------------------------------------------------------

*** tstart() called on ds3
*** at Tue Apr 28 13:49:54 2020

   => Loading Basis Set <=

    Name: CC-PVDZ
    Role: ORBITAL
    Keyword: BASIS
    atoms 1-2, 8-9   entry C          line   138 file /theoryfs2/ds/metcalf/miniconda2/envs/tf2gpu/share/psi4/basis/cc-pvdz.gbs
    atoms 3-4        entry O          line   198 file /theoryfs2/ds/metcalf/miniconda2/envs/tf2gpu/share/psi4/basis/cc-pvdz.gbs
    atoms 5-7, 13-20 entry H          line    22 file /theoryfs2/ds/metcalf/miniconda2/envs/tf2gpu/share/psi4/basis/cc-pvdz.gbs
    atoms 10-12      entry N          line   168 file /theoryfs2/ds/metcalf/miniconda2/envs/tf2gpu/share/psi4/basis/cc-pvdz.gbs

         ---------------------------------------------------------
                                   SCF
               by Justin Turney, Rob Parrish, Andy Simmonett
                          and Daniel G. A. Smith
                              RHF Reference
                        1 Threads,    500 MiB Core
         ---------------------------------------------------------

  ==> Geometry <==

    Molecular point group: c1
    Full point group: C1

    Geometry (in Angstrom), charge = 0, multiplicity = 1:

       Center              X                  Y                   Z               Mass
    ------------   -----------------  -----------------  -----------------  -----------------
         C            2.980185962109     0.415798856772     1.912050807390    12.000000000000
         C            2.120185962109     0.528798856772     0.681050807390    12.000000000000
         O            1.251185962109    -0.351201143228     0.435050807390    15.994914619570
         O            2.410185962109     1.458798856772    -0.094949192610    15.994914619570
         H            3.241185962109     1.404798856772     2.293050807390     1.007825032230
         H            3.900185962109    -0.088201143228     1.613050807390     1.007825032230
         H            2.469225962109    -0.160201143228     2.697640807390     1.007825032230
         C           -1.155814037891    -0.324201143228    -2.497949192610    12.000000000000
         C           -1.898814037891    -0.420201143228    -0.115949192610    12.000000000000
         N           -0.961814037891    -0.373201143228    -1.041949192610    14.003074004430
         N           -3.201814037891    -0.389201143228    -0.408949192610    14.003074004430
         N           -1.485814037891    -0.515201143228     1.124050807390    14.003074004430
         H           -0.002814037891    -0.392201143228    -0.697949192610     1.007825032230
         H           -3.511814037891    -0.372201143228    -1.371949192610     1.007825032230
         H           -3.882814037891    -0.420201143228     0.333050807390     1.007825032230
         H           -0.478814037891    -0.571201143228     1.255050807390     1.007825032230
         H           -2.146814037891    -0.621201143228     1.885050807390     1.007825032230
         H           -2.195814037891    -0.156201143228    -2.774949192610     1.007825032230
         H           -0.854814037891    -1.288201143228    -2.912949192610     1.007825032230
         H           -0.508523037891     0.454408856772    -2.927799192610     1.007825032230

  Running in c1 symmetry.

  Rotational constants: A =      0.09485  B =      0.02372  C =      0.02007 [cm^-1]
  Rotational constants: A =   2843.67905  B =    711.15012  C =    601.76421 [MHz]
  Nuclear repulsion =  462.835283056291814

  Charge       = 0
  Multiplicity = 1
  Electrons    = 72
  Nalpha       = 36
  Nbeta        = 36

  ==> Algorithm <==

  SCF Algorithm Type is PK.
  DIIS enabled.
  MOM disabled.
  Fractional occupation disabled.
  Guess Type is SAD.
  Energy threshold   = 1.00e-06
  Density threshold  = 1.00e-10
  Integral threshold = 0.00e+00

  ==> Primary Basis <==

  Basis Set: CC-PVDZ
    Blend: CC-PVDZ
    Number of shells: 87
    Number of basis function: 181
    Number of Cartesian functions: 190
    Spherical Harmonics?: true
    Max angular momentum: 2

  ==> Pre-Iterations <==

   -------------------------------------------------------
    Irrep   Nso     Nmo     Nalpha   Nbeta   Ndocc  Nsocc
   -------------------------------------------------------
     A        181     181       0       0       0       0
   -------------------------------------------------------
    Total     181     181      36      36      36       0
   -------------------------------------------------------

  ==> Integral Setup <==

  Using integral reordering PK algorithm.
  Sizing the integral batches needed.
  Building batch lookup table.
   Calculation information:
      Number of atoms:                  20
      Number of AO shells:              87
      Number of primitives:            253
      Number of atomic orbitals:       190
      Number of basis functions:       181

      Integral cutoff                 1.00e-12
      Number of threads:                 1

	Batch   1 pq = [       0,    9405] index = [             0,44231715] size =     44231715
	Batch   2 pq = [    9405,   13301] index = [      44231715,88464951] size =     44233236
	Batch   3 pq = [   13301,   16471] index = [      88464951,135655156] size =     47190205
  Task number: 13
  Buffer size: 11059200
  Buffer per thread: 2
  We computed 5957120 shell quartets total.
  Whereas there are 7328706 unique shell quartets.

  ==> DiskJK: Disk-Based J/K Matrices <==

    J tasked:                  Yes
    K tasked:                  Yes
    wK tasked:                  No
    Memory [MiB]:              375
    Schwarz Cutoff:          1E-12

    OpenMP threads:              1

  Minimum eigenvalue in the overlap matrix is 3.7946808064E-03.
  Using Symmetric Orthogonalization.

  SCF Guess: Superposition of Atomic Densities via on-the-fly atomic UHF.

  ==> Iterations <==

                        Total Energy        Delta E     RMS |[F,P]|

   @RHF iter SAD:  -469.77529270794867   -4.69775e+02   0.00000e+00
   @RHF iter   1:  -470.71077317550947   -9.35480e-01   4.19791e-03 DIIS
   @RHF iter   2:  -470.93326963141322   -2.22496e-01   2.20494e-03 DIIS
   @RHF iter   3:  -470.99104418043703   -5.77745e-02   4.06275e-04 DIIS
   @RHF iter   4:  -470.99437462149808   -3.33044e-03   1.55958e-04 DIIS
   @RHF iter   5:  -470.99483157569540   -4.56954e-04   3.19393e-05 DIIS
   @RHF iter   6:  -470.99485812830426   -2.65526e-05   1.64315e-05 DIIS
   @RHF iter   7:  -470.99486401690046   -5.88860e-06   4.25520e-06 DIIS
   @RHF iter   8:  -470.99486486829204   -8.51392e-07   1.91112e-06 DIIS
   @RHF iter   9:  -470.99486501467061   -1.46379e-07   6.69912e-07 DIIS
   @RHF iter  10:  -470.99486503781281   -2.31422e-08   2.10484e-07 DIIS
   @RHF iter  11:  -470.99486503977738   -1.96457e-09   4.87345e-08 DIIS
   @RHF iter  12:  -470.99486503986975   -9.23706e-11   1.56676e-08 DIIS
   @RHF iter  13:  -470.99486503987845   -8.69704e-12   5.07126e-09 DIIS
   @RHF iter  14:  -470.99486503987731    1.13687e-12   1.31591e-09 DIIS
   @RHF iter  15:  -470.99486503987794   -6.25278e-13   5.75320e-10 DIIS
   @RHF iter  16:  -470.99486503987947   -1.53477e-12   2.05670e-10 DIIS
   @RHF iter  17:  -470.99486503987953   -5.68434e-14   8.53870e-11 DIIS
  Energy and wave function converged.

  ==> Post-Iterations <==

    Orbital Energies [Eh]
    ---------------------

    Doubly Occupied:

       1A    -20.440524     2A    -20.408874     3A    -15.650767
       4A    -15.618061     5A    -15.603957     6A    -11.429514
       7A    -11.301893     8A    -11.269369     9A    -11.171561
      10A     -1.386967    11A     -1.313490    12A     -1.246445
      13A     -1.229688    14A     -1.200438    15A     -0.992198
      16A     -0.926608    17A     -0.883028    18A     -0.818296
      19A     -0.786804    20A     -0.713607    21A     -0.704612
      22A     -0.667760    23A     -0.653512    24A     -0.626847
      25A     -0.598651    26A     -0.588245    27A     -0.558505
      28A     -0.546019    29A     -0.541792    30A     -0.482553
      31A     -0.473405    32A     -0.453622    33A     -0.414534
      34A     -0.354293    35A     -0.327209    36A     -0.323043

    Virtual:

      37A      0.119411    38A      0.153067    39A      0.183147
      40A      0.199084    41A      0.207791    42A      0.239186
      43A      0.251751    44A      0.265341    45A      0.275005
      46A      0.292165    47A      0.311423    48A      0.337828
      49A      0.350066    50A      0.391274    51A      0.429306
      52A      0.454953    53A      0.478581    54A      0.494722
      55A      0.558991    56A      0.572339    57A      0.589904
      58A      0.624867    59A      0.655332    60A      0.664492
      61A      0.686472    62A      0.696475    63A      0.699915
      64A      0.707233    65A      0.714673    66A      0.760110
      67A      0.794350    68A      0.811023    69A      0.816251
      70A      0.834361    71A      0.839018    72A      0.865514
      73A      0.887059    74A      0.893880    75A      0.909328
      76A      0.917365    77A      0.921802    78A      0.935041
      79A      0.952318    80A      0.965627    81A      0.981563
      82A      1.010100    83A      1.024161    84A      1.056535
      85A      1.080424    86A      1.088629    87A      1.136995
      88A      1.170072    89A      1.212776    90A      1.216655
      91A      1.222353    92A      1.270447    93A      1.281263
      94A      1.299310    95A      1.332575    96A      1.341510
      97A      1.356327    98A      1.404417    99A      1.434596
     100A      1.450894   101A      1.462442   102A      1.470845
     103A      1.520240   104A      1.548300   105A      1.562220
     106A      1.584056   107A      1.601917   108A      1.631591
     109A      1.662023   110A      1.678790   111A      1.703239
     112A      1.717688   113A      1.722352   114A      1.732536
     115A      1.778824   116A      1.813624   117A      1.846181
     118A      1.870628   119A      1.890304   120A      1.896801
     121A      1.913524   122A      1.929897   123A      1.935865
     124A      1.941163   125A      1.960608   126A      1.985263
     127A      2.004428   128A      2.023112   129A      2.048753
     130A      2.058922   131A      2.074960   132A      2.118382
     133A      2.151921   134A      2.184214   135A      2.206223
     136A      2.224583   137A      2.252122   138A      2.268578
     139A      2.302238   140A      2.319156   141A      2.347231
     142A      2.399817   143A      2.404447   144A      2.444672
     145A      2.455694   146A      2.484919   147A      2.505895
     148A      2.556919   149A      2.563050   150A      2.573614
     151A      2.594657   152A      2.623251   153A      2.698919
     154A      2.716248   155A      2.727096   156A      2.772575
     157A      2.781449   158A      2.804695   159A      2.859669
     160A      2.865454   161A      2.874126   162A      2.903528
     163A      2.914115   164A      2.981485   165A      2.996638
     166A      3.059259   167A      3.091037   168A      3.124207
     169A      3.162985   170A      3.193072   171A      3.234680
     172A      3.298856   173A      3.346526   174A      3.461059
     175A      3.619059   176A      3.689569   177A      3.773837
     178A      3.835092   179A      3.926163   180A      3.946994
     181A      4.059924

    Final Occupation by Irrep:
              A
    DOCC [    36 ]

  @RHF Final Energy:  -470.99486503987953

   => Energetics <=

    Nuclear Repulsion Energy =            462.8352830562918143
    One-Electron Energy =               -1562.2469152667067647
    Two-Electron Energy =                 628.4167671705355360
    Total Energy =                       -470.9948650398795280

Computation Completed

Properties will be evaluated at   0.000000,   0.000000,   0.000000 [a0]

Properties computed using the SCF density matrix

  Nuclear Dipole Moment: [e a0]
     X:    -3.6893      Y:    -2.0633      Z:    -0.5681

  Electronic Dipole Moment: [e a0]
     X:    -1.3112      Y:     0.5812      Z:     0.3490

  Dipole Moment: [e a0]
     X:    -5.0005      Y:    -1.4821      Z:    -0.2190     Total:     5.2201

  Dipole Moment: [D]
     X:   -12.7100      Y:    -3.7672      Z:    -0.5567     Total:    13.2682

*** tstop() called on ds3 at Tue Apr 28 13:51:17 2020
Module time:
	user time   =      45.76 seconds =       0.76 minutes
	system time =      21.05 seconds =       0.35 minutes
	total time  =         83 seconds =       1.38 minutes
Total time:
	user time   =      45.76 seconds =       0.76 minutes
	system time =      21.05 seconds =       0.35 minutes
	total time  =         83 seconds =       1.38 minutes
                                     G D M A

                                 by Anthony Stone

                           version 2.2.06, 22 June 2011

               Distributed Multipoles from Gaussian wavefunctions

Starting at 13:51:17 on 28 Apr 2020

Using SCF density matrix from file ./SSI/SSI-007ASP-131ARG-1-dimer.test.19018.fchk

                         Distributed Multipole Analysis

Standard DMA

Positions and radii in angstrom
Multipole moments in atomic units, ea_0^k for rank k

C          x =  2.980186  y =  0.415799  z =  1.912051 angstrom
           Maximum rank =  0   Radius =  0.650 angstrom
                   Q00  =  -0.262829

C          x =  2.120186  y =  0.528799  z =  0.681051 angstrom
           Maximum rank =  0   Radius =  0.650 angstrom
                   Q00  =   0.882384

O          x =  1.251186  y = -0.351201  z =  0.435051 angstrom
           Maximum rank =  0   Radius =  0.650 angstrom
                   Q00  =  -0.966180

O          x =  2.410186  y =  1.458799  z = -0.094949 angstrom
           Maximum rank =  0   Radius =  0.650 angstrom
                   Q00  =  -0.851718

H          x =  3.241186  y =  1.404799  z =  2.293051 angstrom
           Maximum rank =  0   Radius =  0.325 angstrom
                   Q00  =   0.093008

H          x =  3.900186  y = -0.088201  z =  1.613051 angstrom
           Maximum rank =  0   Radius =  0.325 angstrom
                   Q00  =   0.113118

H          x =  2.469226  y = -0.160201  z =  2.697641 angstrom
           Maximum rank =  0   Radius =  0.325 angstrom
                   Q00  =   0.056295

C          x = -1.155814  y = -0.324201  z = -2.497949 angstrom
           Maximum rank =  0   Radius =  0.650 angstrom
                   Q00  =  -0.096570

C          x = -1.898814  y = -0.420201  z = -0.115949 angstrom
           Maximum rank =  0   Radius =  0.650 angstrom
                   Q00  =   1.069801

N          x = -0.961814  y = -0.373201  z = -1.041949 angstrom
           Maximum rank =  0   Radius =  0.650 angstrom
                   Q00  =  -0.529190

N          x = -3.201814  y = -0.389201  z = -0.408949 angstrom
           Maximum rank =  0   Radius =  0.650 angstrom
                   Q00  =  -0.596567

N          x = -1.485814  y = -0.515201  z =  1.124051 angstrom
           Maximum rank =  0   Radius =  0.650 angstrom
                   Q00  =  -0.571578

H          x = -0.002814  y = -0.392201  z = -0.697949 angstrom
           Maximum rank =  0   Radius =  0.325 angstrom
                   Q00  =   0.326830

H          x = -3.511814  y = -0.372201  z = -1.371949 angstrom
           Maximum rank =  0   Radius =  0.325 angstrom
                   Q00  =   0.246704

H          x = -3.882814  y = -0.420201  z =  0.333051 angstrom
           Maximum rank =  0   Radius =  0.325 angstrom
                   Q00  =   0.236725

H          x = -0.478814  y = -0.571201  z =  1.255051 angstrom
           Maximum rank =  0   Radius =  0.325 angstrom
                   Q00  =   0.293118

H          x = -2.146814  y = -0.621201  z =  1.885051 angstrom
           Maximum rank =  0   Radius =  0.325 angstrom
                   Q00  =   0.225819

H          x = -2.195814  y = -0.156201  z = -2.774949 angstrom
           Maximum rank =  0   Radius =  0.325 angstrom
                   Q00  =   0.074984

H          x = -0.854814  y = -1.288201  z = -2.912949 angstrom
           Maximum rank =  0   Radius =  0.325 angstrom
                   Q00  =   0.111737

H          x = -0.508523  y =  0.454409  z = -2.927799 angstrom
           Maximum rank =  0   Radius =  0.325 angstrom
                   Q00  =   0.144106

Total multipoles referred to origin at
           x =   0.000000,  y =    0.000000,  z =    0.000000 angstrom
                   Q00  =  -0.000000

Finished at 13:51:17 on 28 Apr 2020

  DMA results are available in the Python driver through the
	  variable('DMA DISTRIBUTED MULTIPOLES')
  and
	  variable('DMA TOTAL MULTIPOLES')
  commands.

    Psi4 stopped on: Tuesday, 28 April 2020 01:51PM
    Psi4 wall time for execution: 0:01:22.53

*** Psi4 exiting successfully. Buy a developer a beer!
