                               Psi4 1.3.2 release

  ==> Input File <==

--------------------------------------------------------------------------
import numpy as np
set {scf_type pk
basis cc-pvdz
d_convergence 10
gdma_switch   0
gdma_limit    0
gdma_origin   [ 0.0,  0.0,  0.0 ]
}
molecule test {
    units Angstrom
    0 1
    --
    0 1
    C               -0.989903652415352     0.922458109690898    -0.606321081492261
    C               -1.163903652415352     2.166458109690898    -1.498321081492261
    C                0.371096347584648     0.735458109690898     0.020678918507739
    C                1.429096347584648    -0.071541890309102    -0.323321081492261
    C                1.970096347584648     0.993458109690898     1.519678918507739
    N                0.733096347584648     1.355458109690898     1.195678918507739
    N                2.432096347584648     0.154458109690898     0.600678918507739
    H               -1.730903652415352     0.940458109690898     0.192678918507739
    H               -1.190903652415352     0.055458109690898    -1.230321081492261
    H               -0.457903652415352     2.116458109690898    -2.324321081492262
    H                1.476096347584648    -0.722541890309102    -1.184321081492261
    H                2.512096347584648     1.340458109690898     2.389678918507739
    H                3.366096347584648    -0.245541890309102     0.579678918507739
    H               -1.001223652415352     3.071418109690898    -0.894511081492261
    H               -2.189053652415352     2.213808109690898    -1.894321081492261
    C               -2.614903652415352    -3.095541890309102    -0.119321081492261
    O               -1.477903652415352    -2.306541890309102    -0.503321081492261
    H               -0.715903652415352    -2.892541890309102    -0.539321081492261
    H               -2.377903652415352    -3.656541890309102     0.785678918507739
    H               -3.483733652415352    -2.448011890309102     0.069958918507739
    H               -2.841613652415352    -3.800871890309102    -0.932411081492261

}
e, wfn = energy('scf', return_wfn=True)
gdma(wfn)
dmavals = variable('DMA DISTRIBUTED MULTIPOLES')
charges = np.array(dmavals)
print(charges)
np.save('SSI-091HIE-118THR-1-dimer.npy', np.array(charges))--------------------------------------------------------------------------

*** tstart() called on ds3
*** at Sun Apr 26 18:44:55 2020

   => Loading Basis Set <=

    Name: CC-PVDZ
    Role: ORBITAL
    Keyword: BASIS
    atoms 1-5, 16     entry C          line   138 file /theoryfs2/ds/metcalf/miniconda2/envs/tf2gpu/share/psi4/basis/cc-pvdz.gbs
    atoms 6-7         entry N          line   168 file /theoryfs2/ds/metcalf/miniconda2/envs/tf2gpu/share/psi4/basis/cc-pvdz.gbs
    atoms 8-15, 18-21 entry H          line    22 file /theoryfs2/ds/metcalf/miniconda2/envs/tf2gpu/share/psi4/basis/cc-pvdz.gbs
    atoms 17          entry O          line   198 file /theoryfs2/ds/metcalf/miniconda2/envs/tf2gpu/share/psi4/basis/cc-pvdz.gbs

         ---------------------------------------------------------
                                   SCF
               by Justin Turney, Rob Parrish, Andy Simmonett
                          and Daniel G. A. Smith
                              RHF Reference
                        1 Threads,    500 MiB Core
         ---------------------------------------------------------

  ==> Geometry <==

    Molecular point group: c1
    Full point group: C1

    Geometry (in Angstrom), charge = 0, multiplicity = 1:

       Center              X                  Y                   Z               Mass
    ------------   -----------------  -----------------  -----------------  -----------------
         C           -0.989903652415     0.922458109691    -0.606321081492    12.000000000000
         C           -1.163903652415     2.166458109691    -1.498321081492    12.000000000000
         C            0.371096347585     0.735458109691     0.020678918508    12.000000000000
         C            1.429096347585    -0.071541890309    -0.323321081492    12.000000000000
         C            1.970096347585     0.993458109691     1.519678918508    12.000000000000
         N            0.733096347585     1.355458109691     1.195678918508    14.003074004430
         N            2.432096347585     0.154458109691     0.600678918508    14.003074004430
         H           -1.730903652415     0.940458109691     0.192678918508     1.007825032230
         H           -1.190903652415     0.055458109691    -1.230321081492     1.007825032230
         H           -0.457903652415     2.116458109691    -2.324321081492     1.007825032230
         H            1.476096347585    -0.722541890309    -1.184321081492     1.007825032230
         H            2.512096347585     1.340458109691     2.389678918508     1.007825032230
         H            3.366096347585    -0.245541890309     0.579678918508     1.007825032230
         H           -1.001223652415     3.071418109691    -0.894511081492     1.007825032230
         H           -2.189053652415     2.213808109691    -1.894321081492     1.007825032230
         C           -2.614903652415    -3.095541890309    -0.119321081492    12.000000000000
         O           -1.477903652415    -2.306541890309    -0.503321081492    15.994914619570
         H           -0.715903652415    -2.892541890309    -0.539321081492     1.007825032230
         H           -2.377903652415    -3.656541890309     0.785678918508     1.007825032230
         H           -3.483733652415    -2.448011890309     0.069958918508     1.007825032230
         H           -2.841613652415    -3.800871890309    -0.932411081492     1.007825032230

  Running in c1 symmetry.

  Rotational constants: A =      0.05933  B =      0.02729  C =      0.02105 [cm^-1]
  Rotational constants: A =   1778.70813  B =    818.02605  C =    631.12938 [MHz]
  Nuclear repulsion =  433.802055438792138

  Charge       = 0
  Multiplicity = 1
  Electrons    = 70
  Nalpha       = 35
  Nbeta        = 35

  ==> Algorithm <==

  SCF Algorithm Type is PK.
  DIIS enabled.
  MOM disabled.
  Fractional occupation disabled.
  Guess Type is SAD.
  Energy threshold   = 1.00e-06
  Density threshold  = 1.00e-10
  Integral threshold = 0.00e+00

  ==> Primary Basis <==

  Basis Set: CC-PVDZ
    Blend: CC-PVDZ
    Number of shells: 90
    Number of basis function: 186
    Number of Cartesian functions: 195
    Spherical Harmonics?: true
    Max angular momentum: 2

  ==> Pre-Iterations <==

   -------------------------------------------------------
    Irrep   Nso     Nmo     Nalpha   Nbeta   Ndocc  Nsocc
   -------------------------------------------------------
     A        186     186       0       0       0       0
   -------------------------------------------------------
    Total     186     186      35      35      35       0
   -------------------------------------------------------

  ==> Integral Setup <==

  Using integral reordering PK algorithm.
  Sizing the integral batches needed.
  Building batch lookup table.
   Calculation information:
      Number of atoms:                  21
      Number of AO shells:              90
      Number of primitives:            258
      Number of atomic orbitals:       195
      Number of basis functions:       186

      Integral cutoff                 1.00e-12
      Number of threads:                 1

	Batch   1 pq = [       0,    9405] index = [             0,44231715] size =     44231715
	Batch   2 pq = [    9405,   13301] index = [      44231715,88464951] size =     44233236
	Batch   3 pq = [   13301,   16290] index = [      88464951,132690195] size =     44225244
	Batch   4 pq = [   16290,   17391] index = [     132690195,151232136] size =     18541941
  Task number: 14
  Buffer size: 11059200
  Buffer per thread: 2
  We computed 7008322 shell quartets total.
  Whereas there are 8386560 unique shell quartets.

  ==> DiskJK: Disk-Based J/K Matrices <==

    J tasked:                  Yes
    K tasked:                  Yes
    wK tasked:                  No
    Memory [MiB]:              375
    Schwarz Cutoff:          1E-12

    OpenMP threads:              1

  Minimum eigenvalue in the overlap matrix is 1.2000934507E-03.
  Using Symmetric Orthogonalization.

  SCF Guess: Superposition of Atomic Densities via on-the-fly atomic UHF.

  ==> Iterations <==

                        Total Energy        Delta E     RMS |[F,P]|

   @RHF iter SAD:  -416.82192774324591   -4.16822e+02   0.00000e+00
   @RHF iter   1:  -417.72200887068220   -9.00081e-01   3.33013e-03 DIIS
   @RHF iter   2:  -417.90088719036379   -1.78878e-01   1.81280e-03 DIIS
   @RHF iter   3:  -417.95011729361909   -4.92301e-02   4.18934e-04 DIIS
   @RHF iter   4:  -417.95385064527966   -3.73335e-03   1.68273e-04 DIIS
   @RHF iter   5:  -417.95439528400436   -5.44639e-04   3.12439e-05 DIIS
   @RHF iter   6:  -417.95442170187164   -2.64179e-05   1.20950e-05 DIIS
   @RHF iter   7:  -417.95442581786085   -4.11599e-06   3.85857e-06 DIIS
   @RHF iter   8:  -417.95442651806906   -7.00208e-07   1.47540e-06 DIIS
   @RHF iter   9:  -417.95442665377391   -1.35705e-07   5.37622e-07 DIIS
   @RHF iter  10:  -417.95442666967199   -1.58981e-08   1.99908e-07 DIIS
   @RHF iter  11:  -417.95442667246584   -2.79385e-09   7.00513e-08 DIIS
   @RHF iter  12:  -417.95442667275825   -2.92403e-10   2.89010e-08 DIIS
   @RHF iter  13:  -417.95442667280452   -4.62705e-11   1.00482e-08 DIIS
   @RHF iter  14:  -417.95442667280969   -5.17275e-12   3.16736e-09 DIIS
   @RHF iter  15:  -417.95442667281145   -1.76215e-12   1.39333e-09 DIIS
   @RHF iter  16:  -417.95442667281276   -1.30740e-12   4.61577e-10 DIIS
   @RHF iter  17:  -417.95442667280918    3.58114e-12   2.11901e-10 DIIS
   @RHF iter  18:  -417.95442667280957   -3.97904e-13   5.79991e-11 DIIS
  Energy and wave function converged.

  ==> Post-Iterations <==

    Orbital Energies [Eh]
    ---------------------

    Doubly Occupied:

       1A    -20.550437     2A    -15.615688     3A    -15.519323
       4A    -11.284555     5A    -11.278892     6A    -11.243849
       7A    -11.232318     8A    -11.206576     9A    -11.204370
      10A     -1.345307    11A     -1.331959    12A     -1.145932
      13A     -1.032436    14A     -0.972167    15A     -0.920455
      16A     -0.846636    17A     -0.809048    18A     -0.751104
      19A     -0.723592    20A     -0.678138    21A     -0.614218
      22A     -0.610809    23A     -0.594375    24A     -0.587880
      25A     -0.585419    26A     -0.572437    27A     -0.551525
      28A     -0.502720    29A     -0.494404    30A     -0.477717
      31A     -0.459159    32A     -0.443252    33A     -0.399481
      34A     -0.369358    35A     -0.297732

    Virtual:

      36A      0.169584    37A      0.180425    38A      0.194259
      39A      0.206480    40A      0.211535    41A      0.231493
      42A      0.249668    43A      0.252960    44A      0.263106
      45A      0.268357    46A      0.283498    47A      0.289608
      48A      0.298840    49A      0.317073    50A      0.364855
      51A      0.383683    52A      0.399539    53A      0.423994
      54A      0.443634    55A      0.484365    56A      0.501840
      57A      0.612320    58A      0.616096    59A      0.629812
      60A      0.635003    61A      0.638722    62A      0.648172
      63A      0.681058    64A      0.698879    65A      0.705938
      66A      0.717007    67A      0.740301    68A      0.771520
      69A      0.774231    70A      0.816354    71A      0.831340
      72A      0.835474    73A      0.854953    74A      0.863829
      75A      0.890453    76A      0.896193    77A      0.902874
      78A      0.914700    79A      0.920433    80A      0.925024
      81A      0.936698    82A      0.944645    83A      0.967785
      84A      0.973868    85A      0.983700    86A      0.992376
      87A      1.056460    88A      1.064034    89A      1.104540
      90A      1.107735    91A      1.131253    92A      1.140479
      93A      1.146490    94A      1.148682    95A      1.181127
      96A      1.188951    97A      1.238317    98A      1.264718
      99A      1.307612   100A      1.320134   101A      1.329952
     102A      1.342852   103A      1.352037   104A      1.397835
     105A      1.424146   106A      1.436545   107A      1.463813
     108A      1.501515   109A      1.513858   110A      1.565686
     111A      1.588296   112A      1.611704   113A      1.629402
     114A      1.662886   115A      1.670126   116A      1.687242
     117A      1.702986   118A      1.746205   119A      1.759134
     120A      1.779893   121A      1.837076   122A      1.844616
     123A      1.853942   124A      1.876764   125A      1.884186
     126A      1.899847   127A      1.910319   128A      1.925464
     129A      1.950739   130A      1.955461   131A      1.959697
     132A      1.973965   133A      1.988850   134A      1.996576
     135A      2.015358   136A      2.027302   137A      2.033143
     138A      2.053415   139A      2.082689   140A      2.087686
     141A      2.116942   142A      2.164141   143A      2.165813
     144A      2.192883   145A      2.213115   146A      2.263362
     147A      2.290544   148A      2.300577   149A      2.310020
     150A      2.350285   151A      2.361638   152A      2.372953
     153A      2.391204   154A      2.445344   155A      2.458332
     156A      2.508867   157A      2.513048   158A      2.521913
     159A      2.572564   160A      2.612952   161A      2.616624
     162A      2.684193   163A      2.743984   164A      2.746735
     165A      2.753132   166A      2.758962   167A      2.761761
     168A      2.782792   169A      2.802260   170A      2.843348
     171A      2.868821   172A      2.905860   173A      2.930678
     174A      2.940855   175A      2.943823   176A      3.018002
     177A      3.088138   178A      3.173481   179A      3.265267
     180A      3.298413   181A      3.372247   182A      3.453237
     183A      3.470609   184A      3.578563   185A      3.791716
     186A      4.096352

    Final Occupation by Irrep:
              A
    DOCC [    35 ]

  @RHF Final Energy:  -417.95442667280957

   => Energetics <=

    Nuclear Repulsion Energy =            433.8020554387921379
    One-Electron Energy =               -1429.0064292984848180
    Two-Electron Energy =                 577.2499471868831051
    Total Energy =                       -417.9544266728095181

Computation Completed

Properties will be evaluated at   0.000000,   0.000000,   0.000000 [a0]

Properties computed using the SCF density matrix

  Nuclear Dipole Moment: [e a0]
     X:    -8.1112      Y:    -3.7916      Z:    -4.6780

  Electronic Dipole Moment: [e a0]
     X:     9.0688      Y:     2.2205      Z:     4.5075

  Dipole Moment: [e a0]
     X:     0.9576      Y:    -1.5711      Z:    -0.1704     Total:     1.8478

  Dipole Moment: [D]
     X:     2.4339      Y:    -3.9933      Z:    -0.4332     Total:     4.6966

*** tstop() called on ds3 at Sun Apr 26 18:46:08 2020
Module time:
	user time   =      52.43 seconds =       0.87 minutes
	system time =      23.38 seconds =       0.39 minutes
	total time  =         73 seconds =       1.22 minutes
Total time:
	user time   =      52.43 seconds =       0.87 minutes
	system time =      23.38 seconds =       0.39 minutes
	total time  =         73 seconds =       1.22 minutes
                                     G D M A

                                 by Anthony Stone

                           version 2.2.06, 22 June 2011

               Distributed Multipoles from Gaussian wavefunctions

Starting at 18:46:9 on 26 Apr 2020

Using SCF density matrix from file ./SSI/SSI-091HIE-118THR-1-dimer.test.13733.fchk

                         Distributed Multipole Analysis

Standard DMA

Positions and radii in angstrom
Multipole moments in atomic units, ea_0^k for rank k

C          x = -0.989904  y =  0.922458  z = -0.606321 angstrom
           Maximum rank =  0   Radius =  0.650 angstrom
                   Q00  =  -0.027891

C          x = -1.163904  y =  2.166458  z = -1.498321 angstrom
           Maximum rank =  0   Radius =  0.650 angstrom
                   Q00  =  -0.239284

C          x =  0.371096  y =  0.735458  z =  0.020679 angstrom
           Maximum rank =  0   Radius =  0.650 angstrom
                   Q00  =   0.227265

C          x =  1.429096  y = -0.071542  z = -0.323321 angstrom
           Maximum rank =  0   Radius =  0.650 angstrom
                   Q00  =  -0.020138

C          x =  1.970096  y =  0.993458  z =  1.519679 angstrom
           Maximum rank =  0   Radius =  0.650 angstrom
                   Q00  =   0.457052

N          x =  0.733096  y =  1.355458  z =  1.195679 angstrom
           Maximum rank =  0   Radius =  0.650 angstrom
                   Q00  =  -0.776265

N          x =  2.432096  y =  0.154458  z =  0.600679 angstrom
           Maximum rank =  0   Radius =  0.650 angstrom
                   Q00  =  -0.469223

H          x = -1.730904  y =  0.940458  z =  0.192679 angstrom
           Maximum rank =  0   Radius =  0.325 angstrom
                   Q00  =   0.085003

H          x = -1.190904  y =  0.055458  z = -1.230321 angstrom
           Maximum rank =  0   Radius =  0.325 angstrom
                   Q00  =   0.075310

H          x = -0.457904  y =  2.116458  z = -2.324321 angstrom
           Maximum rank =  0   Radius =  0.325 angstrom
                   Q00  =   0.076172

H          x =  1.476096  y = -0.722542  z = -1.184321 angstrom
           Maximum rank =  0   Radius =  0.325 angstrom
                   Q00  =   0.097897

H          x =  2.512096  y =  1.340458  z =  2.389679 angstrom
           Maximum rank =  0   Radius =  0.325 angstrom
                   Q00  =   0.119930

H          x =  3.366096  y = -0.245542  z =  0.579679 angstrom
           Maximum rank =  0   Radius =  0.325 angstrom
                   Q00  =   0.218999

H          x = -1.001224  y =  3.071418  z = -0.894511 angstrom
           Maximum rank =  0   Radius =  0.325 angstrom
                   Q00  =   0.086584

H          x = -2.189054  y =  2.213808  z = -1.894321 angstrom
           Maximum rank =  0   Radius =  0.325 angstrom
                   Q00  =   0.078405

C          x = -2.614904  y = -3.095542  z = -0.119321 angstrom
           Maximum rank =  0   Radius =  0.650 angstrom
                   Q00  =  -0.044384

O          x = -1.477904  y = -2.306542  z = -0.503321 angstrom
           Maximum rank =  0   Radius =  0.650 angstrom
                   Q00  =  -0.586430

H          x = -0.715904  y = -2.892542  z = -0.539321 angstrom
           Maximum rank =  0   Radius =  0.325 angstrom
                   Q00  =   0.378811

H          x = -2.377904  y = -3.656542  z =  0.785679 angstrom
           Maximum rank =  0   Radius =  0.325 angstrom
                   Q00  =   0.073018

H          x = -3.483734  y = -2.448012  z =  0.069959 angstrom
           Maximum rank =  0   Radius =  0.325 angstrom
                   Q00  =   0.119848

H          x = -2.841614  y = -3.800872  z = -0.932411 angstrom
           Maximum rank =  0   Radius =  0.325 angstrom
                   Q00  =   0.069319

Total multipoles referred to origin at
           x =   0.000000,  y =    0.000000,  z =    0.000000 angstrom
                   Q00  =  -0.000000

Finished at 18:46:9 on 26 Apr 2020

  DMA results are available in the Python driver through the
	  variable('DMA DISTRIBUTED MULTIPOLES')
  and
	  variable('DMA TOTAL MULTIPOLES')
  commands.

    Psi4 stopped on: Sunday, 26 April 2020 06:46PM
    Psi4 wall time for execution: 0:01:13.57

*** Psi4 exiting successfully. Buy a developer a beer!
