                               Psi4 1.3.2 release

  ==> Input File <==

--------------------------------------------------------------------------
import numpy as np
set {scf_type pk
basis cc-pvdz
d_convergence 10
gdma_switch   0
gdma_limit    0
gdma_origin   [ 0.0,  0.0,  0.0 ]
}
molecule test {
    units Angstrom
    0 1
    --
    0 1
    C                2.891508704328070    -0.143334574102151    -2.001187643418726
    C                3.590508704328070     0.800665425897849    -3.006187643418726
    H                2.494508704328070    -1.023334574102151    -2.506187643418726
    H                3.619508704328070    -0.489334574102151    -1.272187643418726
    H                2.086508704328070     0.382665425897849    -1.488187643418726
    H                4.413508704328070     0.239665425897849    -3.441187643418727
    H                2.909883504328070     1.107375425897849    -3.814067643418727
    H                4.005241704328069     1.682335425897849    -2.495637643418727
    C               -0.811491295671930     2.553665425897849    -0.583187643418726
    C               -0.676491295671930     0.017665425897849    -0.695187643418726
    C               -0.871491295671930     1.182665425897849     0.057812356581274
    C               -0.721491295671930    -1.231334574102151    -0.078187643418726
    C               -1.126491295671930     1.062665425897849     1.427812356581274
    C               -0.936491295671930    -1.324334574102151     1.290812356581274
    C               -1.134491295671930    -0.177334574102151     2.045812356581274
    O               -0.952491295671930    -2.550334574102151     1.886812356581274
    H               -0.473491295671930     0.063665425897849    -1.754187643418726
    H               -0.604491295671930    -2.126334574102151    -0.656187643418726
    H                0.208508704328070     2.918665425897849    -0.463187643418726
    H               -1.451491295671931     3.229665425897849    -0.027187643418726
    H               -1.303491295671930     1.948665425897849     2.021812356581274
    H               -1.308491295671931    -0.251334574102151     3.110812356581274
    H               -0.837491295671930    -2.472334574102151     2.847812356581273
    H               -1.065965295671931     2.629145425897849    -1.650687643418726

}
e, wfn = energy('scf', return_wfn=True)
gdma(wfn)
dmavals = variable('DMA DISTRIBUTED MULTIPOLES')
charges = np.array(dmavals)
print(charges)
np.save('SSI-036VAL-086TYR-1-dimer.npy', np.array(charges))--------------------------------------------------------------------------

*** tstart() called on ds3
*** at Mon Apr 27 19:57:13 2020

   => Loading Basis Set <=

    Name: CC-PVDZ
    Role: ORBITAL
    Keyword: BASIS
    atoms 1-2, 9-15  entry C          line   138 file /theoryfs2/ds/metcalf/miniconda2/envs/tf2gpu/share/psi4/basis/cc-pvdz.gbs
    atoms 3-8, 17-24 entry H          line    22 file /theoryfs2/ds/metcalf/miniconda2/envs/tf2gpu/share/psi4/basis/cc-pvdz.gbs
    atoms 16         entry O          line   198 file /theoryfs2/ds/metcalf/miniconda2/envs/tf2gpu/share/psi4/basis/cc-pvdz.gbs

         ---------------------------------------------------------
                                   SCF
               by Justin Turney, Rob Parrish, Andy Simmonett
                          and Daniel G. A. Smith
                              RHF Reference
                        1 Threads,    500 MiB Core
         ---------------------------------------------------------

  ==> Geometry <==

    Molecular point group: c1
    Full point group: C1

    Geometry (in Angstrom), charge = 0, multiplicity = 1:

       Center              X                  Y                   Z               Mass
    ------------   -----------------  -----------------  -----------------  -----------------
         C            2.891508704328    -0.143334574102    -2.001187643419    12.000000000000
         C            3.590508704328     0.800665425898    -3.006187643419    12.000000000000
         H            2.494508704328    -1.023334574102    -2.506187643419     1.007825032230
         H            3.619508704328    -0.489334574102    -1.272187643419     1.007825032230
         H            2.086508704328     0.382665425898    -1.488187643419     1.007825032230
         H            4.413508704328     0.239665425898    -3.441187643419     1.007825032230
         H            2.909883504328     1.107375425898    -3.814067643419     1.007825032230
         H            4.005241704328     1.682335425898    -2.495637643419     1.007825032230
         C           -0.811491295672     2.553665425898    -0.583187643419    12.000000000000
         C           -0.676491295672     0.017665425898    -0.695187643419    12.000000000000
         C           -0.871491295672     1.182665425898     0.057812356581    12.000000000000
         C           -0.721491295672    -1.231334574102    -0.078187643419    12.000000000000
         C           -1.126491295672     1.062665425898     1.427812356581    12.000000000000
         C           -0.936491295672    -1.324334574102     1.290812356581    12.000000000000
         C           -1.134491295672    -0.177334574102     2.045812356581    12.000000000000
         O           -0.952491295672    -2.550334574102     1.886812356581    15.994914619570
         H           -0.473491295672     0.063665425898    -1.754187643419     1.007825032230
         H           -0.604491295672    -2.126334574102    -0.656187643419     1.007825032230
         H            0.208508704328     2.918665425898    -0.463187643419     1.007825032230
         H           -1.451491295672     3.229665425898    -0.027187643419     1.007825032230
         H           -1.303491295672     1.948665425898     2.021812356581     1.007825032230
         H           -1.308491295672    -0.251334574102     3.110812356581     1.007825032230
         H           -0.837491295672    -2.472334574102     2.847812356581     1.007825032230
         H           -1.065965295672     2.629145425898    -1.650687643419     1.007825032230

  Running in c1 symmetry.

  Rotational constants: A =      0.05000  B =      0.02050  C =      0.01584 [cm^-1]
  Rotational constants: A =   1498.92765  B =    614.70836  C =    474.73840 [MHz]
  Nuclear repulsion =  487.533078047274557

  Charge       = 0
  Multiplicity = 1
  Electrons    = 76
  Nalpha       = 38
  Nbeta        = 38

  ==> Algorithm <==

  SCF Algorithm Type is PK.
  DIIS enabled.
  MOM disabled.
  Fractional occupation disabled.
  Guess Type is SAD.
  Energy threshold   = 1.00e-06
  Density threshold  = 1.00e-10
  Integral threshold = 0.00e+00

  ==> Primary Basis <==

  Basis Set: CC-PVDZ
    Blend: CC-PVDZ
    Number of shells: 102
    Number of basis function: 210
    Number of Cartesian functions: 220
    Spherical Harmonics?: true
    Max angular momentum: 2

  ==> Pre-Iterations <==

   -------------------------------------------------------
    Irrep   Nso     Nmo     Nalpha   Nbeta   Ndocc  Nsocc
   -------------------------------------------------------
     A        210     210       0       0       0       0
   -------------------------------------------------------
    Total     210     210      38      38      38       0
   -------------------------------------------------------

  ==> Integral Setup <==

  Using integral reordering PK algorithm.
  Sizing the integral batches needed.
  Building batch lookup table.
   Calculation information:
      Number of atoms:                  24
      Number of AO shells:             102
      Number of primitives:            290
      Number of atomic orbitals:       220
      Number of basis functions:       210

      Integral cutoff                 1.00e-12
      Number of threads:                 1

	Batch   1 pq = [       0,    9405] index = [             0,44231715] size =     44231715
	Batch   2 pq = [    9405,   13301] index = [      44231715,88464951] size =     44233236
	Batch   3 pq = [   13301,   16290] index = [      88464951,132690195] size =     44225244
	Batch   4 pq = [   16290,   18810] index = [     132690195,176917455] size =     44227260
	Batch   5 pq = [   18810,   21030] index = [     176917455,221140965] size =     44223510
	Batch   6 pq = [   21030,   22155] index = [     221140965,245433090] size =     24292125
  Task number: 23
  Buffer size: 11059200
  Buffer per thread: 2
  We computed 11170546 shell quartets total.
  Whereas there are 13799631 unique shell quartets.

  ==> DiskJK: Disk-Based J/K Matrices <==

    J tasked:                  Yes
    K tasked:                  Yes
    wK tasked:                  No
    Memory [MiB]:              375
    Schwarz Cutoff:          1E-12

    OpenMP threads:              1

  Minimum eigenvalue in the overlap matrix is 3.2365856671E-04.
  Using Symmetric Orthogonalization.

  SCF Guess: Superposition of Atomic Densities via on-the-fly atomic UHF.

  ==> Iterations <==

                        Total Energy        Delta E     RMS |[F,P]|

   @RHF iter SAD:  -422.64029030276038   -4.22640e+02   0.00000e+00
   @RHF iter   1:  -423.60206927989145   -9.61779e-01   2.96630e-03 DIIS
   @RHF iter   2:  -423.81779311438572   -2.15724e-01   1.24047e-03 DIIS
   @RHF iter   3:  -423.85168894197784   -3.38958e-02   2.77987e-04 DIIS
   @RHF iter   4:  -423.85449255671415   -2.80361e-03   1.11711e-04 DIIS
   @RHF iter   5:  -423.85481059792437   -3.18041e-04   2.08223e-05 DIIS
   @RHF iter   6:  -423.85482778472510   -1.71868e-05   6.32821e-06 DIIS
   @RHF iter   7:  -423.85482934502215   -1.56030e-06   2.03895e-06 DIIS
   @RHF iter   8:  -423.85482954784550   -2.02823e-07   7.30398e-07 DIIS
   @RHF iter   9:  -423.85482957699287   -2.91474e-08   2.70576e-07 DIIS
   @RHF iter  10:  -423.85482958162771   -4.63484e-09   1.06692e-07 DIIS
   @RHF iter  11:  -423.85482958291084   -1.28313e-09   4.98889e-08 DIIS
   @RHF iter  12:  -423.85482958320580   -2.94961e-10   2.57932e-08 DIIS
   @RHF iter  13:  -423.85482958327361   -6.78142e-11   8.04590e-09 DIIS
   @RHF iter  14:  -423.85482958327816   -4.54747e-12   2.12844e-09 DIIS
   @RHF iter  15:  -423.85482958328089   -2.72848e-12   6.66666e-10 DIIS
   @RHF iter  16:  -423.85482958327981    1.08002e-12   2.02600e-10 DIIS
   @RHF iter  17:  -423.85482958328112   -1.30740e-12   7.97359e-11 DIIS
  Energy and wave function converged.

  ==> Post-Iterations <==

    Orbital Energies [Eh]
    ---------------------

    Doubly Occupied:

       1A    -20.581649     2A    -11.296136     3A    -11.238601
       4A    -11.237875     5A    -11.236290     6A    -11.232236
       7A    -11.228270     8A    -11.227958     9A    -11.218427
      10A    -11.213830    11A     -1.396670    12A     -1.150061
      13A     -1.035588    14A     -1.018856    15A     -1.011630
      16A     -0.926307    17A     -0.842985    18A     -0.835756
      19A     -0.802047    20A     -0.729616    21A     -0.668169
      22A     -0.641762    23A     -0.607385    24A     -0.595308
      25A     -0.592610    26A     -0.587202    27A     -0.584999
      28A     -0.570954    29A     -0.564378    30A     -0.524932
      31A     -0.499026    32A     -0.495363    33A     -0.485582
      34A     -0.484536    35A     -0.482761    36A     -0.465373
      37A     -0.338653    38A     -0.300765

    Virtual:

      39A      0.130077    40A      0.155269    41A      0.170308
      42A      0.180992    43A      0.200734    44A      0.206840
      45A      0.223309    46A      0.240159    47A      0.250035
      48A      0.260353    49A      0.267409    50A      0.269539
      51A      0.285490    52A      0.290724    53A      0.297508
      54A      0.325075    55A      0.371709    56A      0.372993
      57A      0.395188    58A      0.428455    59A      0.458191
      60A      0.484057    61A      0.495751    62A      0.506342
      63A      0.596715    64A      0.598244    65A      0.604401
      66A      0.622372    67A      0.632185    68A      0.650329
      69A      0.665951    70A      0.675911    71A      0.686752
      72A      0.697556    73A      0.704150    74A      0.710162
      75A      0.733285    76A      0.737895    77A      0.756541
      78A      0.768825    79A      0.784763    80A      0.786939
      81A      0.807446    82A      0.827165    83A      0.842557
      84A      0.867342    85A      0.873634    86A      0.877739
      87A      0.890365    88A      0.890914    89A      0.894144
      90A      0.897756    91A      0.899220    92A      0.905912
      93A      0.913766    94A      0.926219    95A      0.935632
      96A      0.947146    97A      0.955248    98A      0.959183
      99A      1.002287   100A      1.019520   101A      1.026562
     102A      1.072388   103A      1.114734   104A      1.128337
     105A      1.141278   106A      1.143693   107A      1.145864
     108A      1.166790   109A      1.208045   110A      1.240033
     111A      1.250232   112A      1.257702   113A      1.272303
     114A      1.278776   115A      1.301988   116A      1.306487
     117A      1.311524   118A      1.350913   119A      1.362591
     120A      1.389478   121A      1.466456   122A      1.473088
     123A      1.483494   124A      1.498883   125A      1.518155
     126A      1.566099   127A      1.585422   128A      1.603923
     129A      1.625493   130A      1.680096   131A      1.683842
     132A      1.699494   133A      1.714721   134A      1.737553
     135A      1.747545   136A      1.778901   137A      1.797805
     138A      1.812538   139A      1.862341   140A      1.870739
     141A      1.874775   142A      1.883233   143A      1.884020
     144A      1.896369   145A      1.910909   146A      1.922865
     147A      1.933529   148A      1.938602   149A      1.941780
     150A      1.944837   151A      1.948009   152A      1.961260
     153A      1.968296   154A      1.970843   155A      1.983364
     156A      1.990082   157A      2.036971   158A      2.050478
     159A      2.063055   160A      2.076718   161A      2.085396
     162A      2.094574   163A      2.128430   164A      2.142894
     165A      2.150172   166A      2.158071   167A      2.205339
     168A      2.227458   169A      2.266756   170A      2.286226
     171A      2.296824   172A      2.307277   173A      2.315294
     174A      2.334669   175A      2.368181   176A      2.410863
     177A      2.437359   178A      2.456150   179A      2.464141
     180A      2.469794   181A      2.481556   182A      2.527754
     183A      2.550381   184A      2.554409   185A      2.582378
     186A      2.612782   187A      2.639196   188A      2.742064
     189A      2.754493   190A      2.765534   191A      2.780525
     192A      2.796233   193A      2.818779   194A      2.846651
     195A      2.853823   196A      2.858198   197A      2.907753
     198A      2.948813   199A      2.968749   200A      2.975227
     201A      3.005798   202A      3.092685   203A      3.145781
     204A      3.265325   205A      3.285604   206A      3.351225
     207A      3.574919   208A      3.676205   209A      3.968966
     210A      4.170425

    Final Occupation by Irrep:
              A
    DOCC [    38 ]

  @RHF Final Energy:  -423.85482958328112

   => Energetics <=

    Nuclear Repulsion Energy =            487.5330780472745573
    One-Electron Energy =               -1540.8747230429853516
    Two-Electron Energy =                 629.4868154124296780
    Total Energy =                       -423.8548295832811164

Computation Completed

Properties will be evaluated at   0.000000,   0.000000,   0.000000 [a0]

Properties computed using the SCF density matrix

  Nuclear Dipole Moment: [e a0]
     X:    11.8945      Y:     7.3367      Z:   -10.8548

  Electronic Dipole Moment: [e a0]
     X:   -11.8026      Y:    -6.9327      Z:    11.2902

  Dipole Moment: [e a0]
     X:     0.0919      Y:     0.4041      Z:     0.4355     Total:     0.6011

  Dipole Moment: [D]
     X:     0.2336      Y:     1.0270      Z:     1.1069     Total:     1.5279

*** tstop() called on ds3 at Mon Apr 27 19:59:03 2020
Module time:
	user time   =      78.34 seconds =       1.31 minutes
	system time =      35.90 seconds =       0.60 minutes
	total time  =        110 seconds =       1.83 minutes
Total time:
	user time   =      78.34 seconds =       1.31 minutes
	system time =      35.90 seconds =       0.60 minutes
	total time  =        110 seconds =       1.83 minutes
                                     G D M A

                                 by Anthony Stone

                           version 2.2.06, 22 June 2011

               Distributed Multipoles from Gaussian wavefunctions

Starting at 19:59:3 on 27 Apr 2020

Using SCF density matrix from file ./SSI/SSI-036VAL-086TYR-1-dimer.test.11143.fchk

                         Distributed Multipole Analysis

Standard DMA

Positions and radii in angstrom
Multipole moments in atomic units, ea_0^k for rank k

C          x =  2.891509  y = -0.143335  z = -2.001188 angstrom
           Maximum rank =  0   Radius =  0.650 angstrom
                   Q00  =  -0.238347

C          x =  3.590509  y =  0.800665  z = -3.006188 angstrom
           Maximum rank =  0   Radius =  0.650 angstrom
                   Q00  =  -0.244277

H          x =  2.494509  y = -1.023335  z = -2.506188 angstrom
           Maximum rank =  0   Radius =  0.325 angstrom
                   Q00  =   0.077992

H          x =  3.619509  y = -0.489335  z = -1.272188 angstrom
           Maximum rank =  0   Radius =  0.325 angstrom
                   Q00  =   0.081121

H          x =  2.086509  y =  0.382665  z = -1.488188 angstrom
           Maximum rank =  0   Radius =  0.325 angstrom
                   Q00  =   0.086184

H          x =  4.413509  y =  0.239665  z = -3.441188 angstrom
           Maximum rank =  0   Radius =  0.325 angstrom
                   Q00  =   0.077393

H          x =  2.909884  y =  1.107375  z = -3.814068 angstrom
           Maximum rank =  0   Radius =  0.325 angstrom
                   Q00  =   0.078739

H          x =  4.005242  y =  1.682335  z = -2.495638 angstrom
           Maximum rank =  0   Radius =  0.325 angstrom
                   Q00  =   0.080839

C          x = -0.811491  y =  2.553665  z = -0.583188 angstrom
           Maximum rank =  0   Radius =  0.650 angstrom
                   Q00  =  -0.205697

C          x = -0.676491  y =  0.017665  z = -0.695188 angstrom
           Maximum rank =  0   Radius =  0.650 angstrom
                   Q00  =  -0.057434

C          x = -0.871491  y =  1.182665  z =  0.057812 angstrom
           Maximum rank =  0   Radius =  0.650 angstrom
                   Q00  =  -0.126866

C          x = -0.721491  y = -1.231335  z = -0.078188 angstrom
           Maximum rank =  0   Radius =  0.650 angstrom
                   Q00  =  -0.111196

C          x = -1.126491  y =  1.062665  z =  1.427812 angstrom
           Maximum rank =  0   Radius =  0.650 angstrom
                   Q00  =   0.026325

C          x = -0.936491  y = -1.324335  z =  1.290812 angstrom
           Maximum rank =  0   Radius =  0.650 angstrom
                   Q00  =   0.349026

C          x = -1.134491  y = -0.177335  z =  2.045812 angstrom
           Maximum rank =  0   Radius =  0.650 angstrom
                   Q00  =  -0.189547

O          x = -0.952491  y = -2.550335  z =  1.886812 angstrom
           Maximum rank =  0   Radius =  0.650 angstrom
                   Q00  =  -0.671120

H          x = -0.473491  y =  0.063665  z = -1.754188 angstrom
           Maximum rank =  0   Radius =  0.325 angstrom
                   Q00  =   0.065972

H          x = -0.604491  y = -2.126335  z = -0.656188 angstrom
           Maximum rank =  0   Radius =  0.325 angstrom
                   Q00  =   0.080384

H          x =  0.208509  y =  2.918665  z = -0.463188 angstrom
           Maximum rank =  0   Radius =  0.325 angstrom
                   Q00  =   0.096117

H          x = -1.451491  y =  3.229665  z = -0.027188 angstrom
           Maximum rank =  0   Radius =  0.325 angstrom
                   Q00  =   0.097468

H          x = -1.303491  y =  1.948665  z =  2.021812 angstrom
           Maximum rank =  0   Radius =  0.325 angstrom
                   Q00  =   0.067518

H          x = -1.308491  y = -0.251335  z =  3.110812 angstrom
           Maximum rank =  0   Radius =  0.325 angstrom
                   Q00  =   0.071474

H          x = -0.837491  y = -2.472335  z =  2.847812 angstrom
           Maximum rank =  0   Radius =  0.325 angstrom
                   Q00  =   0.407375

H          x = -1.065965  y =  2.629145  z = -1.650688 angstrom
           Maximum rank =  0   Radius =  0.325 angstrom
                   Q00  =   0.100556

Total multipoles referred to origin at
           x =   0.000000,  y =    0.000000,  z =    0.000000 angstrom
                   Q00  =  -0.000000

Finished at 19:59:3 on 27 Apr 2020

  DMA results are available in the Python driver through the
	  variable('DMA DISTRIBUTED MULTIPOLES')
  and
	  variable('DMA TOTAL MULTIPOLES')
  commands.

    Psi4 stopped on: Monday, 27 April 2020 07:59PM
    Psi4 wall time for execution: 0:01:49.96

*** Psi4 exiting successfully. Buy a developer a beer!
