                               Psi4 1.3.2 release

  ==> Input File <==

--------------------------------------------------------------------------
import numpy as np
set {scf_type pk
basis cc-pvdz
d_convergence 10
gdma_switch   0
gdma_limit    0
gdma_origin   [ 0.0,  0.0,  0.0 ]
}
molecule test {
    units Angstrom
    0 1
    --
    0 1
    C               -1.260046017920472    -0.625821870534220     1.641945332434628
    C               -1.311046017920472    -0.718821870534220     3.170945332434628
    H               -2.252046017920472    -0.443821870534220     1.223945332434628
    H               -0.599046017920472     0.191178129465780     1.354945332434628
    H               -0.861046017920472    -1.545821870534220     1.213945332434628
    H               -0.347046017920472    -1.086821870534220     3.507945332434628
    H               -2.092416017920472    -1.426488870534220     3.485066332434628
    H               -1.449426017920472     0.264157129465780     3.644869332434629
    C                0.474953982079528     0.214178129465780    -1.327054667565372
    C                0.470953982079528     0.199178129465780    -2.864054667565372
    C                1.648953982079528     0.953178129465780    -0.715054667565372
    H               -0.446046017920472     0.668178129465780    -0.969054667565372
    H                0.513953982079528    -0.812821870534220    -0.961054667565372
    H                1.321953982079528    -0.392821870534220    -3.200054667565372
    H                1.543953982079528     2.028178129465780    -0.858054667565372
    H                1.680953982079528     0.753178129465780     0.356945332434628
    H                2.574953982079528     0.604178129465780    -1.169054667565372
    H               -0.453236017920472    -0.269705870534220    -3.232874667565371
    H                0.581513982079528     1.208608129465780    -3.286924667565371

}
e, wfn = energy('scf', return_wfn=True)
gdma(wfn)
dmavals = variable('DMA DISTRIBUTED MULTIPOLES')
charges = np.array(dmavals)
print(charges)
np.save('SSI-050ILE-053ILE-1-dimer.npy', np.array(charges))--------------------------------------------------------------------------

*** tstart() called on ds3
*** at Tue Apr 28 11:50:21 2020

   => Loading Basis Set <=

    Name: CC-PVDZ
    Role: ORBITAL
    Keyword: BASIS
    atoms 1-2, 9-11  entry C          line   138 file /theoryfs2/ds/metcalf/miniconda2/envs/tf2gpu/share/psi4/basis/cc-pvdz.gbs
    atoms 3-8, 12-19 entry H          line    22 file /theoryfs2/ds/metcalf/miniconda2/envs/tf2gpu/share/psi4/basis/cc-pvdz.gbs

         ---------------------------------------------------------
                                   SCF
               by Justin Turney, Rob Parrish, Andy Simmonett
                          and Daniel G. A. Smith
                              RHF Reference
                        1 Threads,    500 MiB Core
         ---------------------------------------------------------

  ==> Geometry <==

    Molecular point group: c1
    Full point group: C1

    Geometry (in Angstrom), charge = 0, multiplicity = 1:

       Center              X                  Y                   Z               Mass
    ------------   -----------------  -----------------  -----------------  -----------------
         C           -1.260046017920    -0.625821870534     1.641945332435    12.000000000000
         C           -1.311046017920    -0.718821870534     3.170945332435    12.000000000000
         H           -2.252046017920    -0.443821870534     1.223945332435     1.007825032230
         H           -0.599046017920     0.191178129466     1.354945332435     1.007825032230
         H           -0.861046017920    -1.545821870534     1.213945332435     1.007825032230
         H           -0.347046017920    -1.086821870534     3.507945332435     1.007825032230
         H           -2.092416017920    -1.426488870534     3.485066332435     1.007825032230
         H           -1.449426017920     0.264157129466     3.644869332435     1.007825032230
         C            0.474953982080     0.214178129466    -1.327054667565    12.000000000000
         C            0.470953982080     0.199178129466    -2.864054667565    12.000000000000
         C            1.648953982080     0.953178129466    -0.715054667565    12.000000000000
         H           -0.446046017920     0.668178129466    -0.969054667565     1.007825032230
         H            0.513953982080    -0.812821870534    -0.961054667565     1.007825032230
         H            1.321953982080    -0.392821870534    -3.200054667565     1.007825032230
         H            1.543953982080     2.028178129466    -0.858054667565     1.007825032230
         H            1.680953982080     0.753178129466     0.356945332435     1.007825032230
         H            2.574953982080     0.604178129466    -1.169054667565     1.007825032230
         H           -0.453236017920    -0.269705870534    -3.232874667565     1.007825032230
         H            0.581513982080     1.208608129466    -3.286924667565     1.007825032230

  Running in c1 symmetry.

  Rotational constants: A =      0.27714  B =      0.03775  C =      0.03430 [cm^-1]
  Rotational constants: A =   8308.47271  B =   1131.82629  C =   1028.33268 [MHz]
  Nuclear repulsion =  177.832930111701643

  Charge       = 0
  Multiplicity = 1
  Electrons    = 44
  Nalpha       = 22
  Nbeta        = 22

  ==> Algorithm <==

  SCF Algorithm Type is PK.
  DIIS enabled.
  MOM disabled.
  Fractional occupation disabled.
  Guess Type is SAD.
  Energy threshold   = 1.00e-06
  Density threshold  = 1.00e-10
  Integral threshold = 0.00e+00

  ==> Primary Basis <==

  Basis Set: CC-PVDZ
    Blend: CC-PVDZ
    Number of shells: 72
    Number of basis function: 140
    Number of Cartesian functions: 145
    Spherical Harmonics?: true
    Max angular momentum: 2

  ==> Pre-Iterations <==

   -------------------------------------------------------
    Irrep   Nso     Nmo     Nalpha   Nbeta   Ndocc  Nsocc
   -------------------------------------------------------
     A        140     140       0       0       0       0
   -------------------------------------------------------
    Total     140     140      22      22      22       0
   -------------------------------------------------------

  ==> Integral Setup <==

  Using integral reordering PK algorithm.
  Sizing the integral batches needed.
  Building batch lookup table.
   Calculation information:
      Number of atoms:                  19
      Number of AO shells:              72
      Number of primitives:            180
      Number of atomic orbitals:       145
      Number of basis functions:       140

      Integral cutoff                 1.00e-12
      Number of threads:                 1

	Batch   1 pq = [       0,    9405] index = [             0,44231715] size =     44231715
	Batch   2 pq = [    9405,    9870] index = [      44231715,48713385] size =      4481670
  Task number: 5
  Buffer size: 11059200
  Buffer per thread: 2
  We computed 2854013 shell quartets total.
  Whereas there are 3454506 unique shell quartets.

  ==> DiskJK: Disk-Based J/K Matrices <==

    J tasked:                  Yes
    K tasked:                  Yes
    wK tasked:                  No
    Memory [MiB]:              375
    Schwarz Cutoff:          1E-12

    OpenMP threads:              1

  Minimum eigenvalue in the overlap matrix is 5.2544238538E-03.
  Using Symmetric Orthogonalization.

  SCF Guess: Superposition of Atomic Densities via on-the-fly atomic UHF.

  ==> Iterations <==

                        Total Energy        Delta E     RMS |[F,P]|

   @RHF iter SAD:  -196.37706458181100   -1.96377e+02   0.00000e+00
   @RHF iter   1:  -197.31082198365391   -9.33757e-01   3.80019e-03 DIIS
   @RHF iter   2:  -197.47118401878487   -1.60362e-01   1.62942e-03 DIIS
   @RHF iter   3:  -197.49926389459876   -2.80799e-02   3.26460e-04 DIIS
   @RHF iter   4:  -197.50149672049869   -2.23283e-03   4.90348e-05 DIIS
   @RHF iter   5:  -197.50153633970876   -3.96192e-05   1.48141e-05 DIIS
   @RHF iter   6:  -197.50153970514273   -3.36543e-06   2.51770e-06 DIIS
   @RHF iter   7:  -197.50153981808711   -1.12944e-07   4.75734e-07 DIIS
   @RHF iter   8:  -197.50153982296547   -4.87836e-09   1.25464e-07 DIIS
   @RHF iter   9:  -197.50153982328891   -3.23439e-10   4.03336e-08 DIIS
   @RHF iter  10:  -197.50153982332685   -3.79430e-11   8.45391e-09 DIIS
   @RHF iter  11:  -197.50153982332918   -2.33058e-12   1.52763e-09 DIIS
   @RHF iter  12:  -197.50153982332802    1.16529e-12   2.90547e-10 DIIS
   @RHF iter  13:  -197.50153982332921   -1.19371e-12   6.52934e-11 DIIS
  Energy and wave function converged.

  ==> Post-Iterations <==

    Orbital Energies [Eh]
    ---------------------

    Doubly Occupied:

       1A    -11.218870     2A    -11.217561     3A    -11.216990
       4A    -11.216667     5A    -11.213828     6A     -1.053470
       7A     -1.016826     8A     -0.925351     9A     -0.838413
      10A     -0.794802    11A     -0.626435    12A     -0.602016
      13A     -0.594537    14A     -0.591731    15A     -0.550537
      16A     -0.532427    17A     -0.502485    18A     -0.487697
      19A     -0.483479    20A     -0.471452    21A     -0.466239
      22A     -0.465008

    Virtual:

      23A      0.171799    24A      0.195005    25A      0.218784
      26A      0.227383    27A      0.228380    28A      0.252533
      29A      0.255881    30A      0.264886    31A      0.281073
      32A      0.284413    33A      0.295916    34A      0.297851
      35A      0.314143    36A      0.351507    37A      0.379297
      38A      0.401568    39A      0.427261    40A      0.573063
      41A      0.581958    42A      0.592092    43A      0.601581
      44A      0.608664    45A      0.615049    46A      0.636407
      47A      0.691194    48A      0.701987    49A      0.751967
      50A      0.793865    51A      0.803674    52A      0.843794
      53A      0.876938    54A      0.881332    55A      0.889921
      56A      0.893533    57A      0.895265    58A      0.896938
      59A      0.902725    60A      0.907488    61A      0.921033
      62A      0.922371    63A      0.929198    64A      0.940857
      65A      0.957689    66A      0.968812    67A      0.989025
      68A      1.025973    69A      1.120652    70A      1.125887
      71A      1.134930    72A      1.150354    73A      1.203719
      74A      1.246866    75A      1.385270    76A      1.463168
      77A      1.474592    78A      1.478893    79A      1.481638
      80A      1.544395    81A      1.587984    82A      1.639360
      83A      1.683638    84A      1.684884    85A      1.688499
      86A      1.698160    87A      1.709872    88A      1.857397
      89A      1.863353    90A      1.868229    91A      1.877131
      92A      1.886945    93A      1.904013    94A      1.912271
      95A      1.919684    96A      1.930617    97A      1.938811
      98A      1.953586    99A      1.960455   100A      1.964149
     101A      1.972534   102A      1.979351   103A      1.989387
     104A      1.999296   105A      2.033532   106A      2.046127
     107A      2.067020   108A      2.106356   109A      2.125891
     110A      2.158199   111A      2.170815   112A      2.290618
     113A      2.300790   114A      2.308826   115A      2.326014
     116A      2.341902   117A      2.345500   118A      2.448696
     119A      2.460373   120A      2.499376   121A      2.533531
     122A      2.558507   123A      2.579576   124A      2.597756
     125A      2.624316   126A      2.628615   127A      2.751012
     128A      2.762735   129A      2.768670   130A      2.790838
     131A      2.797325   132A      2.826054   133A      2.848841
     134A      2.867235   135A      2.914817   136A      2.952165
     137A      2.960491   138A      2.971192   139A      2.983526
     140A      3.059556

    Final Occupation by Irrep:
              A
    DOCC [    22 ]

  @RHF Final Energy:  -197.50153982332921

   => Energetics <=

    Nuclear Repulsion Energy =            177.8329301117016428
    One-Electron Energy =                -616.4952982567522213
    Two-Electron Energy =                 241.1608283217213398
    Total Energy =                       -197.5015398233292103

Computation Completed

Properties will be evaluated at   0.000000,   0.000000,   0.000000 [a0]

Properties computed using the SCF density matrix

  Nuclear Dipole Moment: [e a0]
     X:    -0.2653      Y:    -0.2443      Z:     1.0411

  Electronic Dipole Moment: [e a0]
     X:     0.2613      Y:     0.2256      Z:    -1.0248

  Dipole Moment: [e a0]
     X:    -0.0041      Y:    -0.0187      Z:     0.0163     Total:     0.0252

  Dipole Moment: [D]
     X:    -0.0103      Y:    -0.0476      Z:     0.0415     Total:     0.0640

*** tstop() called on ds3 at Tue Apr 28 11:50:43 2020
Module time:
	user time   =      16.16 seconds =       0.27 minutes
	system time =       5.99 seconds =       0.10 minutes
	total time  =         22 seconds =       0.37 minutes
Total time:
	user time   =      16.16 seconds =       0.27 minutes
	system time =       5.99 seconds =       0.10 minutes
	total time  =         22 seconds =       0.37 minutes
                                     G D M A

                                 by Anthony Stone

                           version 2.2.06, 22 June 2011

               Distributed Multipoles from Gaussian wavefunctions

Starting at 11:50:43 on 28 Apr 2020

Using SCF density matrix from file ./SSI/SSI-050ILE-053ILE-1-dimer.test.6607.fchk

                         Distributed Multipole Analysis

Standard DMA

Positions and radii in angstrom
Multipole moments in atomic units, ea_0^k for rank k

C          x = -1.260046  y = -0.625822  z =  1.641945 angstrom
           Maximum rank =  0   Radius =  0.650 angstrom
                   Q00  =  -0.231843

C          x = -1.311046  y = -0.718822  z =  3.170945 angstrom
           Maximum rank =  0   Radius =  0.650 angstrom
                   Q00  =  -0.246661

H          x = -2.252046  y = -0.443822  z =  1.223945 angstrom
           Maximum rank =  0   Radius =  0.325 angstrom
                   Q00  =   0.079472

H          x = -0.599046  y =  0.191178  z =  1.354945 angstrom
           Maximum rank =  0   Radius =  0.325 angstrom
                   Q00  =   0.079265

H          x = -0.861046  y = -1.545822  z =  1.213945 angstrom
           Maximum rank =  0   Radius =  0.325 angstrom
                   Q00  =   0.079662

H          x = -0.347046  y = -1.086822  z =  3.507945 angstrom
           Maximum rank =  0   Radius =  0.325 angstrom
                   Q00  =   0.077206

H          x = -2.092416  y = -1.426489  z =  3.485066 angstrom
           Maximum rank =  0   Radius =  0.325 angstrom
                   Q00  =   0.080430

H          x = -1.449426  y =  0.264157  z =  3.644869 angstrom
           Maximum rank =  0   Radius =  0.325 angstrom
                   Q00  =   0.080572

C          x =  0.474954  y =  0.214178  z = -1.327055 angstrom
           Maximum rank =  0   Radius =  0.650 angstrom
                   Q00  =  -0.080345

C          x =  0.470954  y =  0.199178  z = -2.864055 angstrom
           Maximum rank =  0   Radius =  0.650 angstrom
                   Q00  =  -0.239001

C          x =  1.648954  y =  0.953178  z = -0.715055 angstrom
           Maximum rank =  0   Radius =  0.650 angstrom
                   Q00  =  -0.242360

H          x = -0.446046  y =  0.668178  z = -0.969055 angstrom
           Maximum rank =  0   Radius =  0.325 angstrom
                   Q00  =   0.046376

H          x =  0.513954  y = -0.812822  z = -0.961055 angstrom
           Maximum rank =  0   Radius =  0.325 angstrom
                   Q00  =   0.044549

H          x =  1.321954  y = -0.392822  z = -3.200055 angstrom
           Maximum rank =  0   Radius =  0.325 angstrom
                   Q00  =   0.075974

H          x =  1.543954  y =  2.028178  z = -0.858055 angstrom
           Maximum rank =  0   Radius =  0.325 angstrom
                   Q00  =   0.078069

H          x =  1.680954  y =  0.753178  z =  0.356945 angstrom
           Maximum rank =  0   Radius =  0.325 angstrom
                   Q00  =   0.080756

H          x =  2.574954  y =  0.604178  z = -1.169055 angstrom
           Maximum rank =  0   Radius =  0.325 angstrom
                   Q00  =   0.074878

H          x = -0.453236  y = -0.269706  z = -3.232875 angstrom
           Maximum rank =  0   Radius =  0.325 angstrom
                   Q00  =   0.085518

H          x =  0.581514  y =  1.208608  z = -3.286925 angstrom
           Maximum rank =  0   Radius =  0.325 angstrom
                   Q00  =   0.077483

Total multipoles referred to origin at
           x =   0.000000,  y =    0.000000,  z =    0.000000 angstrom
                   Q00  =  -0.000000

Finished at 11:50:43 on 28 Apr 2020

  DMA results are available in the Python driver through the
	  variable('DMA DISTRIBUTED MULTIPOLES')
  and
	  variable('DMA TOTAL MULTIPOLES')
  commands.

    Psi4 stopped on: Tuesday, 28 April 2020 11:50AM
    Psi4 wall time for execution: 0:00:21.64

*** Psi4 exiting successfully. Buy a developer a beer!
