                               Psi4 1.3.2 release

  ==> Input File <==

--------------------------------------------------------------------------
import numpy as np
set {scf_type pk
basis cc-pvdz
d_convergence 10
gdma_switch   0
gdma_limit    0
gdma_origin   [ 0.0,  0.0,  0.0 ]
}
molecule test {
    units Angstrom
    0 1
    --
    0 1
    C                2.334992722746536    -1.667815680031162    -2.703553739734613
    C                2.142992722746536    -1.802815680031162    -4.185553739734614
    H                1.441992722746535    -1.971815680031162    -2.169553739734614
    H                3.153992722746536    -2.322815680031161    -2.407553739734614
    H                2.579992722746535    -0.635815680031162    -2.449553739734613
    H                1.908992722746536    -2.844815680031161    -4.396553739734613
    H                1.320052722746536    -1.162596680031162    -4.536116739734615
    H                3.088622722746536    -1.566046680031162    -4.695183739734613
    C               -2.386007277253464    -0.170815680031162     2.778446260265386
    C               -0.244007277253464    -0.016815680031162    -0.364553739734614
    C                0.522992722746536     1.121184319968838    -0.127553739734614
    C               -1.190007277253465    -0.422815680031162     0.571446260265386
    C               -1.378007277253464     0.296184319968838     1.753446260265386
    C                0.347992722746536     1.845184319968838     1.053446260265386
    C               -0.593007277253464     1.424184319968838     1.990446260265386
    H               -0.112007277253464    -0.577815680031162    -1.277553739734614
    H                1.260992722746536     1.437184319968838    -0.853553739734614
    H               -1.785007277253464    -1.300815680031162     0.381446260265386
    H                0.962992722746535     2.708184319968838     1.258446260265386
    H               -1.883007277253464    -0.832815680031161     3.475446260265386
    H               -3.157007277253465    -0.762815680031162     2.282446260265386
    H               -0.662007277253464     1.985184319968838     2.906446260265386
    H               -2.854997277253464     0.636139319968839     3.360566260265387

}
e, wfn = energy('scf', return_wfn=True)
gdma(wfn)
dmavals = variable('DMA DISTRIBUTED MULTIPOLES')
charges = np.array(dmavals)
print(charges)
np.save('SSI-053VAL-117PHE-1-dimer.npy', np.array(charges))--------------------------------------------------------------------------

*** tstart() called on ds3
*** at Mon Apr 27 13:35:26 2020

   => Loading Basis Set <=

    Name: CC-PVDZ
    Role: ORBITAL
    Keyword: BASIS
    atoms 1-2, 9-15  entry C          line   138 file /theoryfs2/ds/metcalf/miniconda2/envs/tf2gpu/share/psi4/basis/cc-pvdz.gbs
    atoms 3-8, 16-23 entry H          line    22 file /theoryfs2/ds/metcalf/miniconda2/envs/tf2gpu/share/psi4/basis/cc-pvdz.gbs

         ---------------------------------------------------------
                                   SCF
               by Justin Turney, Rob Parrish, Andy Simmonett
                          and Daniel G. A. Smith
                              RHF Reference
                        1 Threads,    500 MiB Core
         ---------------------------------------------------------

  ==> Geometry <==

    Molecular point group: c1
    Full point group: C1

    Geometry (in Angstrom), charge = 0, multiplicity = 1:

       Center              X                  Y                   Z               Mass
    ------------   -----------------  -----------------  -----------------  -----------------
         C            2.334992722747    -1.667815680031    -2.703553739735    12.000000000000
         C            2.142992722747    -1.802815680031    -4.185553739735    12.000000000000
         H            1.441992722747    -1.971815680031    -2.169553739735     1.007825032230
         H            3.153992722747    -2.322815680031    -2.407553739735     1.007825032230
         H            2.579992722747    -0.635815680031    -2.449553739735     1.007825032230
         H            1.908992722747    -2.844815680031    -4.396553739735     1.007825032230
         H            1.320052722747    -1.162596680031    -4.536116739735     1.007825032230
         H            3.088622722747    -1.566046680031    -4.695183739735     1.007825032230
         C           -2.386007277253    -0.170815680031     2.778446260265    12.000000000000
         C           -0.244007277253    -0.016815680031    -0.364553739735    12.000000000000
         C            0.522992722747     1.121184319969    -0.127553739735    12.000000000000
         C           -1.190007277253    -0.422815680031     0.571446260265    12.000000000000
         C           -1.378007277253     0.296184319969     1.753446260265    12.000000000000
         C            0.347992722747     1.845184319969     1.053446260265    12.000000000000
         C           -0.593007277253     1.424184319969     1.990446260265    12.000000000000
         H           -0.112007277253    -0.577815680031    -1.277553739735     1.007825032230
         H            1.260992722747     1.437184319969    -0.853553739735     1.007825032230
         H           -1.785007277253    -1.300815680031     0.381446260265     1.007825032230
         H            0.962992722747     2.708184319969     1.258446260265     1.007825032230
         H           -1.883007277253    -0.832815680031     3.475446260265     1.007825032230
         H           -3.157007277253    -0.762815680031     2.282446260265     1.007825032230
         H           -0.662007277253     1.985184319969     2.906446260265     1.007825032230
         H           -2.854997277253     0.636139319969     3.360566260265     1.007825032230

  Running in c1 symmetry.

  Rotational constants: A =      0.10941  B =      0.01731  C =      0.01544 [cm^-1]
  Rotational constants: A =   3280.15208  B =    519.07066  C =    462.75371 [MHz]
  Nuclear repulsion =  394.851380096520188

  Charge       = 0
  Multiplicity = 1
  Electrons    = 68
  Nalpha       = 34
  Nbeta        = 34

  ==> Algorithm <==

  SCF Algorithm Type is PK.
  DIIS enabled.
  MOM disabled.
  Fractional occupation disabled.
  Guess Type is SAD.
  Energy threshold   = 1.00e-06
  Density threshold  = 1.00e-10
  Integral threshold = 0.00e+00

  ==> Primary Basis <==

  Basis Set: CC-PVDZ
    Blend: CC-PVDZ
    Number of shells: 96
    Number of basis function: 196
    Number of Cartesian functions: 205
    Spherical Harmonics?: true
    Max angular momentum: 2

  ==> Pre-Iterations <==

   -------------------------------------------------------
    Irrep   Nso     Nmo     Nalpha   Nbeta   Ndocc  Nsocc
   -------------------------------------------------------
     A        196     196       0       0       0       0
   -------------------------------------------------------
    Total     196     196      34      34      34       0
   -------------------------------------------------------

  ==> Integral Setup <==

  Using integral reordering PK algorithm.
  Sizing the integral batches needed.
  Building batch lookup table.
   Calculation information:
      Number of atoms:                  23
      Number of AO shells:              96
      Number of primitives:            268
      Number of atomic orbitals:       205
      Number of basis functions:       196

      Integral cutoff                 1.00e-12
      Number of threads:                 1

	Batch   1 pq = [       0,    9405] index = [             0,44231715] size =     44231715
	Batch   2 pq = [    9405,   13301] index = [      44231715,88464951] size =     44233236
	Batch   3 pq = [   13301,   16290] index = [      88464951,132690195] size =     44225244
	Batch   4 pq = [   16290,   18810] index = [     132690195,176917455] size =     44227260
	Batch   5 pq = [   18810,   19306] index = [     176917455,186370471] size =      9453016
  Task number: 17
  Buffer size: 11059200
  Buffer per thread: 2
  We computed 7986387 shell quartets total.
  Whereas there are 10841496 unique shell quartets.

  ==> DiskJK: Disk-Based J/K Matrices <==

    J tasked:                  Yes
    K tasked:                  Yes
    wK tasked:                  No
    Memory [MiB]:              375
    Schwarz Cutoff:          1E-12

    OpenMP threads:              1

  Minimum eigenvalue in the overlap matrix is 3.0930773473E-04.
  Using Symmetric Orthogonalization.

  SCF Guess: Superposition of Atomic Densities via on-the-fly atomic UHF.

  ==> Iterations <==

                        Total Energy        Delta E     RMS |[F,P]|

   @RHF iter SAD:  -347.89710987643656   -3.47897e+02   0.00000e+00
   @RHF iter   1:  -348.76389066876021   -8.66781e-01   2.91468e-03 DIIS
   @RHF iter   2:  -348.95845700246082   -1.94566e-01   1.20873e-03 DIIS
   @RHF iter   3:  -348.98898144990716   -3.05244e-02   2.58708e-04 DIIS
   @RHF iter   4:  -348.99147059150994   -2.48914e-03   5.21231e-05 DIIS
   @RHF iter   5:  -348.99154204290198   -7.14514e-05   1.78511e-05 DIIS
   @RHF iter   6:  -348.99154976877878   -7.72588e-06   4.77010e-06 DIIS
   @RHF iter   7:  -348.99155040950234   -6.40724e-07   1.23599e-06 DIIS
   @RHF iter   8:  -348.99155045427528   -4.47729e-08   2.64282e-07 DIIS
   @RHF iter   9:  -348.99155045724910   -2.97382e-09   9.18924e-08 DIIS
   @RHF iter  10:  -348.99155045755975   -3.10649e-10   3.16149e-08 DIIS
   @RHF iter  11:  -348.99155045760898   -4.92264e-11   8.48365e-09 DIIS
   @RHF iter  12:  -348.99155045761580   -6.82121e-12   4.47178e-09 DIIS
   @RHF iter  13:  -348.99155045761751   -1.70530e-12   2.22532e-09 DIIS
   @RHF iter  14:  -348.99155045761722    2.84217e-13   8.08303e-10 DIIS
   @RHF iter  15:  -348.99155045761620    1.02318e-12   3.49927e-10 DIIS
   @RHF iter  16:  -348.99155045761660   -3.97904e-13   7.89079e-11 DIIS
  Energy and wave function converged.

  ==> Post-Iterations <==

    Orbital Energies [Eh]
    ---------------------

    Doubly Occupied:

       1A    -11.241719     2A    -11.234563     3A    -11.234190
       4A    -11.230502     5A    -11.229704     6A    -11.229161
       7A    -11.228981     8A    -11.217848     9A    -11.214849
      10A     -1.150622    11A     -1.041732    12A     -1.027770
      13A     -1.011121    14A     -0.930494    15A     -0.834682
      16A     -0.822609    17A     -0.796101    18A     -0.689898
      19A     -0.631692    20A     -0.628991    21A     -0.605465
      22A     -0.603074    23A     -0.582316    24A     -0.573172
      25A     -0.561648    26A     -0.536886    27A     -0.505271
      28A     -0.489458    29A     -0.485046    30A     -0.484215
      31A     -0.481857    32A     -0.478257    33A     -0.331426
      34A     -0.319853

    Virtual:

      35A      0.137115    36A      0.141462    37A      0.169940
      38A      0.191123    39A      0.207050    40A      0.220958
      41A      0.224521    42A      0.243868    43A      0.250096
      44A      0.259267    45A      0.265000    46A      0.274867
      47A      0.279528    48A      0.292252    49A      0.316633
      50A      0.347791    51A      0.372289    52A      0.376692
      53A      0.399531    54A      0.460383    55A      0.463606
      56A      0.482818    57A      0.490407    58A      0.559462
      59A      0.590315    60A      0.599249    61A      0.601344
      62A      0.623556    63A      0.628565    64A      0.669797
      65A      0.677968    66A      0.688145    67A      0.695245
      68A      0.712867    69A      0.721819    70A      0.739122
      71A      0.743160    72A      0.749045    73A      0.762670
      74A      0.769990    75A      0.789869    76A      0.800237
      77A      0.840328    78A      0.848885    79A      0.857787
      80A      0.873401    81A      0.879173    82A      0.886322
      83A      0.889855    84A      0.893198    85A      0.896528
      86A      0.902821    87A      0.916867    88A      0.921575
      89A      0.925894    90A      0.931508    91A      0.945270
      92A      0.975717    93A      0.981770    94A      0.998045
      95A      1.028810    96A      1.052632    97A      1.116485
      98A      1.126670    99A      1.133137   100A      1.145468
     101A      1.155586   102A      1.173327   103A      1.202340
     104A      1.235968   105A      1.239287   106A      1.252959
     107A      1.258543   108A      1.262488   109A      1.290049
     110A      1.308708   111A      1.317751   112A      1.332067
     113A      1.411079   114A      1.482942   115A      1.492501
     116A      1.503888   117A      1.525683   118A      1.565510
     119A      1.569061   120A      1.604424   121A      1.666198
     122A      1.677089   123A      1.698129   124A      1.699313
     125A      1.735690   126A      1.745713   127A      1.758130
     128A      1.791365   129A      1.812503   130A      1.853241
     131A      1.853559   132A      1.869322   133A      1.885063
     134A      1.897757   135A      1.911472   136A      1.913518
     137A      1.925566   138A      1.928469   139A      1.935938
     140A      1.947168   141A      1.949633   142A      1.954930
     143A      1.962038   144A      1.967915   145A      1.981428
     146A      1.984286   147A      1.988764   148A      2.002138
     149A      2.034215   150A      2.075055   151A      2.076411
     152A      2.109776   153A      2.113769   154A      2.120627
     155A      2.144142   156A      2.162686   157A      2.166068
     158A      2.181286   159A      2.194390   160A      2.263963
     161A      2.271326   162A      2.292084   163A      2.298090
     164A      2.305978   165A      2.313607   166A      2.324612
     167A      2.336371   168A      2.455683   169A      2.458138
     170A      2.474065   171A      2.478091   172A      2.485799
     173A      2.551548   174A      2.569604   175A      2.584638
     176A      2.630785   177A      2.739777   178A      2.744689
     179A      2.764143   180A      2.767095   181A      2.791104
     182A      2.798704   183A      2.819978   184A      2.849585
     185A      2.853782   186A      2.855519   187A      2.861069
     188A      2.957108   189A      2.982703   190A      2.987846
     191A      3.023587   192A      3.027798   193A      3.167793
     194A      3.204048   195A      3.302845   196A      3.963409

    Final Occupation by Irrep:
              A
    DOCC [    34 ]

  @RHF Final Energy:  -348.99155045761660

   => Energetics <=

    Nuclear Repulsion Energy =            394.8513800965201881
    One-Electron Energy =               -1252.3555193553183926
    Two-Electron Energy =                 508.5125888011816073
    Total Energy =                       -348.9915504576165972

Computation Completed

Properties will be evaluated at   0.000000,   0.000000,   0.000000 [a0]

Properties computed using the SCF density matrix

  Nuclear Dipole Moment: [e a0]
     X:     4.9345      Y:    -6.7605      Z:    -8.5505

  Electronic Dipole Moment: [e a0]
     X:    -4.9725      Y:     6.6758      Z:     8.6711

  Dipole Moment: [e a0]
     X:    -0.0380      Y:    -0.0847      Z:     0.1206     Total:     0.1522

  Dipole Moment: [D]
     X:    -0.0966      Y:    -0.2153      Z:     0.3065     Total:     0.3869

*** tstop() called on ds3 at Mon Apr 27 13:36:46 2020
Module time:
	user time   =      55.52 seconds =       0.93 minutes
	system time =      25.98 seconds =       0.43 minutes
	total time  =         80 seconds =       1.33 minutes
Total time:
	user time   =      55.52 seconds =       0.93 minutes
	system time =      25.98 seconds =       0.43 minutes
	total time  =         80 seconds =       1.33 minutes
                                     G D M A

                                 by Anthony Stone

                           version 2.2.06, 22 June 2011

               Distributed Multipoles from Gaussian wavefunctions

Starting at 13:36:46 on 27 Apr 2020

Using SCF density matrix from file ./SSI/SSI-053VAL-117PHE-1-dimer.test.7238.fchk

                         Distributed Multipole Analysis

Standard DMA

Positions and radii in angstrom
Multipole moments in atomic units, ea_0^k for rank k

C          x =  2.334993  y = -1.667816  z = -2.703554 angstrom
           Maximum rank =  0   Radius =  0.650 angstrom
                   Q00  =  -0.229026

C          x =  2.142993  y = -1.802816  z = -4.185554 angstrom
           Maximum rank =  0   Radius =  0.650 angstrom
                   Q00  =  -0.224852

H          x =  1.441993  y = -1.971816  z = -2.169554 angstrom
           Maximum rank =  0   Radius =  0.325 angstrom
                   Q00  =   0.075537

H          x =  3.153993  y = -2.322816  z = -2.407554 angstrom
           Maximum rank =  0   Radius =  0.325 angstrom
                   Q00  =   0.077119

H          x =  2.579993  y = -0.635816  z = -2.449554 angstrom
           Maximum rank =  0   Radius =  0.325 angstrom
                   Q00  =   0.074781

H          x =  1.908993  y = -2.844816  z = -4.396554 angstrom
           Maximum rank =  0   Radius =  0.325 angstrom
                   Q00  =   0.074458

H          x =  1.320053  y = -1.162597  z = -4.536117 angstrom
           Maximum rank =  0   Radius =  0.325 angstrom
                   Q00  =   0.076265

H          x =  3.088623  y = -1.566047  z = -4.695184 angstrom
           Maximum rank =  0   Radius =  0.325 angstrom
                   Q00  =   0.076500

C          x = -2.386007  y = -0.170816  z =  2.778446 angstrom
           Maximum rank =  0   Radius =  0.650 angstrom
                   Q00  =  -0.209604

C          x = -0.244007  y = -0.016816  z = -0.364554 angstrom
           Maximum rank =  0   Radius =  0.650 angstrom
                   Q00  =  -0.071397

C          x =  0.522993  y =  1.121184  z = -0.127554 angstrom
           Maximum rank =  0   Radius =  0.650 angstrom
                   Q00  =  -0.092798

C          x = -1.190007  y = -0.422816  z =  0.571446 angstrom
           Maximum rank =  0   Radius =  0.650 angstrom
                   Q00  =  -0.013963

C          x = -1.378007  y =  0.296184  z =  1.753446 angstrom
           Maximum rank =  0   Radius =  0.650 angstrom
                   Q00  =  -0.090642

C          x =  0.347993  y =  1.845184  z =  1.053446 angstrom
           Maximum rank =  0   Radius =  0.650 angstrom
                   Q00  =  -0.070082

C          x = -0.593007  y =  1.424184  z =  1.990446 angstrom
           Maximum rank =  0   Radius =  0.650 angstrom
                   Q00  =  -0.056908

H          x = -0.112007  y = -0.577816  z = -1.277554 angstrom
           Maximum rank =  0   Radius =  0.325 angstrom
                   Q00  =   0.064590

H          x =  1.260993  y =  1.437184  z = -0.853554 angstrom
           Maximum rank =  0   Radius =  0.325 angstrom
                   Q00  =   0.060661

H          x = -1.785007  y = -1.300816  z =  0.381446 angstrom
           Maximum rank =  0   Radius =  0.325 angstrom
                   Q00  =   0.055279

H          x =  0.962993  y =  2.708184  z =  1.258446 angstrom
           Maximum rank =  0   Radius =  0.325 angstrom
                   Q00  =   0.065038

H          x = -1.883007  y = -0.832816  z =  3.475446 angstrom
           Maximum rank =  0   Radius =  0.325 angstrom
                   Q00  =   0.104820

H          x = -3.157007  y = -0.762816  z =  2.282446 angstrom
           Maximum rank =  0   Radius =  0.325 angstrom
                   Q00  =   0.097917

H          x = -0.662007  y =  1.985184  z =  2.906446 angstrom
           Maximum rank =  0   Radius =  0.325 angstrom
                   Q00  =   0.054735

H          x = -2.854997  y =  0.636139  z =  3.360566 angstrom
           Maximum rank =  0   Radius =  0.325 angstrom
                   Q00  =   0.101573

Total multipoles referred to origin at
           x =   0.000000,  y =    0.000000,  z =    0.000000 angstrom
                   Q00  =  -0.000000

Finished at 13:36:46 on 27 Apr 2020

  DMA results are available in the Python driver through the
	  variable('DMA DISTRIBUTED MULTIPOLES')
  and
	  variable('DMA TOTAL MULTIPOLES')
  commands.

    Psi4 stopped on: Monday, 27 April 2020 01:36PM
    Psi4 wall time for execution: 0:01:20.96

*** Psi4 exiting successfully. Buy a developer a beer!
