                               Psi4 1.3.2 release

  ==> Input File <==

--------------------------------------------------------------------------
import numpy as np
set {scf_type pk
basis cc-pvdz
d_convergence 10
gdma_switch   0
gdma_limit    0
gdma_origin   [ 0.0,  0.0,  0.0 ]
}
molecule test {
    units Angstrom
    0 1
    --
    0 1
    C               -2.653394867133741    -1.024193489485422     0.276047205304717
    O               -1.286394867133742    -1.239193489485422     0.540047205304717
    H               -1.093394867133742    -2.175193489485422     0.391047205304717
    H               -3.234394867133741    -1.740193489485422     0.857047205304717
    H               -2.844394867133742    -1.203193489485421    -0.779952794695283
    H               -2.962314867133741    -0.006913489485422     0.558385205304717
    C                1.085605132866258     0.589806510514578     0.195047205304717
    C                2.363605132866259     0.100806510514578    -0.418952794695283
    C                0.796605132866258     1.831806510514578    -0.601952794695283
    H                1.101605132866258     0.807806510514578     1.241047205304717
    H                0.395605132866258    -0.125193489485422    -0.136952794695283
    H                3.189605132866258     0.710806510514578    -0.095952794695283
    H                2.530605132866258    -0.956193489485422    -0.227952794695283
    H               -0.266394867133742     2.016806510514578    -0.506952794695283
    H                2.183565132866259     0.236566510514578    -1.495592794695283
    H                1.124325132866258     1.550686510514578    -1.613670794695283
    H                1.330925132866258     2.711987510514578    -0.214932794695283

}
e, wfn = energy('scf', return_wfn=True)
gdma(wfn)
dmavals = variable('DMA DISTRIBUTED MULTIPOLES')
charges = np.array(dmavals)
print(charges)
np.save('SSI-064SER-171PRO-1-dimer.npy', np.array(charges))--------------------------------------------------------------------------

*** tstart() called on ds3
*** at Tue Apr 28 08:55:03 2020

   => Loading Basis Set <=

    Name: CC-PVDZ
    Role: ORBITAL
    Keyword: BASIS
    atoms 1, 7-9     entry C          line   138 file /theoryfs2/ds/metcalf/miniconda2/envs/tf2gpu/share/psi4/basis/cc-pvdz.gbs
    atoms 2          entry O          line   198 file /theoryfs2/ds/metcalf/miniconda2/envs/tf2gpu/share/psi4/basis/cc-pvdz.gbs
    atoms 3-6, 10-17 entry H          line    22 file /theoryfs2/ds/metcalf/miniconda2/envs/tf2gpu/share/psi4/basis/cc-pvdz.gbs

         ---------------------------------------------------------
                                   SCF
               by Justin Turney, Rob Parrish, Andy Simmonett
                          and Daniel G. A. Smith
                              RHF Reference
                        1 Threads,    500 MiB Core
         ---------------------------------------------------------

  ==> Geometry <==

    Molecular point group: c1
    Full point group: C1

    Geometry (in Angstrom), charge = 0, multiplicity = 1:

       Center              X                  Y                   Z               Mass
    ------------   -----------------  -----------------  -----------------  -----------------
         C           -2.653394867134    -1.024193489485     0.276047205305    12.000000000000
         O           -1.286394867134    -1.239193489485     0.540047205305    15.994914619570
         H           -1.093394867134    -2.175193489485     0.391047205305     1.007825032230
         H           -3.234394867134    -1.740193489485     0.857047205305     1.007825032230
         H           -2.844394867134    -1.203193489485    -0.779952794695     1.007825032230
         H           -2.962314867134    -0.006913489485     0.558385205305     1.007825032230
         C            1.085605132866     0.589806510515     0.195047205305    12.000000000000
         C            2.363605132866     0.100806510515    -0.418952794695    12.000000000000
         C            0.796605132866     1.831806510515    -0.601952794695    12.000000000000
         H            1.101605132866     0.807806510515     1.241047205305     1.007825032230
         H            0.395605132866    -0.125193489485    -0.136952794695     1.007825032230
         H            3.189605132866     0.710806510515    -0.095952794695     1.007825032230
         H            2.530605132866    -0.956193489485    -0.227952794695     1.007825032230
         H           -0.266394867134     2.016806510515    -0.506952794695     1.007825032230
         H            2.183565132866     0.236566510515    -1.495592794695     1.007825032230
         H            1.124325132866     1.550686510515    -1.613670794695     1.007825032230
         H            1.330925132866     2.711987510515    -0.214932794695     1.007825032230

  Running in c1 symmetry.

  Rotational constants: A =      0.25743  B =      0.05144  C =      0.04528 [cm^-1]
  Rotational constants: A =   7717.62710  B =   1542.17683  C =   1357.49867 [MHz]
  Nuclear repulsion =  186.107080484680552

  Charge       = 0
  Multiplicity = 1
  Electrons    = 44
  Nalpha       = 22
  Nbeta        = 22

  ==> Algorithm <==

  SCF Algorithm Type is PK.
  DIIS enabled.
  MOM disabled.
  Fractional occupation disabled.
  Guess Type is SAD.
  Energy threshold   = 1.00e-06
  Density threshold  = 1.00e-10
  Integral threshold = 0.00e+00

  ==> Primary Basis <==

  Basis Set: CC-PVDZ
    Blend: CC-PVDZ
    Number of shells: 66
    Number of basis function: 130
    Number of Cartesian functions: 135
    Spherical Harmonics?: true
    Max angular momentum: 2

  ==> Pre-Iterations <==

   -------------------------------------------------------
    Irrep   Nso     Nmo     Nalpha   Nbeta   Ndocc  Nsocc
   -------------------------------------------------------
     A        130     130       0       0       0       0
   -------------------------------------------------------
    Total     130     130      22      22      22       0
   -------------------------------------------------------

  ==> Integral Setup <==

  Using integral reordering PK algorithm.
  Sizing the integral batches needed.
  Building batch lookup table.
   Calculation information:
      Number of atoms:                  17
      Number of AO shells:              66
      Number of primitives:            170
      Number of atomic orbitals:       135
      Number of basis functions:       130

      Integral cutoff                 1.00e-12
      Number of threads:                 1

	Batch   1 pq = [       0,    8515] index = [             0,36256870] size =     36256870
  Task number: 4
  Buffer size: 11059200
  Buffer per thread: 2
  We computed 2114245 shell quartets total.
  Whereas there are 2445366 unique shell quartets.

  ==> DiskJK: Disk-Based J/K Matrices <==

    J tasked:                  Yes
    K tasked:                  Yes
    wK tasked:                  No
    Memory [MiB]:              375
    Schwarz Cutoff:          1E-12

    OpenMP threads:              1

  Minimum eigenvalue in the overlap matrix is 4.3746772237E-03.
  Using Symmetric Orthogonalization.

  SCF Guess: Superposition of Atomic Densities via on-the-fly atomic UHF.

  ==> Iterations <==

                        Total Energy        Delta E     RMS |[F,P]|

   @RHF iter SAD:  -232.40532197362472   -2.32405e+02   0.00000e+00
   @RHF iter   1:  -233.10106156842406   -6.95740e-01   4.28341e-03 DIIS
   @RHF iter   2:  -233.25336593114270   -1.52304e-01   2.02803e-03 DIIS
   @RHF iter   3:  -233.28475553797637   -3.13896e-02   3.87678e-04 DIIS
   @RHF iter   4:  -233.28683024787739   -2.07471e-03   1.11261e-04 DIIS
   @RHF iter   5:  -233.28694584969671   -1.15602e-04   2.61282e-05 DIIS
   @RHF iter   6:  -233.28695439444101   -8.54474e-06   5.71480e-06 DIIS
   @RHF iter   7:  -233.28695496357338   -5.69132e-07   1.39697e-06 DIIS
   @RHF iter   8:  -233.28695499781426   -3.42409e-08   4.56159e-07 DIIS
   @RHF iter   9:  -233.28695500191481   -4.10054e-09   1.02067e-07 DIIS
   @RHF iter  10:  -233.28695500216600   -2.51191e-10   2.26033e-08 DIIS
   @RHF iter  11:  -233.28695500217708   -1.10845e-11   5.30068e-09 DIIS
   @RHF iter  12:  -233.28695500217805   -9.66338e-13   1.53733e-09 DIIS
   @RHF iter  13:  -233.28695500217833   -2.84217e-13   4.55244e-10 DIIS
   @RHF iter  14:  -233.28695500217862   -2.84217e-13   1.29064e-10 DIIS
   @RHF iter  15:  -233.28695500217833    2.84217e-13   5.08453e-11 DIIS
  Energy and wave function converged.

  ==> Post-Iterations <==

    Orbital Energies [Eh]
    ---------------------

    Doubly Occupied:

       1A    -20.555997     2A    -11.279457     3A    -11.195960
       4A    -11.195290     5A    -11.180007     6A     -1.360546
       7A     -1.061581     8A     -0.925661     9A     -0.900728
      10A     -0.781766    11A     -0.689554    12A     -0.640121
      13A     -0.624248    14A     -0.605722    15A     -0.591453
      16A     -0.530390    17A     -0.504021    18A     -0.496668
      19A     -0.477610    20A     -0.454662    21A     -0.438884
      22A     -0.429035

    Virtual:

      23A      0.169856    24A      0.205711    25A      0.206966
      26A      0.239545    27A      0.249330    28A      0.255294
      29A      0.261171    30A      0.281005    31A      0.291131
      32A      0.307621    33A      0.337984    34A      0.352435
      35A      0.367753    36A      0.385429    37A      0.444068
      38A      0.596928    39A      0.606399    40A      0.623379
      41A      0.635564    42A      0.641312    43A      0.666395
      44A      0.678501    45A      0.735713    46A      0.799731
      47A      0.817985    48A      0.825022    49A      0.858712
      50A      0.867754    51A      0.885188    52A      0.893046
      53A      0.903985    54A      0.904757    55A      0.921256
      56A      0.923471    57A      0.938248    58A      0.953782
      59A      0.968150    60A      0.978963    61A      1.039118
      62A      1.112771    63A      1.139071    64A      1.150599
      65A      1.154602    66A      1.178993    67A      1.232988
      68A      1.304472    69A      1.410600    70A      1.425546
      71A      1.449368    72A      1.489700    73A      1.536099
      74A      1.621272    75A      1.641147    76A      1.649177
      77A      1.665982    78A      1.669537    79A      1.677415
      80A      1.754748    81A      1.772560    82A      1.826539
      83A      1.856831    84A      1.876721    85A      1.895619
      86A      1.896574    87A      1.912298    88A      1.918418
      89A      1.953367    90A      1.960667    91A      1.966371
      92A      1.989170    93A      2.031360    94A      2.043256
      95A      2.081452    96A      2.088515    97A      2.116188
      98A      2.163942    99A      2.177055   100A      2.190693
     101A      2.213813   102A      2.257506   103A      2.298338
     104A      2.321862   105A      2.351164   106A      2.366457
     107A      2.374649   108A      2.480646   109A      2.510140
     110A      2.527629   111A      2.565577   112A      2.578425
     113A      2.671291   114A      2.723667   115A      2.742151
     116A      2.770376   117A      2.773547   118A      2.786553
     119A      2.815398   120A      2.824229   121A      2.881588
     122A      2.914893   123A      2.983531   124A      3.098764
     125A      3.117864   126A      3.302087   127A      3.383445
     128A      3.468814   129A      3.595149   130A      4.088183

    Final Occupation by Irrep:
              A
    DOCC [    22 ]

  @RHF Final Energy:  -233.28695500217833

   => Energetics <=

    Nuclear Repulsion Energy =            186.1070804846805515
    One-Electron Energy =                -684.9493480013102271
    Two-Electron Energy =                 265.5553125144513729
    Total Energy =                       -233.2869550021783311

Computation Completed

Properties will be evaluated at   0.000000,   0.000000,   0.000000 [a0]

Properties computed using the SCF density matrix

  Nuclear Dipole Moment: [e a0]
     X:     1.3582      Y:     1.7075      Z:    -1.8952

  Electronic Dipole Moment: [e a0]
     X:    -2.0598      Y:    -2.3641      Z:     1.8005

  Dipole Moment: [e a0]
     X:    -0.7016      Y:    -0.6565      Z:    -0.0948     Total:     0.9656

  Dipole Moment: [D]
     X:    -1.7833      Y:    -1.6688      Z:    -0.2409     Total:     2.4542

*** tstop() called on ds3 at Tue Apr 28 08:55:21 2020
Module time:
	user time   =      13.08 seconds =       0.22 minutes
	system time =       5.72 seconds =       0.10 minutes
	total time  =         18 seconds =       0.30 minutes
Total time:
	user time   =      13.08 seconds =       0.22 minutes
	system time =       5.72 seconds =       0.10 minutes
	total time  =         18 seconds =       0.30 minutes
                                     G D M A

                                 by Anthony Stone

                           version 2.2.06, 22 June 2011

               Distributed Multipoles from Gaussian wavefunctions

Starting at 8:55:21 on 28 Apr 2020

Using SCF density matrix from file ./SSI/SSI-064SER-171PRO-1-dimer.test.1269.fchk

                         Distributed Multipole Analysis

Standard DMA

Positions and radii in angstrom
Multipole moments in atomic units, ea_0^k for rank k

C          x = -2.653395  y = -1.024193  z =  0.276047 angstrom
           Maximum rank =  0   Radius =  0.650 angstrom
                   Q00  =  -0.043289

O          x = -1.286395  y = -1.239193  z =  0.540047 angstrom
           Maximum rank =  0   Radius =  0.650 angstrom
                   Q00  =  -0.563590

H          x = -1.093395  y = -2.175193  z =  0.391047 angstrom
           Maximum rank =  0   Radius =  0.325 angstrom
                   Q00  =   0.380863

H          x = -3.234395  y = -1.740193  z =  0.857047 angstrom
           Maximum rank =  0   Radius =  0.325 angstrom
                   Q00  =   0.067507

H          x = -2.844395  y = -1.203193  z = -0.779953 angstrom
           Maximum rank =  0   Radius =  0.325 angstrom
                   Q00  =   0.066963

H          x = -2.962315  y = -0.006913  z =  0.558385 angstrom
           Maximum rank =  0   Radius =  0.325 angstrom
                   Q00  =   0.116552

C          x =  1.085605  y =  0.589807  z =  0.195047 angstrom
           Maximum rank =  0   Radius =  0.650 angstrom
                   Q00  =  -0.054645

C          x =  2.363605  y =  0.100807  z = -0.418953 angstrom
           Maximum rank =  0   Radius =  0.650 angstrom
                   Q00  =  -0.203431

C          x =  0.796605  y =  1.831807  z = -0.601953 angstrom
           Maximum rank =  0   Radius =  0.650 angstrom
                   Q00  =  -0.210135

H          x =  1.101605  y =  0.807807  z =  1.241047 angstrom
           Maximum rank =  0   Radius =  0.325 angstrom
                   Q00  =   0.040203

H          x =  0.395605  y = -0.125193  z = -0.136953 angstrom
           Maximum rank =  0   Radius =  0.325 angstrom
                   Q00  =   0.052665

H          x =  3.189605  y =  0.710807  z = -0.095953 angstrom
           Maximum rank =  0   Radius =  0.325 angstrom
                   Q00  =   0.067921

H          x =  2.530605  y = -0.956193  z = -0.227953 angstrom
           Maximum rank =  0   Radius =  0.325 angstrom
                   Q00  =   0.065304

H          x = -0.266395  y =  2.016807  z = -0.506953 angstrom
           Maximum rank =  0   Radius =  0.325 angstrom
                   Q00  =   0.054143

H          x =  2.183565  y =  0.236567  z = -1.495593 angstrom
           Maximum rank =  0   Radius =  0.325 angstrom
                   Q00  =   0.040022

H          x =  1.124325  y =  1.550687  z = -1.613671 angstrom
           Maximum rank =  0   Radius =  0.325 angstrom
                   Q00  =   0.056141

H          x =  1.330925  y =  2.711988  z = -0.214933 angstrom
           Maximum rank =  0   Radius =  0.325 angstrom
                   Q00  =   0.066805

Total multipoles referred to origin at
           x =   0.000000,  y =    0.000000,  z =    0.000000 angstrom
                   Q00  =  -0.000000

Finished at 8:55:21 on 28 Apr 2020

  DMA results are available in the Python driver through the
	  variable('DMA DISTRIBUTED MULTIPOLES')
  and
	  variable('DMA TOTAL MULTIPOLES')
  commands.

    Psi4 stopped on: Tuesday, 28 April 2020 08:55AM
    Psi4 wall time for execution: 0:00:18.36

*** Psi4 exiting successfully. Buy a developer a beer!
