                               Psi4 1.3.2 release

  ==> Input File <==

--------------------------------------------------------------------------
import numpy as np
set {scf_type pk
basis cc-pvdz
d_convergence 10
gdma_switch   0
gdma_limit    0
gdma_origin   [ 0.0,  0.0,  0.0 ]
}
molecule test {
    units Angstrom
    0 1
    --
    0 1
    C                0.619557625825978     1.102820168577645    -2.455605008309168
    N               -0.470442374174022     0.253820168577645    -1.891605008309168
    H               -1.103442374174022    -0.099179831422355    -2.595605008309168
    H               -0.067442374174022    -0.523179831422355    -1.375605008309168
    H               -0.996442374174022     0.731820168577645    -1.162605008309168
    H                1.211557625825978     0.505820168577645    -3.156605008309168
    H                1.292557625825978     1.385820168577645    -1.639605008309168
    H                0.318597625825978     2.027080168577645    -2.970545008309168
    C               -0.055442374174022    -0.516179831422355     2.605394991690832
    C               -0.014442374174022    -0.340179831422355     1.089394991690832
    O                1.043557625825978    -0.562179831422355     0.459394991690832
    O               -1.067442374174022     0.006820168577645     0.515394991690832
    H               -0.701442374174022    -1.366179831422355     2.830394991690832
    H               -0.508442374174022     0.370820168577645     3.051394991690832
    H                0.925197625825978    -0.680089831422355     3.076014991690831

}
e, wfn = energy('scf', return_wfn=True)
gdma(wfn)
dmavals = variable('DMA DISTRIBUTED MULTIPOLES')
charges = np.array(dmavals)
print(charges)
np.save('SSI-014LYS-023GLU-1-dimer.npy', np.array(charges))--------------------------------------------------------------------------

*** tstart() called on ds3
*** at Mon Apr 27 13:27:17 2020

   => Loading Basis Set <=

    Name: CC-PVDZ
    Role: ORBITAL
    Keyword: BASIS
    atoms 1, 9-10    entry C          line   138 file /theoryfs2/ds/metcalf/miniconda2/envs/tf2gpu/share/psi4/basis/cc-pvdz.gbs
    atoms 2          entry N          line   168 file /theoryfs2/ds/metcalf/miniconda2/envs/tf2gpu/share/psi4/basis/cc-pvdz.gbs
    atoms 3-8, 13-15 entry H          line    22 file /theoryfs2/ds/metcalf/miniconda2/envs/tf2gpu/share/psi4/basis/cc-pvdz.gbs
    atoms 11-12      entry O          line   198 file /theoryfs2/ds/metcalf/miniconda2/envs/tf2gpu/share/psi4/basis/cc-pvdz.gbs

         ---------------------------------------------------------
                                   SCF
               by Justin Turney, Rob Parrish, Andy Simmonett
                          and Daniel G. A. Smith
                              RHF Reference
                        1 Threads,    500 MiB Core
         ---------------------------------------------------------

  ==> Geometry <==

    Molecular point group: c1
    Full point group: C1

    Geometry (in Angstrom), charge = 0, multiplicity = 1:

       Center              X                  Y                   Z               Mass
    ------------   -----------------  -----------------  -----------------  -----------------
         C            0.619557625826     1.102820168578    -2.455605008309    12.000000000000
         N           -0.470442374174     0.253820168578    -1.891605008309    14.003074004430
         H           -1.103442374174    -0.099179831422    -2.595605008309     1.007825032230
         H           -0.067442374174    -0.523179831422    -1.375605008309     1.007825032230
         H           -0.996442374174     0.731820168578    -1.162605008309     1.007825032230
         H            1.211557625826     0.505820168578    -3.156605008309     1.007825032230
         H            1.292557625826     1.385820168578    -1.639605008309     1.007825032230
         H            0.318597625826     2.027080168578    -2.970545008309     1.007825032230
         C           -0.055442374174    -0.516179831422     2.605394991691    12.000000000000
         C           -0.014442374174    -0.340179831422     1.089394991691    12.000000000000
         O            1.043557625826    -0.562179831422     0.459394991691    15.994914619570
         O           -1.067442374174     0.006820168578     0.515394991691    15.994914619570
         H           -0.701442374174    -1.366179831422     2.830394991691     1.007825032230
         H           -0.508442374174     0.370820168578     3.051394991691     1.007825032230
         H            0.925197625826    -0.680089831422     3.076014991691     1.007825032230

  Running in c1 symmetry.

  Rotational constants: A =      0.27160  B =      0.05276  C =      0.04709 [cm^-1]
  Rotational constants: A =   8142.35556  B =   1581.67509  C =   1411.82517 [MHz]
  Nuclear repulsion =  249.698659363656873

  Charge       = 0
  Multiplicity = 1
  Electrons    = 50
  Nalpha       = 25
  Nbeta        = 25

  ==> Algorithm <==

  SCF Algorithm Type is PK.
  DIIS enabled.
  MOM disabled.
  Fractional occupation disabled.
  Guess Type is SAD.
  Energy threshold   = 1.00e-06
  Density threshold  = 1.00e-10
  Integral threshold = 0.00e+00

  ==> Primary Basis <==

  Basis Set: CC-PVDZ
    Blend: CC-PVDZ
    Number of shells: 63
    Number of basis function: 129
    Number of Cartesian functions: 135
    Spherical Harmonics?: true
    Max angular momentum: 2

  ==> Pre-Iterations <==

   -------------------------------------------------------
    Irrep   Nso     Nmo     Nalpha   Nbeta   Ndocc  Nsocc
   -------------------------------------------------------
     A        129     129       0       0       0       0
   -------------------------------------------------------
    Total     129     129      25      25      25       0
   -------------------------------------------------------

  ==> Integral Setup <==

  Using integral reordering PK algorithm.
  Sizing the integral batches needed.
  Building batch lookup table.
   Calculation information:
      Number of atoms:                  15
      Number of AO shells:              63
      Number of primitives:            177
      Number of atomic orbitals:       135
      Number of basis functions:       129

      Integral cutoff                 1.00e-12
      Number of threads:                 1

	Batch   1 pq = [       0,    8385] index = [             0,35158305] size =     35158305
  Task number: 4
  Buffer size: 11059200
  Buffer per thread: 2
  We computed 1836689 shell quartets total.
  Whereas there are 2033136 unique shell quartets.

  ==> DiskJK: Disk-Based J/K Matrices <==

    J tasked:                  Yes
    K tasked:                  Yes
    wK tasked:                  No
    Memory [MiB]:              375
    Schwarz Cutoff:          1E-12

    OpenMP threads:              1

  Minimum eigenvalue in the overlap matrix is 4.9646982982E-03.
  Using Symmetric Orthogonalization.

  SCF Guess: Superposition of Atomic Densities via on-the-fly atomic UHF.

  ==> Iterations <==

                        Total Energy        Delta E     RMS |[F,P]|

   @RHF iter SAD:  -321.80024812776924   -3.21800e+02   0.00000e+00
   @RHF iter   1:  -322.81369858325422   -1.01345e+00   5.13099e-03 DIIS
   @RHF iter   2:  -322.97611543668734   -1.62417e-01   2.79339e-03 DIIS
   @RHF iter   3:  -323.02224039127037   -4.61250e-02   4.72797e-04 DIIS
   @RHF iter   4:  -323.02465037548455   -2.40998e-03   1.54716e-04 DIIS
   @RHF iter   5:  -323.02491459526368   -2.64220e-04   3.24025e-05 DIIS
   @RHF iter   6:  -323.02492577599099   -1.11807e-05   1.50277e-05 DIIS
   @RHF iter   7:  -323.02492756927671   -1.79329e-06   2.26105e-06 DIIS
   @RHF iter   8:  -323.02492765733291   -8.80562e-08   6.15978e-07 DIIS
   @RHF iter   9:  -323.02492766504741   -7.71450e-09   2.11838e-07 DIIS
   @RHF iter  10:  -323.02492766592826   -8.80846e-10   9.05459e-08 DIIS
   @RHF iter  11:  -323.02492766612181   -1.93552e-10   2.99824e-08 DIIS
   @RHF iter  12:  -323.02492766614768   -2.58638e-11   8.03744e-09 DIIS
   @RHF iter  13:  -323.02492766615006   -2.38742e-12   2.21622e-09 DIIS
   @RHF iter  14:  -323.02492766615006    0.00000e+00   6.71203e-10 DIIS
   @RHF iter  15:  -323.02492766614995    1.13687e-13   1.77398e-10 DIIS
   @RHF iter  16:  -323.02492766615029   -3.41061e-13   7.59606e-11 DIIS
  Energy and wave function converged.

  ==> Post-Iterations <==

    Orbital Energies [Eh]
    ---------------------

    Doubly Occupied:

       1A    -20.440871     2A    -20.440732     3A    -15.696027
       4A    -11.322011     5A    -11.289682     6A    -11.184300
       7A     -1.342352     8A     -1.316092     9A     -1.218140
      10A     -0.991597    11A     -0.935028    12A     -0.792036
      13A     -0.766247    14A     -0.689301    15A     -0.658631
      16A     -0.597693    17A     -0.594359    18A     -0.574078
      19A     -0.561339    20A     -0.555177    21A     -0.494663
      22A     -0.469794    23A     -0.361530    24A     -0.352711
      25A     -0.347362

    Virtual:

      26A      0.131941    27A      0.175572    28A      0.209546
      29A      0.232011    30A      0.243837    31A      0.252912
      32A      0.263062    33A      0.286516    34A      0.301453
      35A      0.318493    36A      0.336292    37A      0.437740
      38A      0.512672    39A      0.543214    40A      0.557411
      41A      0.572063    42A      0.612266    43A      0.688319
      44A      0.689577    45A      0.736066    46A      0.759404
      47A      0.793280    48A      0.805572    49A      0.819900
      50A      0.828879    51A      0.852402    52A      0.869752
      53A      0.891580    54A      0.899971    55A      0.910164
      56A      0.945096    57A      0.960093    58A      0.970814
      59A      0.993508    60A      1.011164    61A      1.076360
      62A      1.105162    63A      1.181136    64A      1.200510
      65A      1.207411    66A      1.222195    67A      1.270159
      68A      1.356183    69A      1.388553    70A      1.425127
      71A      1.464767    72A      1.486663    73A      1.492748
      74A      1.513148    75A      1.564733    76A      1.634569
      77A      1.679764    78A      1.698319    79A      1.720949
      80A      1.762985    81A      1.799912    82A      1.821580
      83A      1.853023    84A      1.868674    85A      1.888656
      86A      1.916429    87A      1.922783    88A      1.950187
      89A      1.979305    90A      2.015056    91A      2.070526
      92A      2.091773    93A      2.125878    94A      2.133076
      95A      2.142454    96A      2.149542    97A      2.189519
      98A      2.203114    99A      2.287521   100A      2.299729
     101A      2.327751   102A      2.417970   103A      2.431770
     104A      2.466647   105A      2.518212   106A      2.561389
     107A      2.585843   108A      2.622302   109A      2.639884
     110A      2.691020   111A      2.702203   112A      2.786142
     113A      2.833903   114A      2.848102   115A      2.923728
     116A      2.950140   117A      2.975723   118A      3.073818
     119A      3.108367   120A      3.137916   121A      3.192932
     122A      3.298823   123A      3.360063   124A      3.462423
     125A      3.608588   126A      3.647654   127A      3.898720
     128A      3.909351   129A      4.044222

    Final Occupation by Irrep:
              A
    DOCC [    25 ]

  @RHF Final Energy:  -323.02492766615029

   => Energetics <=

    Nuclear Repulsion Energy =            249.6986593636568728
    One-Electron Energy =                -937.4636704644381098
    Two-Electron Energy =                 364.7400834346310035
    Total Energy =                       -323.0249276661502904

Computation Completed

Properties will be evaluated at   0.000000,   0.000000,   0.000000 [a0]

Properties computed using the SCF density matrix

  Nuclear Dipole Moment: [e a0]
     X:     0.3488      Y:     2.2022      Z:    -3.6860

  Electronic Dipole Moment: [e a0]
     X:    -0.8272      Y:    -1.3535      Z:     0.7165

  Dipole Moment: [e a0]
     X:    -0.4784      Y:     0.8487      Z:    -2.9695     Total:     3.1253

  Dipole Moment: [D]
     X:    -1.2160      Y:     2.1571      Z:    -7.5478     Total:     7.9436

*** tstop() called on ds3 at Mon Apr 27 13:27:45 2020
Module time:
	user time   =      20.78 seconds =       0.35 minutes
	system time =       7.00 seconds =       0.12 minutes
	total time  =         28 seconds =       0.47 minutes
Total time:
	user time   =      20.78 seconds =       0.35 minutes
	system time =       7.00 seconds =       0.12 minutes
	total time  =         28 seconds =       0.47 minutes
                                     G D M A

                                 by Anthony Stone

                           version 2.2.06, 22 June 2011

               Distributed Multipoles from Gaussian wavefunctions

Starting at 13:27:45 on 27 Apr 2020

Using SCF density matrix from file ./SSI/SSI-014LYS-023GLU-1-dimer.test.6686.fchk

                         Distributed Multipole Analysis

Standard DMA

Positions and radii in angstrom
Multipole moments in atomic units, ea_0^k for rank k

C          x =  0.619558  y =  1.102820  z = -2.455605 angstrom
           Maximum rank =  0   Radius =  0.650 angstrom
                   Q00  =  -0.131331

N          x = -0.470442  y =  0.253820  z = -1.891605 angstrom
           Maximum rank =  0   Radius =  0.650 angstrom
                   Q00  =  -0.140390

H          x = -1.103442  y = -0.099180  z = -2.595605 angstrom
           Maximum rank =  0   Radius =  0.325 angstrom
                   Q00  =   0.198639

H          x = -0.067442  y = -0.523180  z = -1.375605 angstrom
           Maximum rank =  0   Radius =  0.325 angstrom
                   Q00  =   0.282905

H          x = -0.996442  y =  0.731820  z = -1.162605 angstrom
           Maximum rank =  0   Radius =  0.325 angstrom
                   Q00  =   0.290218

H          x =  1.211558  y =  0.505820  z = -3.156605 angstrom
           Maximum rank =  0   Radius =  0.325 angstrom
                   Q00  =   0.123538

H          x =  1.292558  y =  1.385820  z = -1.639605 angstrom
           Maximum rank =  0   Radius =  0.325 angstrom
                   Q00  =   0.160560

H          x =  0.318598  y =  2.027080  z = -2.970545 angstrom
           Maximum rank =  0   Radius =  0.325 angstrom
                   Q00  =   0.123968

C          x = -0.055442  y = -0.516180  z =  2.605395 angstrom
           Maximum rank =  0   Radius =  0.650 angstrom
                   Q00  =  -0.250056

C          x = -0.014442  y = -0.340180  z =  1.089395 angstrom
           Maximum rank =  0   Radius =  0.650 angstrom
                   Q00  =   0.854197

O          x =  1.043558  y = -0.562180  z =  0.459395 angstrom
           Maximum rank =  0   Radius =  0.650 angstrom
                   Q00  =  -0.897464

O          x = -1.067442  y =  0.006820  z =  0.515395 angstrom
           Maximum rank =  0   Radius =  0.650 angstrom
                   Q00  =  -0.897278

H          x = -0.701442  y = -1.366180  z =  2.830395 angstrom
           Maximum rank =  0   Radius =  0.325 angstrom
                   Q00  =   0.102815

H          x = -0.508442  y =  0.370820  z =  3.051395 angstrom
           Maximum rank =  0   Radius =  0.325 angstrom
                   Q00  =   0.093947

H          x =  0.925198  y = -0.680090  z =  3.076015 angstrom
           Maximum rank =  0   Radius =  0.325 angstrom
                   Q00  =   0.085730

Total multipoles referred to origin at
           x =   0.000000,  y =    0.000000,  z =    0.000000 angstrom
                   Q00  =  -0.000000

Finished at 13:27:45 on 27 Apr 2020

  DMA results are available in the Python driver through the
	  variable('DMA DISTRIBUTED MULTIPOLES')
  and
	  variable('DMA TOTAL MULTIPOLES')
  commands.

    Psi4 stopped on: Monday, 27 April 2020 01:27PM
    Psi4 wall time for execution: 0:00:27.35

*** Psi4 exiting successfully. Buy a developer a beer!
