                               Psi4 1.3.2 release

  ==> Input File <==

--------------------------------------------------------------------------
import numpy as np
set {scf_type pk
basis cc-pvdz
d_convergence 10
gdma_switch   0
gdma_limit    0
gdma_origin   [ 0.0,  0.0,  0.0 ]
}
molecule test {
    units Angstrom
    0 1
    --
    0 1
    C                2.650429232871931    -0.785695430321766    -1.720901645994176
    N                1.302429232871931    -0.955695430321766    -1.120901645994176
    H                0.575429232871931    -0.968695430321766    -1.825901645994176
    H                1.240429232871931    -1.824695430321767    -0.603901645994176
    H                1.062429232871931    -0.203695430321766    -0.467901645994176
    H                2.882429232871931    -1.664695430321767    -2.330901645994176
    H                3.413429232871931    -0.719695430321766    -0.937901645994176
    H                2.721179232871931     0.101236569678234    -2.367701645994176
    C               -2.050570767128069     0.543304569678234     1.848098354005824
    C               -0.992570767128069     0.471304569678234     0.719098354005824
    O                0.212429232871931     0.430304569678234     0.944098354005824
    O               -1.365570767128069     0.459304569678234    -0.457901645994176
    H               -2.714570767128069    -0.320695430321766     1.775098354005824
    H               -2.649570767128069     1.436304569678233     1.669098354005824
    H               -1.650440767128069     0.599019569678234     2.871228354005824

}
e, wfn = energy('scf', return_wfn=True)
gdma(wfn)
dmavals = variable('DMA DISTRIBUTED MULTIPOLES')
charges = np.array(dmavals)
print(charges)
np.save('SSI-144LYS-161GLU-1-dimer.npy', np.array(charges))--------------------------------------------------------------------------

*** tstart() called on ds3
*** at Tue Apr 28 07:49:44 2020

   => Loading Basis Set <=

    Name: CC-PVDZ
    Role: ORBITAL
    Keyword: BASIS
    atoms 1, 9-10    entry C          line   138 file /theoryfs2/ds/metcalf/miniconda2/envs/tf2gpu/share/psi4/basis/cc-pvdz.gbs
    atoms 2          entry N          line   168 file /theoryfs2/ds/metcalf/miniconda2/envs/tf2gpu/share/psi4/basis/cc-pvdz.gbs
    atoms 3-8, 13-15 entry H          line    22 file /theoryfs2/ds/metcalf/miniconda2/envs/tf2gpu/share/psi4/basis/cc-pvdz.gbs
    atoms 11-12      entry O          line   198 file /theoryfs2/ds/metcalf/miniconda2/envs/tf2gpu/share/psi4/basis/cc-pvdz.gbs

         ---------------------------------------------------------
                                   SCF
               by Justin Turney, Rob Parrish, Andy Simmonett
                          and Daniel G. A. Smith
                              RHF Reference
                        1 Threads,    500 MiB Core
         ---------------------------------------------------------

  ==> Geometry <==

    Molecular point group: c1
    Full point group: C1

    Geometry (in Angstrom), charge = 0, multiplicity = 1:

       Center              X                  Y                   Z               Mass
    ------------   -----------------  -----------------  -----------------  -----------------
         C            2.650429232872    -0.785695430322    -1.720901645994    12.000000000000
         N            1.302429232872    -0.955695430322    -1.120901645994    14.003074004430
         H            0.575429232872    -0.968695430322    -1.825901645994     1.007825032230
         H            1.240429232872    -1.824695430322    -0.603901645994     1.007825032230
         H            1.062429232872    -0.203695430322    -0.467901645994     1.007825032230
         H            2.882429232872    -1.664695430322    -2.330901645994     1.007825032230
         H            3.413429232872    -0.719695430322    -0.937901645994     1.007825032230
         H            2.721179232872     0.101236569678    -2.367701645994     1.007825032230
         C           -2.050570767128     0.543304569678     1.848098354006    12.000000000000
         C           -0.992570767128     0.471304569678     0.719098354006    12.000000000000
         O            0.212429232872     0.430304569678     0.944098354006    15.994914619570
         O           -1.365570767128     0.459304569678    -0.457901645994    15.994914619570
         H           -2.714570767128    -0.320695430322     1.775098354006     1.007825032230
         H           -2.649570767128     1.436304569678     1.669098354006     1.007825032230
         H           -1.650440767128     0.599019569678     2.871228354006     1.007825032230

  Running in c1 symmetry.

  Rotational constants: A =      0.31936  B =      0.04230  C =      0.03935 [cm^-1]
  Rotational constants: A =   9574.12116  B =   1268.05156  C =   1179.68822 [MHz]
  Nuclear repulsion =  242.224833676056306

  Charge       = 0
  Multiplicity = 1
  Electrons    = 50
  Nalpha       = 25
  Nbeta        = 25

  ==> Algorithm <==

  SCF Algorithm Type is PK.
  DIIS enabled.
  MOM disabled.
  Fractional occupation disabled.
  Guess Type is SAD.
  Energy threshold   = 1.00e-06
  Density threshold  = 1.00e-10
  Integral threshold = 0.00e+00

  ==> Primary Basis <==

  Basis Set: CC-PVDZ
    Blend: CC-PVDZ
    Number of shells: 63
    Number of basis function: 129
    Number of Cartesian functions: 135
    Spherical Harmonics?: true
    Max angular momentum: 2

  ==> Pre-Iterations <==

   -------------------------------------------------------
    Irrep   Nso     Nmo     Nalpha   Nbeta   Ndocc  Nsocc
   -------------------------------------------------------
     A        129     129       0       0       0       0
   -------------------------------------------------------
    Total     129     129      25      25      25       0
   -------------------------------------------------------

  ==> Integral Setup <==

  Using integral reordering PK algorithm.
  Sizing the integral batches needed.
  Building batch lookup table.
   Calculation information:
      Number of atoms:                  15
      Number of AO shells:              63
      Number of primitives:            177
      Number of atomic orbitals:       135
      Number of basis functions:       129

      Integral cutoff                 1.00e-12
      Number of threads:                 1

	Batch   1 pq = [       0,    8385] index = [             0,35158305] size =     35158305
  Task number: 4
  Buffer size: 11059200
  Buffer per thread: 2
  We computed 1700359 shell quartets total.
  Whereas there are 2033136 unique shell quartets.

  ==> DiskJK: Disk-Based J/K Matrices <==

    J tasked:                  Yes
    K tasked:                  Yes
    wK tasked:                  No
    Memory [MiB]:              375
    Schwarz Cutoff:          1E-12

    OpenMP threads:              1

  Minimum eigenvalue in the overlap matrix is 5.4202414388E-03.
  Using Symmetric Orthogonalization.

  SCF Guess: Superposition of Atomic Densities via on-the-fly atomic UHF.

  ==> Iterations <==

                        Total Energy        Delta E     RMS |[F,P]|

   @RHF iter SAD:  -321.81085191740760   -3.21811e+02   0.00000e+00
   @RHF iter   1:  -322.80204509354337   -9.91193e-01   5.17933e-03 DIIS
   @RHF iter   2:  -322.96797588220363   -1.65931e-01   2.81368e-03 DIIS
   @RHF iter   3:  -323.01429151754667   -4.63156e-02   4.56534e-04 DIIS
   @RHF iter   4:  -323.01661948928017   -2.32797e-03   1.48255e-04 DIIS
   @RHF iter   5:  -323.01686459739977   -2.45108e-04   2.92178e-05 DIIS
   @RHF iter   6:  -323.01687512364447   -1.05262e-05   1.37029e-05 DIIS
   @RHF iter   7:  -323.01687663257030   -1.50893e-06   2.60406e-06 DIIS
   @RHF iter   8:  -323.01687679462043   -1.62050e-07   1.07469e-06 DIIS
   @RHF iter   9:  -323.01687682532105   -3.07006e-08   3.69342e-07 DIIS
   @RHF iter  10:  -323.01687682908550   -3.76446e-09   1.30394e-07 DIIS
   @RHF iter  11:  -323.01687682943088   -3.45381e-10   3.17349e-08 DIIS
   @RHF iter  12:  -323.01687682945027   -1.93836e-11   7.98176e-09 DIIS
   @RHF iter  13:  -323.01687682945328   -3.01270e-12   2.51769e-09 DIIS
   @RHF iter  14:  -323.01687682945288    3.97904e-13   7.56554e-10 DIIS
   @RHF iter  15:  -323.01687682945322   -3.41061e-13   2.32723e-10 DIIS
   @RHF iter  16:  -323.01687682945220    1.02318e-12   9.83263e-11 DIIS
  Energy and wave function converged.

  ==> Post-Iterations <==

    Orbital Energies [Eh]
    ---------------------

    Doubly Occupied:

       1A    -20.432191     2A    -20.412279     3A    -15.710631
       4A    -11.342205     5A    -11.271991     6A    -11.181404
       7A     -1.343880     8A     -1.330589     9A     -1.203015
      10A     -1.009559    11A     -0.925113    12A     -0.797563
      13A     -0.789912    14A     -0.700492    15A     -0.651428
      16A     -0.617051    17A     -0.611537    18A     -0.570272
      19A     -0.550130    20A     -0.547556    21A     -0.488636
      22A     -0.466948    23A     -0.353751    24A     -0.330108
      25A     -0.328585

    Virtual:

      26A      0.116571    27A      0.164842    28A      0.188035
      29A      0.203867    30A      0.223671    31A      0.242328
      32A      0.276922    33A      0.283076    34A      0.303256
      35A      0.344447    36A      0.352176    37A      0.445156
      38A      0.510645    39A      0.522833    40A      0.528385
      41A      0.567571    42A      0.629445    43A      0.690167
      44A      0.693397    45A      0.702979    46A      0.769816
      47A      0.779430    48A      0.799030    49A      0.800204
      50A      0.816563    51A      0.833160    52A      0.878221
      53A      0.896522    54A      0.910381    55A      0.915456
      56A      0.938281    57A      0.951686    58A      0.980189
      59A      0.994390    60A      1.032295    61A      1.077167
      62A      1.091583    63A      1.132718    64A      1.170129
      65A      1.208467    66A      1.231527    67A      1.313380
      68A      1.365369    69A      1.417831    70A      1.432095
      71A      1.450843    72A      1.462550    73A      1.482430
      74A      1.537112    75A      1.576536    76A      1.601361
      77A      1.605157    78A      1.702435    79A      1.717542
      80A      1.726618    81A      1.761117    82A      1.820181
      83A      1.828848    84A      1.854225    85A      1.874689
      86A      1.888825    87A      1.934416    88A      1.953186
      89A      1.974044    90A      1.990185    91A      2.062232
      92A      2.097358    93A      2.105565    94A      2.113690
      95A      2.119906    96A      2.139499    97A      2.147777
      98A      2.167988    99A      2.269993   100A      2.297888
     101A      2.360853   102A      2.409941   103A      2.437085
     104A      2.470838   105A      2.517064   106A      2.547112
     107A      2.589120   108A      2.623773   109A      2.658414
     110A      2.678515   111A      2.698271   112A      2.790095
     113A      2.834009   114A      2.864145   115A      2.886397
     116A      2.914262   117A      2.924535   118A      3.092661
     119A      3.134543   120A      3.181552   121A      3.217730
     122A      3.264516   123A      3.378709   124A      3.527742
     125A      3.611565   126A      3.654448   127A      3.923022
     128A      3.952469   129A      4.099708

    Final Occupation by Irrep:
              A
    DOCC [    25 ]

  @RHF Final Energy:  -323.01687682945220

   => Energetics <=

    Nuclear Repulsion Energy =            242.2248336760563063
    One-Electron Energy =                -922.5497702046152426
    Two-Electron Energy =                 357.3080596991067637
    Total Energy =                       -323.0168768294522010

Computation Completed

Properties will be evaluated at   0.000000,   0.000000,   0.000000 [a0]

Properties computed using the SCF density matrix

  Nuclear Dipole Moment: [e a0]
     X:     4.5662      Y:    -3.3356      Z:    -2.0745

  Electronic Dipole Moment: [e a0]
     X:    -1.8403      Y:     1.2408      Z:     0.3108

  Dipole Moment: [e a0]
     X:     2.7259      Y:    -2.0948      Z:    -1.7636     Total:     3.8638

  Dipole Moment: [D]
     X:     6.9285      Y:    -5.3243      Z:    -4.4827     Total:     9.8208

*** tstop() called on ds3 at Tue Apr 28 07:50:02 2020
Module time:
	user time   =      12.10 seconds =       0.20 minutes
	system time =       4.80 seconds =       0.08 minutes
	total time  =         18 seconds =       0.30 minutes
Total time:
	user time   =      12.10 seconds =       0.20 minutes
	system time =       4.80 seconds =       0.08 minutes
	total time  =         18 seconds =       0.30 minutes
                                     G D M A

                                 by Anthony Stone

                           version 2.2.06, 22 June 2011

               Distributed Multipoles from Gaussian wavefunctions

Starting at 7:50:2 on 28 Apr 2020

Using SCF density matrix from file ./SSI/SSI-144LYS-161GLU-1-dimer.test.7236.fchk

                         Distributed Multipole Analysis

Standard DMA

Positions and radii in angstrom
Multipole moments in atomic units, ea_0^k for rank k

C          x =  2.650429  y = -0.785695  z = -1.720902 angstrom
           Maximum rank =  0   Radius =  0.650 angstrom
                   Q00  =  -0.144595

N          x =  1.302429  y = -0.955695  z = -1.120902 angstrom
           Maximum rank =  0   Radius =  0.650 angstrom
                   Q00  =  -0.113831

H          x =  0.575429  y = -0.968695  z = -1.825902 angstrom
           Maximum rank =  0   Radius =  0.325 angstrom
                   Q00  =   0.245085

H          x =  1.240429  y = -1.824695  z = -0.603902 angstrom
           Maximum rank =  0   Radius =  0.325 angstrom
                   Q00  =   0.226952

H          x =  1.062429  y = -0.203695  z = -0.467902 angstrom
           Maximum rank =  0   Radius =  0.325 angstrom
                   Q00  =   0.308303

H          x =  2.882429  y = -1.664695  z = -2.330902 angstrom
           Maximum rank =  0   Radius =  0.325 angstrom
                   Q00  =   0.117779

H          x =  3.413429  y = -0.719695  z = -0.937902 angstrom
           Maximum rank =  0   Radius =  0.325 angstrom
                   Q00  =   0.142823

H          x =  2.721179  y =  0.101237  z = -2.367702 angstrom
           Maximum rank =  0   Radius =  0.325 angstrom
                   Q00  =   0.148445

C          x = -2.050571  y =  0.543305  z =  1.848098 angstrom
           Maximum rank =  0   Radius =  0.650 angstrom
                   Q00  =  -0.268117

C          x = -0.992571  y =  0.471305  z =  0.719098 angstrom
           Maximum rank =  0   Radius =  0.650 angstrom
                   Q00  =   0.884342

O          x =  0.212429  y =  0.430305  z =  0.944098 angstrom
           Maximum rank =  0   Radius =  0.650 angstrom
                   Q00  =  -0.907054

O          x = -1.365571  y =  0.459305  z = -0.457902 angstrom
           Maximum rank =  0   Radius =  0.650 angstrom
                   Q00  =  -0.920509

H          x = -2.714571  y = -0.320695  z =  1.775098 angstrom
           Maximum rank =  0   Radius =  0.325 angstrom
                   Q00  =   0.095621

H          x = -2.649571  y =  1.436305  z =  1.669098 angstrom
           Maximum rank =  0   Radius =  0.325 angstrom
                   Q00  =   0.104729

H          x = -1.650441  y =  0.599020  z =  2.871228 angstrom
           Maximum rank =  0   Radius =  0.325 angstrom
                   Q00  =   0.080026

Total multipoles referred to origin at
           x =   0.000000,  y =    0.000000,  z =    0.000000 angstrom
                   Q00  =  -0.000000

Finished at 7:50:2 on 28 Apr 2020

  DMA results are available in the Python driver through the
	  variable('DMA DISTRIBUTED MULTIPOLES')
  and
	  variable('DMA TOTAL MULTIPOLES')
  commands.

    Psi4 stopped on: Tuesday, 28 April 2020 07:50AM
    Psi4 wall time for execution: 0:00:18.70

*** Psi4 exiting successfully. Buy a developer a beer!
