                               Psi4 1.3.2 release

  ==> Input File <==

--------------------------------------------------------------------------
import numpy as np
set {scf_type pk
basis cc-pvdz
d_convergence 10
gdma_switch   0
gdma_limit    0
gdma_origin   [ 0.0,  0.0,  0.0 ]
}
molecule test {
    units Angstrom
    0 1
    --
    0 1
    C               -0.477788024386675     1.685737998807642    -3.312308285398718
    C               -0.251788024386674     1.338737998807642    -1.867308285398718
    O                0.093211975613326     0.207737998807642    -1.548308285398718
    N               -0.451788024386674     2.303737998807642    -0.984308285398718
    H               -1.234788024386674     2.460737998807642    -3.378308285398718
    H               -0.866788024386674     0.803737998807642    -3.820308285398718
    H               -0.337788024386674     2.117737998807642     0.006691714601282
    H               -0.655788024386674     3.242737998807642    -1.307308285398718
    H                0.441691975613326     2.022977998807642    -3.813108285398718
    C               -1.135788024386674    -1.117262001192358     2.098691714601282
    C                0.332211975613325    -1.447262001192358     1.947691714601282
    O                0.923211975613325    -2.092262001192358     2.810691714601282
    N                0.947211975613326    -0.972262001192358     0.873691714601282
    H                1.925211975613325    -1.182262001192358     0.754691714601282
    H                0.428211975613326    -0.513262001192358     0.129691714601282
    H               -1.559788024386674    -0.833262001192358     1.135691714601282
    H               -1.190788024386674    -0.242262001192358     2.745691714601282
    H               -1.709388024386674    -1.944682001192358     2.541791714601282

}
e, wfn = energy('scf', return_wfn=True)
gdma(wfn)
dmavals = variable('DMA DISTRIBUTED MULTIPOLES')
charges = np.array(dmavals)
print(charges)
np.save('SSI-052ASN-061ASN-1-dimer.npy', np.array(charges))--------------------------------------------------------------------------

*** tstart() called on ds3
*** at Mon Apr 27 16:36:18 2020

   => Loading Basis Set <=

    Name: CC-PVDZ
    Role: ORBITAL
    Keyword: BASIS
    atoms 1-2, 10-11 entry C          line   138 file /theoryfs2/ds/metcalf/miniconda2/envs/tf2gpu/share/psi4/basis/cc-pvdz.gbs
    atoms 3, 12      entry O          line   198 file /theoryfs2/ds/metcalf/miniconda2/envs/tf2gpu/share/psi4/basis/cc-pvdz.gbs
    atoms 4, 13      entry N          line   168 file /theoryfs2/ds/metcalf/miniconda2/envs/tf2gpu/share/psi4/basis/cc-pvdz.gbs
    atoms 5-9, 14-18 entry H          line    22 file /theoryfs2/ds/metcalf/miniconda2/envs/tf2gpu/share/psi4/basis/cc-pvdz.gbs

         ---------------------------------------------------------
                                   SCF
               by Justin Turney, Rob Parrish, Andy Simmonett
                          and Daniel G. A. Smith
                              RHF Reference
                        1 Threads,    500 MiB Core
         ---------------------------------------------------------

  ==> Geometry <==

    Molecular point group: c1
    Full point group: C1

    Geometry (in Angstrom), charge = 0, multiplicity = 1:

       Center              X                  Y                   Z               Mass
    ------------   -----------------  -----------------  -----------------  -----------------
         C           -0.477788024387     1.685737998808    -3.312308285399    12.000000000000
         C           -0.251788024387     1.338737998808    -1.867308285399    12.000000000000
         O            0.093211975613     0.207737998808    -1.548308285399    15.994914619570
         N           -0.451788024387     2.303737998808    -0.984308285399    14.003074004430
         H           -1.234788024387     2.460737998808    -3.378308285399     1.007825032230
         H           -0.866788024387     0.803737998808    -3.820308285399     1.007825032230
         H           -0.337788024387     2.117737998808     0.006691714601     1.007825032230
         H           -0.655788024387     3.242737998808    -1.307308285399     1.007825032230
         H            0.441691975613     2.022977998808    -3.813108285399     1.007825032230
         C           -1.135788024387    -1.117262001192     2.098691714601    12.000000000000
         C            0.332211975613    -1.447262001192     1.947691714601    12.000000000000
         O            0.923211975613    -2.092262001192     2.810691714601    15.994914619570
         N            0.947211975613    -0.972262001192     0.873691714601    14.003074004430
         H            1.925211975613    -1.182262001192     0.754691714601     1.007825032230
         H            0.428211975613    -0.513262001192     0.129691714601     1.007825032230
         H           -1.559788024387    -0.833262001192     1.135691714601     1.007825032230
         H           -1.190788024387    -0.242262001192     2.745691714601     1.007825032230
         H           -1.709388024387    -1.944682001192     2.541791714601     1.007825032230

  Running in c1 symmetry.

  Rotational constants: A =      0.16412  B =      0.02111  C =      0.02015 [cm^-1]
  Rotational constants: A =   4920.06640  B =    632.80816  C =    604.14995 [MHz]
  Nuclear repulsion =  360.958054707941471

  Charge       = 0
  Multiplicity = 1
  Electrons    = 64
  Nalpha       = 32
  Nbeta        = 32

  ==> Algorithm <==

  SCF Algorithm Type is PK.
  DIIS enabled.
  MOM disabled.
  Fractional occupation disabled.
  Guess Type is SAD.
  Energy threshold   = 1.00e-06
  Density threshold  = 1.00e-10
  Integral threshold = 0.00e+00

  ==> Primary Basis <==

  Basis Set: CC-PVDZ
    Blend: CC-PVDZ
    Number of shells: 78
    Number of basis function: 162
    Number of Cartesian functions: 170
    Spherical Harmonics?: true
    Max angular momentum: 2

  ==> Pre-Iterations <==

   -------------------------------------------------------
    Irrep   Nso     Nmo     Nalpha   Nbeta   Ndocc  Nsocc
   -------------------------------------------------------
     A        162     162       0       0       0       0
   -------------------------------------------------------
    Total     162     162      32      32      32       0
   -------------------------------------------------------

  ==> Integral Setup <==

  Using integral reordering PK algorithm.
  Sizing the integral batches needed.
  Building batch lookup table.
   Calculation information:
      Number of atoms:                  18
      Number of AO shells:              78
      Number of primitives:            226
      Number of atomic orbitals:       170
      Number of basis functions:       162

      Integral cutoff                 1.00e-12
      Number of threads:                 1

	Batch   1 pq = [       0,    9405] index = [             0,44231715] size =     44231715
	Batch   2 pq = [    9405,   13203] index = [      44231715,87166206] size =     42934491
  Task number: 8
  Buffer size: 11059200
  Buffer per thread: 2
  We computed 3629736 shell quartets total.
  Whereas there are 4747821 unique shell quartets.

  ==> DiskJK: Disk-Based J/K Matrices <==

    J tasked:                  Yes
    K tasked:                  Yes
    wK tasked:                  No
    Memory [MiB]:              375
    Schwarz Cutoff:          1E-12

    OpenMP threads:              1

  Minimum eigenvalue in the overlap matrix is 4.2785375967E-03.
  Using Symmetric Orthogonalization.

  SCF Guess: Superposition of Atomic Densities via on-the-fly atomic UHF.

  ==> Iterations <==

                        Total Energy        Delta E     RMS |[F,P]|

   @RHF iter SAD:  -414.61623314679008   -4.14616e+02   0.00000e+00
   @RHF iter   1:  -415.71439681683160   -1.09816e+00   4.61199e-03 DIIS
   @RHF iter   2:  -415.92565907902025   -2.11262e-01   2.64571e-03 DIIS
   @RHF iter   3:  -415.99110842298194   -6.54493e-02   5.06998e-04 DIIS
   @RHF iter   4:  -415.99519521415476   -4.08679e-03   1.96073e-04 DIIS
   @RHF iter   5:  -415.99589975735222   -7.04543e-04   3.63773e-05 DIIS
   @RHF iter   6:  -415.99594861282708   -4.88555e-05   1.84849e-05 DIIS
   @RHF iter   7:  -415.99595789509385   -9.28227e-06   6.85218e-06 DIIS
   @RHF iter   8:  -415.99595978211926   -1.88703e-06   2.06008e-06 DIIS
   @RHF iter   9:  -415.99595994769959   -1.65580e-07   7.44244e-07 DIIS
   @RHF iter  10:  -415.99595995852866   -1.08291e-08   2.71487e-07 DIIS
   @RHF iter  11:  -415.99595996029592   -1.76726e-09   4.47907e-08 DIIS
   @RHF iter  12:  -415.99595996036174   -6.58247e-11   1.24571e-08 DIIS
   @RHF iter  13:  -415.99595996036533   -3.58114e-12   4.02380e-09 DIIS
   @RHF iter  14:  -415.99595996036737   -2.04636e-12   1.46641e-09 DIIS
   @RHF iter  15:  -415.99595996036578    1.59162e-12   4.65748e-10 DIIS
   @RHF iter  16:  -415.99595996036720   -1.42109e-12   1.67139e-10 DIIS
   @RHF iter  17:  -415.99595996036686    3.41061e-13   6.65886e-11 DIIS
  Energy and wave function converged.

  ==> Post-Iterations <==

    Orbital Energies [Eh]
    ---------------------

    Doubly Occupied:

       1A    -20.536184     2A    -20.475252     3A    -15.616096
       4A    -15.548151     5A    -11.376464     6A    -11.320381
       7A    -11.260022     8A    -11.225043     9A     -1.404357
      10A     -1.340331    11A     -1.245543    12A     -1.182329
      13A     -1.024266    14A     -0.981076    15A     -0.826500
      16A     -0.769849    17A     -0.751330    18A     -0.711225
      19A     -0.670231    20A     -0.638703    21A     -0.630709
      22A     -0.600600    23A     -0.591731    24A     -0.576645
      25A     -0.548266    26A     -0.542343    27A     -0.540633
      28A     -0.496750    29A     -0.442726    30A     -0.436265
      31A     -0.383763    32A     -0.372180

    Virtual:

      33A      0.143707    34A      0.173215    35A      0.179578
      36A      0.207217    37A      0.221150    38A      0.230146
      39A      0.243865    40A      0.253291    41A      0.265341
      42A      0.267383    43A      0.297210    44A      0.355162
      45A      0.368906    46A      0.415059    47A      0.483844
      48A      0.487372    49A      0.537063    50A      0.594472
      51A      0.625259    52A      0.640415    53A      0.645917
      54A      0.667202    55A      0.681788    56A      0.696048
      57A      0.718409    58A      0.723638    59A      0.729327
      60A      0.746606    61A      0.762442    62A      0.779091
      63A      0.816708    64A      0.841515    65A      0.859832
      66A      0.872272    67A      0.879890    68A      0.892040
      69A      0.905704    70A      0.925582    71A      0.941806
      72A      0.960587    73A      0.983052    74A      0.991049
      75A      1.028171    76A      1.034782    77A      1.057837
      78A      1.101982    79A      1.105779    80A      1.140956
      81A      1.183747    82A      1.210570    83A      1.300003
      84A      1.321554    85A      1.362781    86A      1.370953
      87A      1.383082    88A      1.395844    89A      1.406384
      90A      1.411973    91A      1.427028    92A      1.457462
      93A      1.471483    94A      1.493649    95A      1.518553
      96A      1.585414    97A      1.611869    98A      1.637432
      99A      1.669791   100A      1.676843   101A      1.717741
     102A      1.747927   103A      1.801610   104A      1.834060
     105A      1.847661   106A      1.868445   107A      1.880786
     108A      1.881007   109A      1.900656   110A      1.904354
     111A      1.928796   112A      1.939388   113A      1.942697
     114A      1.962088   115A      1.996736   116A      2.012569
     117A      2.020363   118A      2.057060   119A      2.087923
     120A      2.111124   121A      2.145415   122A      2.192534
     123A      2.239742   124A      2.254415   125A      2.287806
     126A      2.312325   127A      2.373805   128A      2.421520
     129A      2.444177   130A      2.461896   131A      2.483353
     132A      2.502305   133A      2.519849   134A      2.560008
     135A      2.592161   136A      2.597399   137A      2.654984
     138A      2.675223   139A      2.725377   140A      2.733696
     141A      2.759656   142A      2.780970   143A      2.782586
     144A      2.825111   145A      2.845743   146A      2.878487
     147A      2.954705   148A      3.014268   149A      3.069434
     150A      3.107661   151A      3.124285   152A      3.160457
     153A      3.236651   154A      3.374499   155A      3.480014
     156A      3.511347   157A      3.525974   158A      3.581436
     159A      3.840908   160A      3.891732   161A      3.928547
     162A      3.938387

    Final Occupation by Irrep:
              A
    DOCC [    32 ]

  @RHF Final Energy:  -415.99595996036686

   => Energetics <=

    Nuclear Repulsion Energy =            360.9580547079414714
    One-Electron Energy =               -1283.7761368255405614
    Two-Electron Energy =                 506.8221221572321724
    Total Energy =                       -415.9959599603668607

Computation Completed

Properties will be evaluated at   0.000000,   0.000000,   0.000000 [a0]

Properties computed using the SCF density matrix

  Nuclear Dipole Moment: [e a0]
     X:    -4.4589      Y:     5.5483      Z:    -4.6854

  Electronic Dipole Moment: [e a0]
     X:     3.4278      Y:    -2.7370      Z:     2.7561

  Dipole Moment: [e a0]
     X:    -1.0311      Y:     2.8113      Z:    -1.9294     Total:     3.5622

  Dipole Moment: [D]
     X:    -2.6208      Y:     7.1456      Z:    -4.9039     Total:     9.0541

*** tstop() called on ds3 at Mon Apr 27 16:37:11 2020
Module time:
	user time   =      36.19 seconds =       0.60 minutes
	system time =      18.75 seconds =       0.31 minutes
	total time  =         53 seconds =       0.88 minutes
Total time:
	user time   =      36.19 seconds =       0.60 minutes
	system time =      18.75 seconds =       0.31 minutes
	total time  =         53 seconds =       0.88 minutes
                                     G D M A

                                 by Anthony Stone

                           version 2.2.06, 22 June 2011

               Distributed Multipoles from Gaussian wavefunctions

Starting at 16:37:11 on 27 Apr 2020

Using SCF density matrix from file ./SSI/SSI-052ASN-061ASN-1-dimer.test.27378.fchk

                         Distributed Multipole Analysis

Standard DMA

Positions and radii in angstrom
Multipole moments in atomic units, ea_0^k for rank k

C          x = -0.477788  y =  1.685738  z = -3.312308 angstrom
           Maximum rank =  0   Radius =  0.650 angstrom
                   Q00  =  -0.255862

C          x = -0.251788  y =  1.338738  z = -1.867308 angstrom
           Maximum rank =  0   Radius =  0.650 angstrom
                   Q00  =   0.822120

O          x =  0.093212  y =  0.207738  z = -1.548308 angstrom
           Maximum rank =  0   Radius =  0.650 angstrom
                   Q00  =  -0.799948

N          x = -0.451788  y =  2.303738  z = -0.984308 angstrom
           Maximum rank =  0   Radius =  0.650 angstrom
                   Q00  =  -0.538249

H          x = -1.234788  y =  2.460738  z = -3.378308 angstrom
           Maximum rank =  0   Radius =  0.325 angstrom
                   Q00  =   0.083052

H          x = -0.866788  y =  0.803738  z = -3.820308 angstrom
           Maximum rank =  0   Radius =  0.325 angstrom
                   Q00  =   0.137125

H          x = -0.337788  y =  2.117738  z =  0.006692 angstrom
           Maximum rank =  0   Radius =  0.325 angstrom
                   Q00  =   0.230008

H          x = -0.655788  y =  3.242738  z = -1.307308 angstrom
           Maximum rank =  0   Radius =  0.325 angstrom
                   Q00  =   0.215019

H          x =  0.441692  y =  2.022978  z = -3.813108 angstrom
           Maximum rank =  0   Radius =  0.325 angstrom
                   Q00  =   0.136004

C          x = -1.135788  y = -1.117262  z =  2.098692 angstrom
           Maximum rank =  0   Radius =  0.650 angstrom
                   Q00  =  -0.262932

C          x =  0.332212  y = -1.447262  z =  1.947692 angstrom
           Maximum rank =  0   Radius =  0.650 angstrom
                   Q00  =   0.827782

O          x =  0.923212  y = -2.092262  z =  2.810692 angstrom
           Maximum rank =  0   Radius =  0.650 angstrom
                   Q00  =  -0.821752

N          x =  0.947212  y = -0.972262  z =  0.873692 angstrom
           Maximum rank =  0   Radius =  0.650 angstrom
                   Q00  =  -0.562458

H          x =  1.925212  y = -1.182262  z =  0.754692 angstrom
           Maximum rank =  0   Radius =  0.325 angstrom
                   Q00  =   0.206027

H          x =  0.428212  y = -0.513262  z =  0.129692 angstrom
           Maximum rank =  0   Radius =  0.325 angstrom
                   Q00  =   0.259561

H          x = -1.559788  y = -0.833262  z =  1.135692 angstrom
           Maximum rank =  0   Radius =  0.325 angstrom
                   Q00  =   0.080281

H          x = -1.190788  y = -0.242262  z =  2.745692 angstrom
           Maximum rank =  0   Radius =  0.325 angstrom
                   Q00  =   0.117093

H          x = -1.709388  y = -1.944682  z =  2.541792 angstrom
           Maximum rank =  0   Radius =  0.325 angstrom
                   Q00  =   0.127129

Total multipoles referred to origin at
           x =   0.000000,  y =    0.000000,  z =    0.000000 angstrom
                   Q00  =  -0.000000

Finished at 16:37:11 on 27 Apr 2020

  DMA results are available in the Python driver through the
	  variable('DMA DISTRIBUTED MULTIPOLES')
  and
	  variable('DMA TOTAL MULTIPOLES')
  commands.

    Psi4 stopped on: Monday, 27 April 2020 04:37PM
    Psi4 wall time for execution: 0:00:53.29

*** Psi4 exiting successfully. Buy a developer a beer!
