                               Psi4 1.3.2 release

  ==> Input File <==

--------------------------------------------------------------------------
import numpy as np
set {scf_type pk
basis cc-pvdz
d_convergence 10
gdma_switch   0
gdma_limit    0
gdma_origin   [ 0.0,  0.0,  0.0 ]
}
molecule test {
    units Angstrom
    0 1
    --
    0 1
    C               -2.000607321093821    -1.253020236741533     0.966172625773211
    C               -1.208607321093821    -2.461020236741533     0.481172625773211
    H               -2.730607321093820    -1.558020236741533     1.717172625773211
    H               -1.320607321093821    -0.546020236741533     1.426172625773211
    H               -2.507607321093821    -0.778020236741533     0.126172625773211
    H               -0.653607321093821    -2.160020236741533    -0.407827374226789
    H               -1.892837321093821    -3.282670236741533     0.222872625773211
    H               -0.483686321093821    -2.778714236741533     1.245082625773211
    C                1.030392678906179     0.731979763258467    -0.366827374226789
    C                0.577392678906179     1.313979763258467    -1.704827374226789
    C                1.669392678906179     1.719979763258467     0.601172625773211
    H                0.161392678906179     0.295979763258467     0.110172625773211
    H                1.737392678906179    -0.073020236741533    -0.571827374226789
    H               -0.169607321093821     2.076979763258467    -1.528827374226789
    H                2.597392678906179     2.105979763258467     0.173172625773211
    H                0.992392678906179     2.555979763258467     0.763172625773211
    H                0.139522678906179     0.522328763258467    -2.330577374226789
    H                1.431206678906179     1.759479763258467    -2.236367374226789
    H                1.890031678906179     1.241807763258467     1.566922625773211

}
e, wfn = energy('scf', return_wfn=True)
gdma(wfn)
dmavals = variable('DMA DISTRIBUTED MULTIPOLES')
charges = np.array(dmavals)
print(charges)
np.save('SSI-029LEU-040GLU-1-dimer.npy', np.array(charges))--------------------------------------------------------------------------

*** tstart() called on ds3
*** at Sun Apr 26 22:12:33 2020

   => Loading Basis Set <=

    Name: CC-PVDZ
    Role: ORBITAL
    Keyword: BASIS
    atoms 1-2, 9-11  entry C          line   138 file /theoryfs2/ds/metcalf/miniconda2/envs/tf2gpu/share/psi4/basis/cc-pvdz.gbs
    atoms 3-8, 12-19 entry H          line    22 file /theoryfs2/ds/metcalf/miniconda2/envs/tf2gpu/share/psi4/basis/cc-pvdz.gbs

         ---------------------------------------------------------
                                   SCF
               by Justin Turney, Rob Parrish, Andy Simmonett
                          and Daniel G. A. Smith
                              RHF Reference
                        1 Threads,    500 MiB Core
         ---------------------------------------------------------

  ==> Geometry <==

    Molecular point group: c1
    Full point group: C1

    Geometry (in Angstrom), charge = 0, multiplicity = 1:

       Center              X                  Y                   Z               Mass
    ------------   -----------------  -----------------  -----------------  -----------------
         C           -2.000607321094    -1.253020236742     0.966172625773    12.000000000000
         C           -1.208607321094    -2.461020236742     0.481172625773    12.000000000000
         H           -2.730607321094    -1.558020236742     1.717172625773     1.007825032230
         H           -1.320607321094    -0.546020236742     1.426172625773     1.007825032230
         H           -2.507607321094    -0.778020236742     0.126172625773     1.007825032230
         H           -0.653607321094    -2.160020236742    -0.407827374227     1.007825032230
         H           -1.892837321094    -3.282670236742     0.222872625773     1.007825032230
         H           -0.483686321094    -2.778714236742     1.245082625773     1.007825032230
         C            1.030392678906     0.731979763258    -0.366827374227    12.000000000000
         C            0.577392678906     1.313979763258    -1.704827374227    12.000000000000
         C            1.669392678906     1.719979763258     0.601172625773    12.000000000000
         H            0.161392678906     0.295979763258     0.110172625773     1.007825032230
         H            1.737392678906    -0.073020236742    -0.571827374227     1.007825032230
         H           -0.169607321094     2.076979763258    -1.528827374227     1.007825032230
         H            2.597392678906     2.105979763258     0.173172625773     1.007825032230
         H            0.992392678906     2.555979763258     0.763172625773     1.007825032230
         H            0.139522678906     0.522328763258    -2.330577374227     1.007825032230
         H            1.431206678906     1.759479763258    -2.236367374227     1.007825032230
         H            1.890031678906     1.241807763258     1.566922625773     1.007825032230

  Running in c1 symmetry.

  Rotational constants: A =      0.19446  B =      0.04534  C =      0.04168 [cm^-1]
  Rotational constants: A =   5829.87161  B =   1359.36235  C =   1249.61780 [MHz]
  Nuclear repulsion =  180.365648002345864

  Charge       = 0
  Multiplicity = 1
  Electrons    = 44
  Nalpha       = 22
  Nbeta        = 22

  ==> Algorithm <==

  SCF Algorithm Type is PK.
  DIIS enabled.
  MOM disabled.
  Fractional occupation disabled.
  Guess Type is SAD.
  Energy threshold   = 1.00e-06
  Density threshold  = 1.00e-10
  Integral threshold = 0.00e+00

  ==> Primary Basis <==

  Basis Set: CC-PVDZ
    Blend: CC-PVDZ
    Number of shells: 72
    Number of basis function: 140
    Number of Cartesian functions: 145
    Spherical Harmonics?: true
    Max angular momentum: 2

  ==> Pre-Iterations <==

   -------------------------------------------------------
    Irrep   Nso     Nmo     Nalpha   Nbeta   Ndocc  Nsocc
   -------------------------------------------------------
     A        140     140       0       0       0       0
   -------------------------------------------------------
    Total     140     140      22      22      22       0
   -------------------------------------------------------

  ==> Integral Setup <==

  Using integral reordering PK algorithm.
  Sizing the integral batches needed.
  Building batch lookup table.
   Calculation information:
      Number of atoms:                  19
      Number of AO shells:              72
      Number of primitives:            180
      Number of atomic orbitals:       145
      Number of basis functions:       140

      Integral cutoff                 1.00e-12
      Number of threads:                 1

	Batch   1 pq = [       0,    9405] index = [             0,44231715] size =     44231715
	Batch   2 pq = [    9405,    9870] index = [      44231715,48713385] size =      4481670
  Task number: 5
  Buffer size: 11059200
  Buffer per thread: 2
  We computed 3032693 shell quartets total.
  Whereas there are 3454506 unique shell quartets.

  ==> DiskJK: Disk-Based J/K Matrices <==

    J tasked:                  Yes
    K tasked:                  Yes
    wK tasked:                  No
    Memory [MiB]:              375
    Schwarz Cutoff:          1E-12

    OpenMP threads:              1

  Minimum eigenvalue in the overlap matrix is 5.4174188589E-03.
  Using Symmetric Orthogonalization.

  SCF Guess: Superposition of Atomic Densities via on-the-fly atomic UHF.

  ==> Iterations <==

                        Total Energy        Delta E     RMS |[F,P]|

   @RHF iter SAD:  -196.39210764513666   -1.96392e+02   0.00000e+00
   @RHF iter   1:  -197.31076408380653   -9.18656e-01   3.80912e-03 DIIS
   @RHF iter   2:  -197.47148065235558   -1.60717e-01   1.63482e-03 DIIS
   @RHF iter   3:  -197.49973875270294   -2.82581e-02   3.25666e-04 DIIS
   @RHF iter   4:  -197.50196208613062   -2.22333e-03   4.89195e-05 DIIS
   @RHF iter   5:  -197.50200103489709   -3.89488e-05   1.50399e-05 DIIS
   @RHF iter   6:  -197.50200449772353   -3.46283e-06   2.32645e-06 DIIS
   @RHF iter   7:  -197.50200460018237   -1.02459e-07   4.66634e-07 DIIS
   @RHF iter   8:  -197.50200460459604   -4.41366e-09   1.30423e-07 DIIS
   @RHF iter   9:  -197.50200460492388   -3.27844e-10   3.86292e-08 DIIS
   @RHF iter  10:  -197.50200460496083   -3.69482e-11   8.23755e-09 DIIS
   @RHF iter  11:  -197.50200460496308   -2.24532e-12   1.55944e-09 DIIS
   @RHF iter  12:  -197.50200460496254    5.40012e-13   2.99765e-10 DIIS
   @RHF iter  13:  -197.50200460496225    2.84217e-13   5.78494e-11 DIIS
  Energy and wave function converged.

  ==> Post-Iterations <==

    Orbital Energies [Eh]
    ---------------------

    Doubly Occupied:

       1A    -11.218823     2A    -11.217284     3A    -11.216779
       4A    -11.216356     5A    -11.216214     6A     -1.053805
       7A     -1.020817     8A     -0.926616     9A     -0.836212
      10A     -0.796141    11A     -0.628848    12A     -0.602364
      13A     -0.600780    14A     -0.591403    15A     -0.549711
      16A     -0.533841    17A     -0.500113    18A     -0.489295
      19A     -0.484859    20A     -0.475937    21A     -0.466611
      22A     -0.463250

    Virtual:

      23A      0.165274    24A      0.198636    25A      0.208641
      26A      0.222296    27A      0.243134    28A      0.250653
      29A      0.261058    30A      0.267522    31A      0.271980
      32A      0.284163    33A      0.298724    34A      0.303910
      35A      0.316704    36A      0.350613    37A      0.372117
      38A      0.398497    39A      0.433460    40A      0.570511
      41A      0.589391    42A      0.595322    43A      0.602110
      44A      0.612487    45A      0.614429    46A      0.635367
      47A      0.664140    48A      0.708464    49A      0.752667
      50A      0.796304    51A      0.806508    52A      0.845539
      53A      0.854624    54A      0.872869    55A      0.878761
      56A      0.889743    57A      0.895605    58A      0.900415
      59A      0.905054    60A      0.906924    61A      0.911596
      62A      0.923732    63A      0.933306    64A      0.935032
      65A      0.965157    66A      0.975970    67A      0.993076
      68A      1.075320    69A      1.119367    70A      1.121789
      71A      1.128018    72A      1.139626    73A      1.231835
      74A      1.303905    75A      1.374685    76A      1.475407
      77A      1.480258    78A      1.485332    79A      1.493455
      80A      1.517488    81A      1.567845    82A      1.637727
      83A      1.666956    84A      1.685466    85A      1.689255
      86A      1.697594    87A      1.716463    88A      1.837368
      89A      1.876820    90A      1.882921    91A      1.885531
      92A      1.890168    93A      1.905608    94A      1.909094
      95A      1.920881    96A      1.934278    97A      1.942498
      98A      1.951821    99A      1.954870   100A      1.965654
     101A      1.974915   102A      1.977486   103A      1.993833
     104A      1.997248   105A      2.005608   106A      2.021805
     107A      2.037051   108A      2.125058   109A      2.128681
     110A      2.149932   111A      2.166421   112A      2.285153
     113A      2.295131   114A      2.302295   115A      2.309356
     116A      2.329025   117A      2.339226   118A      2.440807
     119A      2.455516   120A      2.498966   121A      2.539141
     122A      2.581669   123A      2.594880   124A      2.598670
     125A      2.620332   126A      2.628946   127A      2.749230
     128A      2.767748   129A      2.770343   130A      2.791642
     131A      2.797281   132A      2.804069   133A      2.844694
     134A      2.850519   135A      2.930431   136A      2.943379
     137A      2.968883   138A      2.977336   139A      2.983809
     140A      3.105213

    Final Occupation by Irrep:
              A
    DOCC [    22 ]

  @RHF Final Energy:  -197.50200460496225

   => Energetics <=

    Nuclear Repulsion Energy =            180.3656480023458641
    One-Electron Energy =                -621.5231917668097594
    Two-Electron Energy =                 243.6555391595016147
    Total Energy =                       -197.5020046049622522

Computation Completed

Properties will be evaluated at   0.000000,   0.000000,   0.000000 [a0]

Properties computed using the SCF density matrix

  Nuclear Dipole Moment: [e a0]
     X:    -0.7586      Y:    -0.5793      Z:     0.2583

  Electronic Dipole Moment: [e a0]
     X:     0.7415      Y:     0.5561      Z:    -0.2411

  Dipole Moment: [e a0]
     X:    -0.0171      Y:    -0.0232      Z:     0.0172     Total:     0.0335

  Dipole Moment: [D]
     X:    -0.0435      Y:    -0.0589      Z:     0.0436     Total:     0.0852

*** tstop() called on ds3 at Sun Apr 26 22:12:56 2020
Module time:
	user time   =      16.59 seconds =       0.28 minutes
	system time =       6.84 seconds =       0.11 minutes
	total time  =         23 seconds =       0.38 minutes
Total time:
	user time   =      16.59 seconds =       0.28 minutes
	system time =       6.84 seconds =       0.11 minutes
	total time  =         23 seconds =       0.38 minutes
                                     G D M A

                                 by Anthony Stone

                           version 2.2.06, 22 June 2011

               Distributed Multipoles from Gaussian wavefunctions

Starting at 22:12:56 on 26 Apr 2020

Using SCF density matrix from file ./SSI/SSI-029LEU-040GLU-1-dimer.test.1627.fchk

                         Distributed Multipole Analysis

Standard DMA

Positions and radii in angstrom
Multipole moments in atomic units, ea_0^k for rank k

C          x = -2.000607  y = -1.253020  z =  0.966173 angstrom
           Maximum rank =  0   Radius =  0.650 angstrom
                   Q00  =  -0.239737

C          x = -1.208607  y = -2.461020  z =  0.481173 angstrom
           Maximum rank =  0   Radius =  0.650 angstrom
                   Q00  =  -0.231142

H          x = -2.730607  y = -1.558020  z =  1.717173 angstrom
           Maximum rank =  0   Radius =  0.325 angstrom
                   Q00  =   0.078559

H          x = -1.320607  y = -0.546020  z =  1.426173 angstrom
           Maximum rank =  0   Radius =  0.325 angstrom
                   Q00  =   0.079232

H          x = -2.507607  y = -0.778020  z =  0.126173 angstrom
           Maximum rank =  0   Radius =  0.325 angstrom
                   Q00  =   0.078347

H          x = -0.653607  y = -2.160020  z = -0.407827 angstrom
           Maximum rank =  0   Radius =  0.325 angstrom
                   Q00  =   0.078221

H          x = -1.892837  y = -3.282670  z =  0.222873 angstrom
           Maximum rank =  0   Radius =  0.325 angstrom
                   Q00  =   0.079036

H          x = -0.483686  y = -2.778714  z =  1.245083 angstrom
           Maximum rank =  0   Radius =  0.325 angstrom
                   Q00  =   0.078855

C          x =  1.030393  y =  0.731980  z = -0.366827 angstrom
           Maximum rank =  0   Radius =  0.650 angstrom
                   Q00  =  -0.073214

C          x =  0.577393  y =  1.313980  z = -1.704827 angstrom
           Maximum rank =  0   Radius =  0.650 angstrom
                   Q00  =  -0.249354

C          x =  1.669393  y =  1.719980  z =  0.601173 angstrom
           Maximum rank =  0   Radius =  0.650 angstrom
                   Q00  =  -0.245699

H          x =  0.161393  y =  0.295980  z =  0.110173 angstrom
           Maximum rank =  0   Radius =  0.325 angstrom
                   Q00  =   0.049431

H          x =  1.737393  y = -0.073020  z = -0.571827 angstrom
           Maximum rank =  0   Radius =  0.325 angstrom
                   Q00  =   0.042679

H          x = -0.169607  y =  2.076980  z = -1.528827 angstrom
           Maximum rank =  0   Radius =  0.325 angstrom
                   Q00  =   0.077560

H          x =  2.597393  y =  2.105980  z =  0.173173 angstrom
           Maximum rank =  0   Radius =  0.325 angstrom
                   Q00  =   0.077193

H          x =  0.992393  y =  2.555980  z =  0.763173 angstrom
           Maximum rank =  0   Radius =  0.325 angstrom
                   Q00  =   0.075623

H          x =  0.139523  y =  0.522329  z = -2.330577 angstrom
           Maximum rank =  0   Radius =  0.325 angstrom
                   Q00  =   0.083715

H          x =  1.431207  y =  1.759480  z = -2.236367 angstrom
           Maximum rank =  0   Radius =  0.325 angstrom
                   Q00  =   0.075905

H          x =  1.890032  y =  1.241808  z =  1.566923 angstrom
           Maximum rank =  0   Radius =  0.325 angstrom
                   Q00  =   0.084790

Total multipoles referred to origin at
           x =   0.000000,  y =    0.000000,  z =    0.000000 angstrom
                   Q00  =  -0.000000

Finished at 22:12:56 on 26 Apr 2020

  DMA results are available in the Python driver through the
	  variable('DMA DISTRIBUTED MULTIPOLES')
  and
	  variable('DMA TOTAL MULTIPOLES')
  commands.

    Psi4 stopped on: Sunday, 26 April 2020 10:12PM
    Psi4 wall time for execution: 0:00:23.20

*** Psi4 exiting successfully. Buy a developer a beer!
