                               Psi4 1.3.2 release

  ==> Input File <==

--------------------------------------------------------------------------
import numpy as np
set {scf_type pk
basis cc-pvdz
d_convergence 10
gdma_switch   0
gdma_limit    0
gdma_origin   [ 0.0,  0.0,  0.0 ]
}
molecule test {
    units Angstrom
    -1 1
    --
    -1 1
    C                3.772241125621175     0.467488249942877    -1.499436452380015
    C                0.204241125621175     0.061488249942877    -2.021436452380015
    C                1.513241125621175     0.167488249942877    -0.256436452380015
    C                2.290241125621175     0.276488249942877    -1.364436452380015
    N                0.216241125621175     0.034488249942877    -0.695436452380015
    N                1.450241125621175     0.207488249942877    -2.459436452380015
    H               -0.606758874378825    -0.105511750057123    -0.106436452380015
    H               -0.677758874378825    -0.035511750057123    -2.642436452380016
    H                1.845241125621175     0.183488249942877     0.769563547619985
    H                4.176241125621174    -0.385511750057123    -2.045436452380015
    H                4.219241125621174     0.472488249942877    -0.506436452380015
    H                4.031551125621174     1.394528249942877    -2.031746452380015
    C               -3.294758874378825     0.422488249942877     2.522563547619985
    C               -2.135758874378825    -0.318511750057123     1.869563547619985
    O               -2.106758874378825    -0.412511750057123     0.623563547619985
    O               -1.257758874378825    -0.817511750057123     2.603563547619985
    H               -2.933758874378825     0.909488249942877     3.431563547619985
    H               -4.065758874378826    -0.291511750057123     2.810563547619985
    H               -3.720048874378825     1.194498249942877     1.864443547619985

}
e, wfn = energy('scf', return_wfn=True)
gdma(wfn)
dmavals = variable('DMA DISTRIBUTED MULTIPOLES')
charges = np.array(dmavals)
print(charges)
np.save('SSI-132HIE-147ASP-1-dimer.npy', np.array(charges))--------------------------------------------------------------------------

*** tstart() called on ds3
*** at Tue Apr 28 09:15:07 2020

   => Loading Basis Set <=

    Name: CC-PVDZ
    Role: ORBITAL
    Keyword: BASIS
    atoms 1-4, 13-14  entry C          line   138 file /theoryfs2/ds/metcalf/miniconda2/envs/tf2gpu/share/psi4/basis/cc-pvdz.gbs
    atoms 5-6         entry N          line   168 file /theoryfs2/ds/metcalf/miniconda2/envs/tf2gpu/share/psi4/basis/cc-pvdz.gbs
    atoms 7-12, 17-19 entry H          line    22 file /theoryfs2/ds/metcalf/miniconda2/envs/tf2gpu/share/psi4/basis/cc-pvdz.gbs
    atoms 15-16       entry O          line   198 file /theoryfs2/ds/metcalf/miniconda2/envs/tf2gpu/share/psi4/basis/cc-pvdz.gbs

         ---------------------------------------------------------
                                   SCF
               by Justin Turney, Rob Parrish, Andy Simmonett
                          and Daniel G. A. Smith
                              RHF Reference
                        1 Threads,    500 MiB Core
         ---------------------------------------------------------

  ==> Geometry <==

    Molecular point group: c1
    Full point group: C1

    Geometry (in Angstrom), charge = -1, multiplicity = 1:

       Center              X                  Y                   Z               Mass
    ------------   -----------------  -----------------  -----------------  -----------------
         C            3.772241125621     0.467488249943    -1.499436452380    12.000000000000
         C            0.204241125621     0.061488249943    -2.021436452380    12.000000000000
         C            1.513241125621     0.167488249943    -0.256436452380    12.000000000000
         C            2.290241125621     0.276488249943    -1.364436452380    12.000000000000
         N            0.216241125621     0.034488249943    -0.695436452380    14.003074004430
         N            1.450241125621     0.207488249943    -2.459436452380    14.003074004430
         H           -0.606758874379    -0.105511750057    -0.106436452380     1.007825032230
         H           -0.677758874379    -0.035511750057    -2.642436452380     1.007825032230
         H            1.845241125621     0.183488249943     0.769563547620     1.007825032230
         H            4.176241125621    -0.385511750057    -2.045436452380     1.007825032230
         H            4.219241125621     0.472488249943    -0.506436452380     1.007825032230
         H            4.031551125621     1.394528249943    -2.031746452380     1.007825032230
         C           -3.294758874379     0.422488249943     2.522563547620    12.000000000000
         C           -2.135758874379    -0.318511750057     1.869563547620    12.000000000000
         O           -2.106758874379    -0.412511750057     0.623563547620    15.994914619570
         O           -1.257758874379    -0.817511750057     2.603563547620    15.994914619570
         H           -2.933758874379     0.909488249943     3.431563547620     1.007825032230
         H           -4.065758874379    -0.291511750057     2.810563547620     1.007825032230
         H           -3.720048874379     1.194498249943     1.864443547620     1.007825032230

  Running in c1 symmetry.

  Rotational constants: A =      0.11937  B =      0.01627  C =      0.01481 [cm^-1]
  Rotational constants: A =   3578.72442  B =    487.74871  C =    444.03599 [MHz]
  Nuclear repulsion =  485.281844469464090

  Charge       = -1
  Multiplicity = 1
  Electrons    = 76
  Nalpha       = 38
  Nbeta        = 38

  ==> Algorithm <==

  SCF Algorithm Type is PK.
  DIIS enabled.
  MOM disabled.
  Fractional occupation disabled.
  Guess Type is SAD.
  Energy threshold   = 1.00e-06
  Density threshold  = 1.00e-10
  Integral threshold = 0.00e+00

  ==> Primary Basis <==

  Basis Set: CC-PVDZ
    Blend: CC-PVDZ
    Number of shells: 87
    Number of basis function: 185
    Number of Cartesian functions: 195
    Spherical Harmonics?: true
    Max angular momentum: 2

  ==> Pre-Iterations <==

   -------------------------------------------------------
    Irrep   Nso     Nmo     Nalpha   Nbeta   Ndocc  Nsocc
   -------------------------------------------------------
     A        185     185       0       0       0       0
   -------------------------------------------------------
    Total     185     185      38      38      38       0
   -------------------------------------------------------

  ==> Integral Setup <==

  Using integral reordering PK algorithm.
  Sizing the integral batches needed.
  Building batch lookup table.
   Calculation information:
      Number of atoms:                  19
      Number of AO shells:              87
      Number of primitives:            265
      Number of atomic orbitals:       195
      Number of basis functions:       185

      Integral cutoff                 1.00e-12
      Number of threads:                 1

	Batch   1 pq = [       0,    9405] index = [             0,44231715] size =     44231715
	Batch   2 pq = [    9405,   13301] index = [      44231715,88464951] size =     44233236
	Batch   3 pq = [   13301,   16290] index = [      88464951,132690195] size =     44225244
	Batch   4 pq = [   16290,   17205] index = [     132690195,148014615] size =     15324420
  Task number: 14
  Buffer size: 11059200
  Buffer per thread: 2
  We computed 5165744 shell quartets total.
  Whereas there are 7328706 unique shell quartets.

  ==> DiskJK: Disk-Based J/K Matrices <==

    J tasked:                  Yes
    K tasked:                  Yes
    wK tasked:                  No
    Memory [MiB]:              375
    Schwarz Cutoff:          1E-12

    OpenMP threads:              1

  Minimum eigenvalue in the overlap matrix is 1.1802852158E-03.
  Using Symmetric Orthogonalization.

  SCF Guess: Superposition of Atomic Densities via on-the-fly atomic UHF.

  ==> Iterations <==

                        Total Energy        Delta E     RMS |[F,P]|

   @RHF iter SAD:  -489.80783977878212   -4.89808e+02   0.00000e+00
   @RHF iter   1:  -490.85989993258795   -1.05206e+00   4.10071e-03 DIIS
   @RHF iter   2:  -491.08347720887093   -2.23577e-01   2.28287e-03 DIIS
   @RHF iter   3:  -491.15002843655236   -6.65512e-02   3.88378e-04 DIIS
   @RHF iter   4:  -491.15328955279631   -3.26112e-03   1.52656e-04 DIIS
   @RHF iter   5:  -491.15378206932343   -4.92517e-04   3.29970e-05 DIIS
   @RHF iter   6:  -491.15380763698067   -2.55677e-05   1.41202e-05 DIIS
   @RHF iter   7:  -491.15381283861461   -5.20163e-06   3.73313e-06 DIIS
   @RHF iter   8:  -491.15381372784458   -8.89230e-07   1.95310e-06 DIIS
   @RHF iter   9:  -491.15381395951437   -2.31670e-07   7.63214e-07 DIIS
   @RHF iter  10:  -491.15381399957460   -4.00602e-08   2.04395e-07 DIIS
   @RHF iter  11:  -491.15381400200965   -2.43506e-09   6.45468e-08 DIIS
   @RHF iter  12:  -491.15381400214437   -1.34719e-10   3.41003e-08 DIIS
   @RHF iter  13:  -491.15381400217893   -3.45608e-11   1.07694e-08 DIIS
   @RHF iter  14:  -491.15381400218342   -4.49063e-12   4.32848e-09 DIIS
   @RHF iter  15:  -491.15381400218246    9.66338e-13   1.47269e-09 DIIS
   @RHF iter  16:  -491.15381400218718   -4.71800e-12   6.28685e-10 DIIS
   @RHF iter  17:  -491.15381400218541    1.76215e-12   2.21692e-10 DIIS
   @RHF iter  18:  -491.15381400218325    2.16005e-12   6.29513e-11 DIIS
  Energy and wave function converged.

  ==> Post-Iterations <==

    Orbital Energies [Eh]
    ---------------------

    Doubly Occupied:

       1A    -20.302089     2A    -20.292547     3A    -15.450614
       4A    -15.392578     5A    -11.152164     6A    -11.150465
       7A    -11.120098     8A    -11.112091     9A    -11.108558
      10A    -11.075150    11A     -1.195095    12A     -1.189408
      13A     -1.076266    14A     -1.006436    15A     -0.904289
      16A     -0.822861    17A     -0.815944    18A     -0.669007
      19A     -0.622139    20A     -0.601686    21A     -0.534011
      22A     -0.478665    23A     -0.473828    24A     -0.457015
      25A     -0.443210    26A     -0.439716    27A     -0.436401
      28A     -0.428169    29A     -0.416166    30A     -0.404392
      31A     -0.372313    32A     -0.340220    33A     -0.280318
      34A     -0.235781    35A     -0.221884    36A     -0.208444
      37A     -0.201576    38A     -0.175898

    Virtual:

      39A      0.301342    40A      0.333893    41A      0.335094
      42A      0.339790    43A      0.342894    44A      0.346738
      45A      0.372519    46A      0.388866    47A      0.397357
      48A      0.409635    49A      0.452004    50A      0.478331
      51A      0.493204    52A      0.529981    53A      0.547627
      54A      0.588190    55A      0.611536    56A      0.625920
      57A      0.688736    58A      0.725100    59A      0.745883
      60A      0.750317    61A      0.751940    62A      0.796162
      63A      0.802442    64A      0.829251    65A      0.836913
      66A      0.846514    67A      0.881880    68A      0.898064
      69A      0.915266    70A      0.929118    71A      0.938590
      72A      0.954021    73A      0.963924    74A      0.983089
      75A      0.990653    76A      1.008295    77A      1.009337
      78A      1.015124    79A      1.024830    80A      1.039021
      81A      1.057571    82A      1.080547    83A      1.091631
      84A      1.103192    85A      1.110798    86A      1.182546
      87A      1.211275    88A      1.216833    89A      1.221790
      90A      1.243682    91A      1.261052    92A      1.272793
      93A      1.298071    94A      1.312560    95A      1.341615
      96A      1.375364    97A      1.399008    98A      1.440472
      99A      1.448280   100A      1.468132   101A      1.495896
     102A      1.524351   103A      1.543318   104A      1.557925
     105A      1.572196   106A      1.580267   107A      1.593364
     108A      1.617782   109A      1.641725   110A      1.653643
     111A      1.700258   112A      1.725133   113A      1.740773
     114A      1.767253   115A      1.785684   116A      1.801639
     117A      1.818500   118A      1.836929   119A      1.912939
     120A      1.925671   121A      1.937890   122A      1.958580
     123A      1.998614   124A      2.015963   125A      2.028344
     126A      2.043618   127A      2.053813   128A      2.061526
     129A      2.070480   130A      2.106855   131A      2.122806
     132A      2.127385   133A      2.142072   134A      2.159354
     135A      2.187079   136A      2.213181   137A      2.223250
     138A      2.246151   139A      2.289320   140A      2.298536
     141A      2.333561   142A      2.350453   143A      2.372637
     144A      2.394236   145A      2.409190   146A      2.456552
     147A      2.482739   148A      2.515947   149A      2.543670
     150A      2.586051   151A      2.607550   152A      2.642255
     153A      2.653317   154A      2.674146   155A      2.727117
     156A      2.754217   157A      2.763608   158A      2.806552
     159A      2.863236   160A      2.878629   161A      2.890342
     162A      2.899207   163A      2.933821   164A      2.942917
     165A      2.954904   166A      2.962294   167A      3.011960
     168A      3.013470   169A      3.030923   170A      3.087971
     171A      3.209985   172A      3.232250   173A      3.241381
     174A      3.325234   175A      3.335845   176A      3.376920
     177A      3.457634   178A      3.601036   179A      3.626430
     180A      3.741186   181A      3.792468   182A      4.020188
     183A      4.041749   184A      4.064266   185A      4.176555

    Final Occupation by Irrep:
              A
    DOCC [    38 ]

  @RHF Final Energy:  -491.15381400218325

   => Energetics <=

    Nuclear Repulsion Energy =            485.2818444694640903
    One-Electron Energy =               -1645.6563337332604533
    Two-Electron Energy =                 669.2206752616132235
    Total Energy =                       -491.1538140021832533

Computation Completed

Properties will be evaluated at   0.000000,   0.000000,   0.000000 [a0]

Properties computed using the SCF density matrix

  Nuclear Dipole Moment: [e a0]
     X:     2.1054      Y:     3.1212      Z:     1.4718

  Electronic Dipole Moment: [e a0]
     X:    -1.0260      Y:    -2.1852      Z:    -2.3744

  Dipole Moment: [e a0]
     X:     1.0793      Y:     0.9360      Z:    -0.9026     Total:     1.6899

  Dipole Moment: [D]
     X:     2.7433      Y:     2.3792      Z:    -2.2942     Total:     4.2953

*** tstop() called on ds3 at Tue Apr 28 09:16:23 2020
Module time:
	user time   =      51.41 seconds =       0.86 minutes
	system time =      27.94 seconds =       0.47 minutes
	total time  =         76 seconds =       1.27 minutes
Total time:
	user time   =      51.41 seconds =       0.86 minutes
	system time =      27.94 seconds =       0.47 minutes
	total time  =         76 seconds =       1.27 minutes
                                     G D M A

                                 by Anthony Stone

                           version 2.2.06, 22 June 2011

               Distributed Multipoles from Gaussian wavefunctions

Starting at 9:16:23 on 28 Apr 2020

Using SCF density matrix from file ./SSI/SSI-132HIE-147ASP-1-dimer.test.9835.fchk

                         Distributed Multipole Analysis

Standard DMA

Positions and radii in angstrom
Multipole moments in atomic units, ea_0^k for rank k

C          x =  3.772241  y =  0.467488  z = -1.499436 angstrom
           Maximum rank =  0   Radius =  0.650 angstrom
                   Q00  =  -0.184327

C          x =  0.204241  y =  0.061488  z = -2.021436 angstrom
           Maximum rank =  0   Radius =  0.650 angstrom
                   Q00  =   0.480632

C          x =  1.513241  y =  0.167488  z = -0.256436 angstrom
           Maximum rank =  0   Radius =  0.650 angstrom
                   Q00  =   0.072931

C          x =  2.290241  y =  0.276488  z = -1.364436 angstrom
           Maximum rank =  0   Radius =  0.650 angstrom
                   Q00  =   0.158162

N          x =  0.216241  y =  0.034488  z = -0.695436 angstrom
           Maximum rank =  0   Radius =  0.650 angstrom
                   Q00  =  -0.539038

N          x =  1.450241  y =  0.207488  z = -2.459436 angstrom
           Maximum rank =  0   Radius =  0.650 angstrom
                   Q00  =  -0.801438

H          x = -0.606759  y = -0.105512  z = -0.106436 angstrom
           Maximum rank =  0   Radius =  0.325 angstrom
                   Q00  =   0.360626

H          x = -0.677759  y = -0.035512  z = -2.642436 angstrom
           Maximum rank =  0   Radius =  0.325 angstrom
                   Q00  =   0.105793

H          x =  1.845241  y =  0.183488  z =  0.769564 angstrom
           Maximum rank =  0   Radius =  0.325 angstrom
                   Q00  =   0.079673

H          x =  4.176241  y = -0.385512  z = -2.045436 angstrom
           Maximum rank =  0   Radius =  0.325 angstrom
                   Q00  =   0.085392

H          x =  4.219241  y =  0.472488  z = -0.506436 angstrom
           Maximum rank =  0   Radius =  0.325 angstrom
                   Q00  =   0.080737

H          x =  4.031551  y =  1.394528  z = -2.031746 angstrom
           Maximum rank =  0   Radius =  0.325 angstrom
                   Q00  =   0.084526

C          x = -3.294759  y =  0.422488  z =  2.522564 angstrom
           Maximum rank =  0   Radius =  0.650 angstrom
                   Q00  =  -0.275046

C          x = -2.135759  y = -0.318512  z =  1.869564 angstrom
           Maximum rank =  0   Radius =  0.650 angstrom
                   Q00  =   0.936269

O          x = -2.106759  y = -0.412512  z =  0.623564 angstrom
           Maximum rank =  0   Radius =  0.650 angstrom
                   Q00  =  -0.961041

O          x = -1.257759  y = -0.817512  z =  2.603564 angstrom
           Maximum rank =  0   Radius =  0.650 angstrom
                   Q00  =  -0.901484

H          x = -2.933759  y =  0.909488  z =  3.431564 angstrom
           Maximum rank =  0   Radius =  0.325 angstrom
                   Q00  =   0.064833

H          x = -4.065759  y = -0.291512  z =  2.810564 angstrom
           Maximum rank =  0   Radius =  0.325 angstrom
                   Q00  =   0.091529

H          x = -3.720049  y =  1.194498  z =  1.864444 angstrom
           Maximum rank =  0   Radius =  0.325 angstrom
                   Q00  =   0.061272

Total multipoles referred to origin at
           x =   0.000000,  y =    0.000000,  z =    0.000000 angstrom
                   Q00  =  -1.000000

Finished at 9:16:23 on 28 Apr 2020

  DMA results are available in the Python driver through the
	  variable('DMA DISTRIBUTED MULTIPOLES')
  and
	  variable('DMA TOTAL MULTIPOLES')
  commands.

    Psi4 stopped on: Tuesday, 28 April 2020 09:16AM
    Psi4 wall time for execution: 0:01:16.25

*** Psi4 exiting successfully. Buy a developer a beer!
