                               Psi4 1.3.2 release

  ==> Input File <==

--------------------------------------------------------------------------
import numpy as np
set {scf_type pk
basis cc-pvdz
d_convergence 10
gdma_switch   0
gdma_limit    0
gdma_origin   [ 0.0,  0.0,  0.0 ]
}
molecule test {
    units Angstrom
    0 1
    --
    0 1
    C               -1.993360600751961    -0.351471082625807    -1.068014356479930
    C               -3.271360600751961    -0.158471082625807    -1.875014356479930
    H               -2.229360600751961    -0.672471082625807    -0.053014356479930
    H               -1.373360600751961    -1.113471082625807    -1.544014356479930
    H               -1.419360600751961     0.572528917374193    -1.043014356479930
    H               -2.983360600751961     0.267528917374193    -2.836014356479930
    H               -3.971933200751961     0.531378917374193    -1.381754356479930
    H               -3.761086600751961    -1.124259082625807    -2.068459356479930
    C                1.386639399248039    -0.066471082625807     0.688985643520070
    C                2.395639399248039     0.920528917374193     0.129985643520070
    C                1.573639399248039    -0.344471082625807     2.175985643520070
    H                0.382639399248039     0.325528917374193     0.523985643520070
    H                1.471639399248039    -1.011471082625807     0.146985643520070
    H                3.394639399248039     0.579528917374193     0.398985643520070
    H                1.525639399248039     0.598528917374193     2.718985643520070
    H                2.215224399248039     1.920329917374193     0.551706643520070
    H                2.367483399248039     0.903923917374193    -0.969528356479930
    H                0.746467399248039    -0.966121082625807     2.549266043520070
    H                2.548862399248039    -0.807252082625807     2.387583843520070

}
e, wfn = energy('scf', return_wfn=True)
gdma(wfn)
dmavals = variable('DMA DISTRIBUTED MULTIPOLES')
charges = np.array(dmavals)
print(charges)
np.save('SSI-063VAL-067LEU-1-dimer.npy', np.array(charges))--------------------------------------------------------------------------

*** tstart() called on ds3
*** at Mon Apr 27 14:12:36 2020

   => Loading Basis Set <=

    Name: CC-PVDZ
    Role: ORBITAL
    Keyword: BASIS
    atoms 1-2, 9-11  entry C          line   138 file /theoryfs2/ds/metcalf/miniconda2/envs/tf2gpu/share/psi4/basis/cc-pvdz.gbs
    atoms 3-8, 12-19 entry H          line    22 file /theoryfs2/ds/metcalf/miniconda2/envs/tf2gpu/share/psi4/basis/cc-pvdz.gbs

         ---------------------------------------------------------
                                   SCF
               by Justin Turney, Rob Parrish, Andy Simmonett
                          and Daniel G. A. Smith
                              RHF Reference
                        1 Threads,    500 MiB Core
         ---------------------------------------------------------

  ==> Geometry <==

    Molecular point group: c1
    Full point group: C1

    Geometry (in Angstrom), charge = 0, multiplicity = 1:

       Center              X                  Y                   Z               Mass
    ------------   -----------------  -----------------  -----------------  -----------------
         C           -1.993360600752    -0.351471082626    -1.068014356480    12.000000000000
         C           -3.271360600752    -0.158471082626    -1.875014356480    12.000000000000
         H           -2.229360600752    -0.672471082626    -0.053014356480     1.007825032230
         H           -1.373360600752    -1.113471082626    -1.544014356480     1.007825032230
         H           -1.419360600752     0.572528917374    -1.043014356480     1.007825032230
         H           -2.983360600752     0.267528917374    -2.836014356480     1.007825032230
         H           -3.971933200752     0.531378917374    -1.381754356480     1.007825032230
         H           -3.761086600752    -1.124259082626    -2.068459356480     1.007825032230
         C            1.386639399248    -0.066471082626     0.688985643520    12.000000000000
         C            2.395639399248     0.920528917374     0.129985643520    12.000000000000
         C            1.573639399248    -0.344471082626     2.175985643520    12.000000000000
         H            0.382639399248     0.325528917374     0.523985643520     1.007825032230
         H            1.471639399248    -1.011471082626     0.146985643520     1.007825032230
         H            3.394639399248     0.579528917374     0.398985643520     1.007825032230
         H            1.525639399248     0.598528917374     2.718985643520     1.007825032230
         H            2.215224399248     1.920329917374     0.551706643520     1.007825032230
         H            2.367483399248     0.903923917374    -0.969528356480     1.007825032230
         H            0.746467399248    -0.966121082626     2.549266043520     1.007825032230
         H            2.548862399248    -0.807252082626     2.387583843520     1.007825032230

  Running in c1 symmetry.

  Rotational constants: A =      0.24937  B =      0.03341  C =      0.03047 [cm^-1]
  Rotational constants: A =   7475.99485  B =   1001.47077  C =    913.32501 [MHz]
  Nuclear repulsion =  174.125847296487478

  Charge       = 0
  Multiplicity = 1
  Electrons    = 44
  Nalpha       = 22
  Nbeta        = 22

  ==> Algorithm <==

  SCF Algorithm Type is PK.
  DIIS enabled.
  MOM disabled.
  Fractional occupation disabled.
  Guess Type is SAD.
  Energy threshold   = 1.00e-06
  Density threshold  = 1.00e-10
  Integral threshold = 0.00e+00

  ==> Primary Basis <==

  Basis Set: CC-PVDZ
    Blend: CC-PVDZ
    Number of shells: 72
    Number of basis function: 140
    Number of Cartesian functions: 145
    Spherical Harmonics?: true
    Max angular momentum: 2

  ==> Pre-Iterations <==

   -------------------------------------------------------
    Irrep   Nso     Nmo     Nalpha   Nbeta   Ndocc  Nsocc
   -------------------------------------------------------
     A        140     140       0       0       0       0
   -------------------------------------------------------
    Total     140     140      22      22      22       0
   -------------------------------------------------------

  ==> Integral Setup <==

  Using integral reordering PK algorithm.
  Sizing the integral batches needed.
  Building batch lookup table.
   Calculation information:
      Number of atoms:                  19
      Number of AO shells:              72
      Number of primitives:            180
      Number of atomic orbitals:       145
      Number of basis functions:       140

      Integral cutoff                 1.00e-12
      Number of threads:                 1

	Batch   1 pq = [       0,    9405] index = [             0,44231715] size =     44231715
	Batch   2 pq = [    9405,    9870] index = [      44231715,48713385] size =      4481670
  Task number: 5
  Buffer size: 11059200
  Buffer per thread: 2
  We computed 2672434 shell quartets total.
  Whereas there are 3454506 unique shell quartets.

  ==> DiskJK: Disk-Based J/K Matrices <==

    J tasked:                  Yes
    K tasked:                  Yes
    wK tasked:                  No
    Memory [MiB]:              375
    Schwarz Cutoff:          1E-12

    OpenMP threads:              1

  Minimum eigenvalue in the overlap matrix is 5.2154267076E-03.
  Using Symmetric Orthogonalization.

  SCF Guess: Superposition of Atomic Densities via on-the-fly atomic UHF.

  ==> Iterations <==

                        Total Energy        Delta E     RMS |[F,P]|

   @RHF iter SAD:  -196.37775321301871   -1.96378e+02   0.00000e+00
   @RHF iter   1:  -197.30989724796700   -9.32144e-01   3.82519e-03 DIIS
   @RHF iter   2:  -197.47114794460998   -1.61251e-01   1.66146e-03 DIIS
   @RHF iter   3:  -197.50022667008872   -2.90787e-02   3.27524e-04 DIIS
   @RHF iter   4:  -197.50247498691627   -2.24832e-03   4.93318e-05 DIIS
   @RHF iter   5:  -197.50251501612030   -4.00292e-05   1.49185e-05 DIIS
   @RHF iter   6:  -197.50251843529421   -3.41917e-06   2.51861e-06 DIIS
   @RHF iter   7:  -197.50251854802997   -1.12736e-07   4.75701e-07 DIIS
   @RHF iter   8:  -197.50251855282528   -4.79531e-09   1.25544e-07 DIIS
   @RHF iter   9:  -197.50251855314318   -3.17897e-10   4.00407e-08 DIIS
   @RHF iter  10:  -197.50251855317981   -3.66356e-11   8.27874e-09 DIIS
   @RHF iter  11:  -197.50251855318240   -2.58638e-12   1.50375e-09 DIIS
   @RHF iter  12:  -197.50251855318172    6.82121e-13   2.59694e-10 DIIS
   @RHF iter  13:  -197.50251855318206   -3.41061e-13   4.84852e-11 DIIS
  Energy and wave function converged.

  ==> Post-Iterations <==

    Orbital Energies [Eh]
    ---------------------

    Doubly Occupied:

       1A    -11.219027     2A    -11.216987     3A    -11.216824
       4A    -11.215911     5A    -11.215691     6A     -1.054732
       7A     -1.019680     8A     -0.923529     9A     -0.837145
      10A     -0.793599    11A     -0.627295    12A     -0.599549
      13A     -0.597577    14A     -0.593616    15A     -0.547383
      16A     -0.532459    17A     -0.504263    18A     -0.486406
      19A     -0.484387    20A     -0.470011    21A     -0.466123
      22A     -0.465054

    Virtual:

      23A      0.172259    24A      0.192951    25A      0.218127
      26A      0.220074    27A      0.228402    28A      0.253747
      29A      0.260032    30A      0.264575    31A      0.271858
      32A      0.286329    33A      0.292221    34A      0.299503
      35A      0.305613    36A      0.337789    37A      0.368449
      38A      0.405860    39A      0.428494    40A      0.573125
      41A      0.581561    42A      0.595440    43A      0.599287
      44A      0.610905    45A      0.618013    46A      0.621743
      47A      0.680679    48A      0.695071    49A      0.726959
      50A      0.781213    51A      0.816395    52A      0.846661
      53A      0.878416    54A      0.883658    55A      0.889756
      56A      0.891040    57A      0.893737    58A      0.897630
      59A      0.900204    60A      0.902273    61A      0.908839
      62A      0.917905    63A      0.923571    64A      0.935691
      65A      0.946882    66A      0.967532    67A      0.971967
      68A      1.017152    69A      1.119489    70A      1.123096
      71A      1.131673    72A      1.143989    73A      1.223909
      74A      1.233354    75A      1.383192    76A      1.468573
      77A      1.474575    78A      1.478818    79A      1.481700
      80A      1.535698    81A      1.586081    82A      1.625419
      83A      1.669436    84A      1.681701    85A      1.686653
      86A      1.693836    87A      1.708290    88A      1.851812
      89A      1.860883    90A      1.869386    91A      1.876974
      92A      1.884590    93A      1.906226    94A      1.908491
      95A      1.916498    96A      1.938266    97A      1.940740
      98A      1.946288    99A      1.955925   100A      1.962829
     101A      1.968858   102A      1.979705   103A      1.989133
     104A      1.997152   105A      2.013894   106A      2.027669
     107A      2.074959   108A      2.097239   109A      2.123927
     110A      2.145113   111A      2.155421   112A      2.274568
     113A      2.293857   114A      2.305705   115A      2.320771
     116A      2.337234   117A      2.356719   118A      2.445446
     119A      2.463214   120A      2.499995   121A      2.524601
     122A      2.557585   123A      2.578815   124A      2.587644
     125A      2.607462   126A      2.637258   127A      2.750690
     128A      2.755781   129A      2.759378   130A      2.783051
     131A      2.786694   132A      2.812209   133A      2.848812
     134A      2.859388   135A      2.913500   136A      2.945634
     137A      2.949845   138A      2.964191   139A      2.976032
     140A      3.080706

    Final Occupation by Irrep:
              A
    DOCC [    22 ]

  @RHF Final Energy:  -197.50251855318206

   => Energetics <=

    Nuclear Repulsion Energy =            174.1258472964874784
    One-Electron Energy =                -609.0822316523575637
    Two-Electron Energy =                 237.4538658026880569
    Total Energy =                       -197.5025185531820568

Computation Completed

Properties will be evaluated at   0.000000,   0.000000,   0.000000 [a0]

Properties computed using the SCF density matrix

  Nuclear Dipole Moment: [e a0]
     X:    -1.0180      Y:     0.0040      Z:    -0.5796

  Electronic Dipole Moment: [e a0]
     X:     0.9957      Y:    -0.0186      Z:     0.5478

  Dipole Moment: [e a0]
     X:    -0.0223      Y:    -0.0146      Z:    -0.0318     Total:     0.0415

  Dipole Moment: [D]
     X:    -0.0567      Y:    -0.0371      Z:    -0.0809     Total:     0.1055

*** tstop() called on ds3 at Mon Apr 27 14:12:56 2020
Module time:
	user time   =      13.91 seconds =       0.23 minutes
	system time =       6.26 seconds =       0.10 minutes
	total time  =         20 seconds =       0.33 minutes
Total time:
	user time   =      13.91 seconds =       0.23 minutes
	system time =       6.26 seconds =       0.10 minutes
	total time  =         20 seconds =       0.33 minutes
                                     G D M A

                                 by Anthony Stone

                           version 2.2.06, 22 June 2011

               Distributed Multipoles from Gaussian wavefunctions

Starting at 14:12:56 on 27 Apr 2020

Using SCF density matrix from file ./SSI/SSI-063VAL-067LEU-1-dimer.test.8999.fchk

                         Distributed Multipole Analysis

Standard DMA

Positions and radii in angstrom
Multipole moments in atomic units, ea_0^k for rank k

C          x = -1.993361  y = -0.351471  z = -1.068014 angstrom
           Maximum rank =  0   Radius =  0.650 angstrom
                   Q00  =  -0.236135

C          x = -3.271361  y = -0.158471  z = -1.875014 angstrom
           Maximum rank =  0   Radius =  0.650 angstrom
                   Q00  =  -0.233479

H          x = -2.229361  y = -0.672471  z = -0.053014 angstrom
           Maximum rank =  0   Radius =  0.325 angstrom
                   Q00  =   0.077647

H          x = -1.373361  y = -1.113471  z = -1.544014 angstrom
           Maximum rank =  0   Radius =  0.325 angstrom
                   Q00  =   0.079919

H          x = -1.419361  y =  0.572529  z = -1.043014 angstrom
           Maximum rank =  0   Radius =  0.325 angstrom
                   Q00  =   0.077338

H          x = -2.983361  y =  0.267529  z = -2.836014 angstrom
           Maximum rank =  0   Radius =  0.325 angstrom
                   Q00  =   0.076501

H          x = -3.971933  y =  0.531379  z = -1.381754 angstrom
           Maximum rank =  0   Radius =  0.325 angstrom
                   Q00  =   0.080577

H          x = -3.761087  y = -1.124259  z = -2.068459 angstrom
           Maximum rank =  0   Radius =  0.325 angstrom
                   Q00  =   0.079579

C          x =  1.386639  y = -0.066471  z =  0.688986 angstrom
           Maximum rank =  0   Radius =  0.650 angstrom
                   Q00  =  -0.078169

C          x =  2.395639  y =  0.920529  z =  0.129986 angstrom
           Maximum rank =  0   Radius =  0.650 angstrom
                   Q00  =  -0.232399

C          x =  1.573639  y = -0.344471  z =  2.175986 angstrom
           Maximum rank =  0   Radius =  0.650 angstrom
                   Q00  =  -0.249472

H          x =  0.382639  y =  0.325529  z =  0.523986 angstrom
           Maximum rank =  0   Radius =  0.325 angstrom
                   Q00  =   0.049936

H          x =  1.471639  y = -1.011471  z =  0.146986 angstrom
           Maximum rank =  0   Radius =  0.325 angstrom
                   Q00  =   0.043522

H          x =  3.394639  y =  0.579529  z =  0.398986 angstrom
           Maximum rank =  0   Radius =  0.325 angstrom
                   Q00  =   0.072510

H          x =  1.525639  y =  0.598529  z =  2.718986 angstrom
           Maximum rank =  0   Radius =  0.325 angstrom
                   Q00  =   0.072019

H          x =  2.215224  y =  1.920330  z =  0.551707 angstrom
           Maximum rank =  0   Radius =  0.325 angstrom
                   Q00  =   0.077224

H          x =  2.367483  y =  0.903924  z = -0.969528 angstrom
           Maximum rank =  0   Radius =  0.325 angstrom
                   Q00  =   0.082019

H          x =  0.746467  y = -0.966121  z =  2.549266 angstrom
           Maximum rank =  0   Radius =  0.325 angstrom
                   Q00  =   0.082942

H          x =  2.548862  y = -0.807252  z =  2.387584 angstrom
           Maximum rank =  0   Radius =  0.325 angstrom
                   Q00  =   0.077922

Total multipoles referred to origin at
           x =   0.000000,  y =    0.000000,  z =    0.000000 angstrom
                   Q00  =  -0.000000

Finished at 14:12:56 on 27 Apr 2020

  DMA results are available in the Python driver through the
	  variable('DMA DISTRIBUTED MULTIPOLES')
  and
	  variable('DMA TOTAL MULTIPOLES')
  commands.

    Psi4 stopped on: Monday, 27 April 2020 02:12PM
    Psi4 wall time for execution: 0:00:19.79

*** Psi4 exiting successfully. Buy a developer a beer!
