                               Psi4 1.3.2 release

  ==> Input File <==

--------------------------------------------------------------------------
import numpy as np
set {scf_type pk
basis cc-pvdz
d_convergence 10
gdma_switch   0
gdma_limit    0
gdma_origin   [ 0.0,  0.0,  0.0 ]
}
molecule test {
    units Angstrom
    0 1
    --
    0 1
    C                0.968263520168002     0.663878949189554     3.165685834259402
    C                1.823263520168002     1.349878949189554     2.114685834259403
    O               -0.305736479831998     1.266878949189554     3.168685834259402
    H                0.870263520168002    -0.395121050810446     2.920685834259402
    H                1.433263520168002     0.766878949189554     4.147685834259402
    H                1.289263520168002     1.280878949189554     1.166685834259402
    H               -0.872736479831999     0.779878949189554     3.784685834259403
    H                2.786553520168001     0.828858949189554     2.011695834259402
    H                1.974163520168002     2.419088949189554     2.324505834259402
    C               -2.120736479831999     0.111878949189554    -3.005314165740598
    C                0.941263520168002    -1.057121050810446    -0.236314165740598
    C                1.250263520168001    -0.335121050810446    -1.367314165740598
    C               -0.376736479831998    -1.377121050810446     0.022685834259402
    C                0.246263520168002     0.041878949189554    -2.251314165740598
    C               -1.396736479831998    -1.003121050810446    -0.874314165740598
    C               -1.077736479831998    -0.278121050810446    -2.008314165740598
    H                1.718263520168002    -1.371121050810446     0.446685834259402
    H                2.276263520168002    -0.069121050810446    -1.582314165740597
    H               -0.626736479831999    -1.935121050810446     0.914685834259402
    H                0.508263520168001     0.599878949189554    -3.139314165740598
    H               -2.421736479831999    -1.282121050810446    -0.672314165740598
    H               -1.998736479831998     1.172878949189554    -3.215314165740598
    H               -3.116736479831999    -0.032121050810446    -2.585314165740598
    H               -2.031836479831998    -0.448281050810446    -3.947824165740598

}
e, wfn = energy('scf', return_wfn=True)
gdma(wfn)
dmavals = variable('DMA DISTRIBUTED MULTIPOLES')
charges = np.array(dmavals)
print(charges)
np.save('SSI-047SER-065PHE-1-dimer.npy', np.array(charges))--------------------------------------------------------------------------

*** tstart() called on ds3
*** at Mon Apr 27 17:45:01 2020

   => Loading Basis Set <=

    Name: CC-PVDZ
    Role: ORBITAL
    Keyword: BASIS
    atoms 1-2, 10-16 entry C          line   138 file /theoryfs2/ds/metcalf/miniconda2/envs/tf2gpu/share/psi4/basis/cc-pvdz.gbs
    atoms 3          entry O          line   198 file /theoryfs2/ds/metcalf/miniconda2/envs/tf2gpu/share/psi4/basis/cc-pvdz.gbs
    atoms 4-9, 17-24 entry H          line    22 file /theoryfs2/ds/metcalf/miniconda2/envs/tf2gpu/share/psi4/basis/cc-pvdz.gbs

         ---------------------------------------------------------
                                   SCF
               by Justin Turney, Rob Parrish, Andy Simmonett
                          and Daniel G. A. Smith
                              RHF Reference
                        1 Threads,    500 MiB Core
         ---------------------------------------------------------

  ==> Geometry <==

    Molecular point group: c1
    Full point group: C1

    Geometry (in Angstrom), charge = 0, multiplicity = 1:

       Center              X                  Y                   Z               Mass
    ------------   -----------------  -----------------  -----------------  -----------------
         C            0.968263520168     0.663878949190     3.165685834259    12.000000000000
         C            1.823263520168     1.349878949190     2.114685834259    12.000000000000
         O           -0.305736479832     1.266878949190     3.168685834259    15.994914619570
         H            0.870263520168    -0.395121050810     2.920685834259     1.007825032230
         H            1.433263520168     0.766878949190     4.147685834259     1.007825032230
         H            1.289263520168     1.280878949190     1.166685834259     1.007825032230
         H           -0.872736479832     0.779878949190     3.784685834259     1.007825032230
         H            2.786553520168     0.828858949190     2.011695834259     1.007825032230
         H            1.974163520168     2.419088949190     2.324505834259     1.007825032230
         C           -2.120736479832     0.111878949190    -3.005314165741    12.000000000000
         C            0.941263520168    -1.057121050810    -0.236314165741    12.000000000000
         C            1.250263520168    -0.335121050810    -1.367314165741    12.000000000000
         C           -0.376736479832    -1.377121050810     0.022685834259    12.000000000000
         C            0.246263520168     0.041878949190    -2.251314165741    12.000000000000
         C           -1.396736479832    -1.003121050810    -0.874314165741    12.000000000000
         C           -1.077736479832    -0.278121050810    -2.008314165741    12.000000000000
         H            1.718263520168    -1.371121050810     0.446685834259     1.007825032230
         H            2.276263520168    -0.069121050810    -1.582314165741     1.007825032230
         H           -0.626736479832    -1.935121050810     0.914685834259     1.007825032230
         H            0.508263520168     0.599878949190    -3.139314165741     1.007825032230
         H           -2.421736479832    -1.282121050810    -0.672314165741     1.007825032230
         H           -1.998736479832     1.172878949190    -3.215314165741     1.007825032230
         H           -3.116736479832    -0.032121050810    -2.585314165741     1.007825032230
         H           -2.031836479832    -0.448281050810    -3.947824165741     1.007825032230

  Running in c1 symmetry.

  Rotational constants: A =      0.07011  B =      0.01930  C =      0.01780 [cm^-1]
  Rotational constants: A =   2101.69904  B =    578.53069  C =    533.73427 [MHz]
  Nuclear repulsion =  493.676448465022418

  Charge       = 0
  Multiplicity = 1
  Electrons    = 76
  Nalpha       = 38
  Nbeta        = 38

  ==> Algorithm <==

  SCF Algorithm Type is PK.
  DIIS enabled.
  MOM disabled.
  Fractional occupation disabled.
  Guess Type is SAD.
  Energy threshold   = 1.00e-06
  Density threshold  = 1.00e-10
  Integral threshold = 0.00e+00

  ==> Primary Basis <==

  Basis Set: CC-PVDZ
    Blend: CC-PVDZ
    Number of shells: 102
    Number of basis function: 210
    Number of Cartesian functions: 220
    Spherical Harmonics?: true
    Max angular momentum: 2

  ==> Pre-Iterations <==

   -------------------------------------------------------
    Irrep   Nso     Nmo     Nalpha   Nbeta   Ndocc  Nsocc
   -------------------------------------------------------
     A        210     210       0       0       0       0
   -------------------------------------------------------
    Total     210     210      38      38      38       0
   -------------------------------------------------------

  ==> Integral Setup <==

  Using integral reordering PK algorithm.
  Sizing the integral batches needed.
  Building batch lookup table.
   Calculation information:
      Number of atoms:                  24
      Number of AO shells:             102
      Number of primitives:            290
      Number of atomic orbitals:       220
      Number of basis functions:       210

      Integral cutoff                 1.00e-12
      Number of threads:                 1

	Batch   1 pq = [       0,    9405] index = [             0,44231715] size =     44231715
	Batch   2 pq = [    9405,   13301] index = [      44231715,88464951] size =     44233236
	Batch   3 pq = [   13301,   16290] index = [      88464951,132690195] size =     44225244
	Batch   4 pq = [   16290,   18810] index = [     132690195,176917455] size =     44227260
	Batch   5 pq = [   18810,   21030] index = [     176917455,221140965] size =     44223510
	Batch   6 pq = [   21030,   22155] index = [     221140965,245433090] size =     24292125
  Task number: 23
  Buffer size: 11059200
  Buffer per thread: 2
  We computed 12034313 shell quartets total.
  Whereas there are 13799631 unique shell quartets.

  ==> DiskJK: Disk-Based J/K Matrices <==

    J tasked:                  Yes
    K tasked:                  Yes
    wK tasked:                  No
    Memory [MiB]:              375
    Schwarz Cutoff:          1E-12

    OpenMP threads:              1

  Minimum eigenvalue in the overlap matrix is 3.0256702874E-04.
  Using Symmetric Orthogonalization.

  SCF Guess: Superposition of Atomic Densities via on-the-fly atomic UHF.

  ==> Iterations <==

                        Total Energy        Delta E     RMS |[F,P]|

   @RHF iter SAD:  -422.70974501603325   -4.22710e+02   0.00000e+00
   @RHF iter   1:  -423.59456444147514   -8.84819e-01   2.99822e-03 DIIS
   @RHF iter   2:  -423.80625358275813   -2.11689e-01   1.38545e-03 DIIS
   @RHF iter   3:  -423.84513853149542   -3.88849e-02   2.86629e-04 DIIS
   @RHF iter   4:  -423.84799305606697   -2.85452e-03   8.65730e-05 DIIS
   @RHF iter   5:  -423.84817369134129   -1.80635e-04   1.75726e-05 DIIS
   @RHF iter   6:  -423.84818389891728   -1.02076e-05   5.16637e-06 DIIS
   @RHF iter   7:  -423.84818484186769   -9.42950e-07   1.85643e-06 DIIS
   @RHF iter   8:  -423.84818498055631   -1.38689e-07   5.75908e-07 DIIS
   @RHF iter   9:  -423.84818500838304   -2.78267e-08   2.69139e-07 DIIS
   @RHF iter  10:  -423.84818501689062   -8.50758e-09   1.12955e-07 DIIS
   @RHF iter  11:  -423.84818501923132   -2.34070e-09   3.48505e-08 DIIS
   @RHF iter  12:  -423.84818501941538   -1.84059e-10   1.24239e-08 DIIS
   @RHF iter  13:  -423.84818501942613   -1.07434e-11   3.82244e-09 DIIS
   @RHF iter  14:  -423.84818501942482    1.30740e-12   1.14779e-09 DIIS
   @RHF iter  15:  -423.84818501942817   -3.35376e-12   4.27619e-10 DIIS
   @RHF iter  16:  -423.84818501942743    7.38964e-13   1.09636e-10 DIIS
   @RHF iter  17:  -423.84818501942880   -1.36424e-12   4.62268e-11 DIIS
  Energy and wave function converged.

  ==> Post-Iterations <==

    Orbital Energies [Eh]
    ---------------------

    Doubly Occupied:

       1A    -20.542762     2A    -11.269028     3A    -11.235774
       4A    -11.234542     5A    -11.232238     6A    -11.229783
       7A    -11.227529     8A    -11.226610     9A    -11.226463
      10A    -11.211106    11A     -1.348592    12A     -1.155410
      13A     -1.048855    14A     -1.008525    15A     -1.001804
      16A     -0.932023    17A     -0.827616    18A     -0.824351
      19A     -0.793111    20A     -0.692477    21A     -0.686915
      22A     -0.638986    23A     -0.632411    24A     -0.628142
      25A     -0.579057    26A     -0.577056    27A     -0.565385
      28A     -0.561556    29A     -0.535070    30A     -0.525099
      31A     -0.514407    32A     -0.486756    33A     -0.484857
      34A     -0.478994    35A     -0.472193    36A     -0.429460
      37A     -0.328984    38A     -0.323637

    Virtual:

      39A      0.134613    40A      0.145685    41A      0.169601
      42A      0.192258    43A      0.203796    44A      0.216282
      45A      0.225940    46A      0.237613    47A      0.247973
      48A      0.261150    49A      0.267000    50A      0.278725
      51A      0.284764    52A      0.287168    53A      0.306256
      54A      0.330934    55A      0.371726    56A      0.378712
      57A      0.388105    58A      0.401325    59A      0.454257
      60A      0.469662    61A      0.479376    62A      0.502955
      63A      0.565379    64A      0.588411    65A      0.609827
      66A      0.618707    67A      0.629069    68A      0.661634
      69A      0.683109    70A      0.695462    71A      0.710631
      72A      0.714382    73A      0.736486    74A      0.745160
      75A      0.749722    76A      0.753169    77A      0.760171
      78A      0.764697    79A      0.771907    80A      0.796764
      81A      0.809683    82A      0.839179    83A      0.848605
      84A      0.853757    85A      0.863569    86A      0.874614
      87A      0.880566    88A      0.887552    89A      0.895142
      90A      0.903238    91A      0.907303    92A      0.910065
      93A      0.927207    94A      0.933501    95A      0.943325
      96A      0.965340    97A      0.973935    98A      1.001563
      99A      1.009539   100A      1.023736   101A      1.059365
     102A      1.119712   103A      1.128888   104A      1.147574
     105A      1.159286   106A      1.170911   107A      1.172992
     108A      1.198562   109A      1.203720   110A      1.239482
     111A      1.253985   112A      1.257772   113A      1.263159
     114A      1.274087   115A      1.303344   116A      1.308351
     117A      1.329513   118A      1.332503   119A      1.339904
     120A      1.420090   121A      1.439691   122A      1.479709
     123A      1.513029   124A      1.524461   125A      1.534207
     126A      1.564339   127A      1.595404   128A      1.613081
     129A      1.622193   130A      1.671824   131A      1.690326
     132A      1.705665   133A      1.737371   134A      1.750107
     135A      1.784446   136A      1.795999   137A      1.804979
     138A      1.820468   139A      1.861714   140A      1.876705
     141A      1.888809   142A      1.893705   143A      1.905138
     144A      1.910345   145A      1.916670   146A      1.925102
     147A      1.927587   148A      1.934046   149A      1.952401
     150A      1.958702   151A      1.968426   152A      1.974259
     153A      1.980341   154A      2.006900   155A      2.010180
     156A      2.015277   157A      2.027058   158A      2.042596
     159A      2.055036   160A      2.087352   161A      2.114350
     162A      2.123602   163A      2.141104   164A      2.159865
     165A      2.174031   166A      2.183118   167A      2.202707
     168A      2.208880   169A      2.246557   170A      2.261018
     171A      2.277062   172A      2.285851   173A      2.295868
     174A      2.301642   175A      2.318109   176A      2.345722
     177A      2.356438   178A      2.458719   179A      2.477306
     180A      2.484631   181A      2.515586   182A      2.525630
     183A      2.542568   184A      2.563604   185A      2.606975
     186A      2.638858   187A      2.738484   188A      2.753059
     189A      2.768312   190A      2.774369   191A      2.796750
     192A      2.798559   193A      2.813732   194A      2.822158
     195A      2.850534   196A      2.883859   197A      2.914787
     198A      2.940023   199A      2.996401   200A      3.026724
     201A      3.045073   202A      3.165723   203A      3.218778
     204A      3.309558   205A      3.334696   206A      3.429018
     207A      3.475244   208A      3.624613   209A      3.990938
     210A      4.117385

    Final Occupation by Irrep:
              A
    DOCC [    38 ]

  @RHF Final Energy:  -423.84818501942880

   => Energetics <=

    Nuclear Repulsion Energy =            493.6764484650224176
    One-Electron Energy =               -1553.6141394965570726
    Two-Electron Energy =                 636.0895060121057440
    Total Energy =                       -423.8481850194287972

Computation Completed

Properties will be evaluated at   0.000000,   0.000000,   0.000000 [a0]

Properties computed using the SCF density matrix

  Nuclear Dipole Moment: [e a0]
     X:     1.6745      Y:     2.1766      Z:     2.4291

  Electronic Dipole Moment: [e a0]
     X:    -1.6559      Y:    -2.6567      Z:    -2.2448

  Dipole Moment: [e a0]
     X:     0.0187      Y:    -0.4801      Z:     0.1843     Total:     0.5146

  Dipole Moment: [D]
     X:     0.0474      Y:    -1.2202      Z:     0.4685     Total:     1.3080

*** tstop() called on ds3 at Mon Apr 27 17:47:06 2020
Module time:
	user time   =      91.30 seconds =       1.52 minutes
	system time =      39.06 seconds =       0.65 minutes
	total time  =        125 seconds =       2.08 minutes
Total time:
	user time   =      91.30 seconds =       1.52 minutes
	system time =      39.06 seconds =       0.65 minutes
	total time  =        125 seconds =       2.08 minutes
                                     G D M A

                                 by Anthony Stone

                           version 2.2.06, 22 June 2011

               Distributed Multipoles from Gaussian wavefunctions

Starting at 17:47:6 on 27 Apr 2020

Using SCF density matrix from file ./SSI/SSI-047SER-065PHE-1-dimer.test.16131.fchk

                         Distributed Multipole Analysis

Standard DMA

Positions and radii in angstrom
Multipole moments in atomic units, ea_0^k for rank k

C          x =  0.968264  y =  0.663879  z =  3.165686 angstrom
           Maximum rank =  0   Radius =  0.650 angstrom
                   Q00  =   0.094490

C          x =  1.823264  y =  1.349879  z =  2.114686 angstrom
           Maximum rank =  0   Radius =  0.650 angstrom
                   Q00  =  -0.241065

O          x = -0.305736  y =  1.266879  z =  3.168686 angstrom
           Maximum rank =  0   Radius =  0.650 angstrom
                   Q00  =  -0.575145

H          x =  0.870264  y = -0.395121  z =  2.920686 angstrom
           Maximum rank =  0   Radius =  0.325 angstrom
                   Q00  =   0.031351

H          x =  1.433264  y =  0.766879  z =  4.147686 angstrom
           Maximum rank =  0   Radius =  0.325 angstrom
                   Q00  =   0.036787

H          x =  1.289264  y =  1.280879  z =  1.166686 angstrom
           Maximum rank =  0   Radius =  0.325 angstrom
                   Q00  =   0.102510

H          x = -0.872736  y =  0.779879  z =  3.784686 angstrom
           Maximum rank =  0   Radius =  0.325 angstrom
                   Q00  =   0.384175

H          x =  2.786554  y =  0.828859  z =  2.011696 angstrom
           Maximum rank =  0   Radius =  0.325 angstrom
                   Q00  =   0.074393

H          x =  1.974164  y =  2.419089  z =  2.324506 angstrom
           Maximum rank =  0   Radius =  0.325 angstrom
                   Q00  =   0.089585

C          x = -2.120736  y =  0.111879  z = -3.005314 angstrom
           Maximum rank =  0   Radius =  0.650 angstrom
                   Q00  =  -0.205341

C          x =  0.941264  y = -1.057121  z = -0.236314 angstrom
           Maximum rank =  0   Radius =  0.650 angstrom
                   Q00  =  -0.073952

C          x =  1.250264  y = -0.335121  z = -1.367314 angstrom
           Maximum rank =  0   Radius =  0.650 angstrom
                   Q00  =  -0.075340

C          x = -0.376736  y = -1.377121  z =  0.022686 angstrom
           Maximum rank =  0   Radius =  0.650 angstrom
                   Q00  =  -0.068871

C          x =  0.246264  y =  0.041879  z = -2.251314 angstrom
           Maximum rank =  0   Radius =  0.650 angstrom
                   Q00  =   0.007690

C          x = -1.396736  y = -1.003121  z = -0.874314 angstrom
           Maximum rank =  0   Radius =  0.650 angstrom
                   Q00  =  -0.079914

C          x = -1.077736  y = -0.278121  z = -2.008314 angstrom
           Maximum rank =  0   Radius =  0.650 angstrom
                   Q00  =  -0.092447

H          x =  1.718264  y = -1.371121  z =  0.446686 angstrom
           Maximum rank =  0   Radius =  0.325 angstrom
                   Q00  =   0.055733

H          x =  2.276264  y = -0.069121  z = -1.582314 angstrom
           Maximum rank =  0   Radius =  0.325 angstrom
                   Q00  =   0.062427

H          x = -0.626736  y = -1.935121  z =  0.914686 angstrom
           Maximum rank =  0   Radius =  0.325 angstrom
                   Q00  =   0.060147

H          x =  0.508264  y =  0.599879  z = -3.139314 angstrom
           Maximum rank =  0   Radius =  0.325 angstrom
                   Q00  =   0.052318

H          x = -2.421736  y = -1.282121  z = -0.672314 angstrom
           Maximum rank =  0   Radius =  0.325 angstrom
                   Q00  =   0.060488

H          x = -1.998736  y =  1.172879  z = -3.215314 angstrom
           Maximum rank =  0   Radius =  0.325 angstrom
                   Q00  =   0.099472

H          x = -3.116736  y = -0.032121  z = -2.585314 angstrom
           Maximum rank =  0   Radius =  0.325 angstrom
                   Q00  =   0.098039

H          x = -2.031836  y = -0.448281  z = -3.947824 angstrom
           Maximum rank =  0   Radius =  0.325 angstrom
                   Q00  =   0.102470

Total multipoles referred to origin at
           x =   0.000000,  y =    0.000000,  z =    0.000000 angstrom
                   Q00  =  -0.000000

Finished at 17:47:6 on 27 Apr 2020

  DMA results are available in the Python driver through the
	  variable('DMA DISTRIBUTED MULTIPOLES')
  and
	  variable('DMA TOTAL MULTIPOLES')
  commands.

    Psi4 stopped on: Monday, 27 April 2020 05:47PM
    Psi4 wall time for execution: 0:02:05.00

*** Psi4 exiting successfully. Buy a developer a beer!
