                               Psi4 1.3.2 release

  ==> Input File <==

--------------------------------------------------------------------------
import numpy as np
set {scf_type pk
basis cc-pvdz
d_convergence 10
gdma_switch   0
gdma_limit    0
gdma_origin   [ 0.0,  0.0,  0.0 ]
}
molecule test {
    units Angstrom
    0 1
    --
    0 1
    C                0.152880022370990     1.018406925961633     2.859021785004402
    C                1.256880022370990     0.605406925961633     0.630021785004402
    C                0.120880022370990     0.956406925961633     1.357021785004402
    C                1.219880022370990     0.572406925961633    -0.759978214995598
    C               -1.047119977629010     1.283406925961633     0.677021785004402
    C                0.038880022370990     0.892406925961633    -1.422978214995598
    C               -1.095119977629010     1.246406925961633    -0.705978214995598
    O               -0.027119977629010     0.863406925961633    -2.776978214995597
    H                2.172880022370990     0.353406925961633     1.147021785004402
    H                2.092880022370990     0.296406925961633    -1.331978214995598
    H                1.011880022370990     0.465406925961633     3.243021785004403
    H               -0.753119977629010     0.536406925961633     3.230021785004402
    H               -1.912119977629010     1.588406925961633     1.240021785004402
    H               -2.004119977629010     1.509406925961633    -1.224978214995598
    H               -0.882119977629010     1.152406925961633    -3.097978214995598
    H                0.187560022370990     2.058066925961633     3.216653785004402
    C               -0.037119977629010    -3.001593074038367     0.856021785004402
    C               -0.444119977629010    -3.702593074038367    -0.436978214995598
    H               -0.870119977629010    -2.423593074038367     1.248021785004402
    H                0.255880022370990    -3.744593074038367     1.595021785004402
    H                0.803880022370990    -2.333593074038367     0.668021785004402
    H               -1.276119977629010    -4.365593074038367    -0.203978214995598
    H               -0.760599977629010    -2.952653074038367    -1.176868214995598
    H                0.388190022370990    -4.302783074038366    -0.833248214995598

}
e, wfn = energy('scf', return_wfn=True)
gdma(wfn)
dmavals = variable('DMA DISTRIBUTED MULTIPOLES')
charges = np.array(dmavals)
print(charges)
np.save('SSI-013TYR-075LEU-2-dimer.npy', np.array(charges))--------------------------------------------------------------------------

*** tstart() called on ds3
*** at Sun Apr 26 20:48:51 2020

   => Loading Basis Set <=

    Name: CC-PVDZ
    Role: ORBITAL
    Keyword: BASIS
    atoms 1-7, 17-18  entry C          line   138 file /theoryfs2/ds/metcalf/miniconda2/envs/tf2gpu/share/psi4/basis/cc-pvdz.gbs
    atoms 8           entry O          line   198 file /theoryfs2/ds/metcalf/miniconda2/envs/tf2gpu/share/psi4/basis/cc-pvdz.gbs
    atoms 9-16, 19-24 entry H          line    22 file /theoryfs2/ds/metcalf/miniconda2/envs/tf2gpu/share/psi4/basis/cc-pvdz.gbs

         ---------------------------------------------------------
                                   SCF
               by Justin Turney, Rob Parrish, Andy Simmonett
                          and Daniel G. A. Smith
                              RHF Reference
                        1 Threads,    500 MiB Core
         ---------------------------------------------------------

  ==> Geometry <==

    Molecular point group: c1
    Full point group: C1

    Geometry (in Angstrom), charge = 0, multiplicity = 1:

       Center              X                  Y                   Z               Mass
    ------------   -----------------  -----------------  -----------------  -----------------
         C            0.152880022371     1.018406925962     2.859021785004    12.000000000000
         C            1.256880022371     0.605406925962     0.630021785004    12.000000000000
         C            0.120880022371     0.956406925962     1.357021785004    12.000000000000
         C            1.219880022371     0.572406925962    -0.759978214996    12.000000000000
         C           -1.047119977629     1.283406925962     0.677021785004    12.000000000000
         C            0.038880022371     0.892406925962    -1.422978214996    12.000000000000
         C           -1.095119977629     1.246406925962    -0.705978214996    12.000000000000
         O           -0.027119977629     0.863406925962    -2.776978214996    15.994914619570
         H            2.172880022371     0.353406925962     1.147021785004     1.007825032230
         H            2.092880022371     0.296406925962    -1.331978214996     1.007825032230
         H            1.011880022371     0.465406925962     3.243021785004     1.007825032230
         H           -0.753119977629     0.536406925962     3.230021785004     1.007825032230
         H           -1.912119977629     1.588406925962     1.240021785004     1.007825032230
         H           -2.004119977629     1.509406925962    -1.224978214996     1.007825032230
         H           -0.882119977629     1.152406925962    -3.097978214996     1.007825032230
         H            0.187560022371     2.058066925962     3.216653785004     1.007825032230
         C           -0.037119977629    -3.001593074038     0.856021785004    12.000000000000
         C           -0.444119977629    -3.702593074038    -0.436978214996    12.000000000000
         H           -0.870119977629    -2.423593074038     1.248021785004     1.007825032230
         H            0.255880022371    -3.744593074038     1.595021785004     1.007825032230
         H            0.803880022371    -2.333593074038     0.668021785004     1.007825032230
         H           -1.276119977629    -4.365593074038    -0.203978214996     1.007825032230
         H           -0.760599977629    -2.952653074038    -1.176868214996     1.007825032230
         H            0.388190022371    -4.302783074038    -0.833248214996     1.007825032230

  Running in c1 symmetry.

  Rotational constants: A =      0.03788  B =      0.03130  C =      0.02095 [cm^-1]
  Rotational constants: A =   1135.57361  B =    938.23927  C =    627.95193 [MHz]
  Nuclear repulsion =  502.879717857971741

  Charge       = 0
  Multiplicity = 1
  Electrons    = 76
  Nalpha       = 38
  Nbeta        = 38

  ==> Algorithm <==

  SCF Algorithm Type is PK.
  DIIS enabled.
  MOM disabled.
  Fractional occupation disabled.
  Guess Type is SAD.
  Energy threshold   = 1.00e-06
  Density threshold  = 1.00e-10
  Integral threshold = 0.00e+00

  ==> Primary Basis <==

  Basis Set: CC-PVDZ
    Blend: CC-PVDZ
    Number of shells: 102
    Number of basis function: 210
    Number of Cartesian functions: 220
    Spherical Harmonics?: true
    Max angular momentum: 2

  ==> Pre-Iterations <==

   -------------------------------------------------------
    Irrep   Nso     Nmo     Nalpha   Nbeta   Ndocc  Nsocc
   -------------------------------------------------------
     A        210     210       0       0       0       0
   -------------------------------------------------------
    Total     210     210      38      38      38       0
   -------------------------------------------------------

  ==> Integral Setup <==

  Using integral reordering PK algorithm.
  Sizing the integral batches needed.
  Building batch lookup table.
   Calculation information:
      Number of atoms:                  24
      Number of AO shells:             102
      Number of primitives:            290
      Number of atomic orbitals:       220
      Number of basis functions:       210

      Integral cutoff                 1.00e-12
      Number of threads:                 1

	Batch   1 pq = [       0,    9405] index = [             0,44231715] size =     44231715
	Batch   2 pq = [    9405,   13301] index = [      44231715,88464951] size =     44233236
	Batch   3 pq = [   13301,   16290] index = [      88464951,132690195] size =     44225244
	Batch   4 pq = [   16290,   18810] index = [     132690195,176917455] size =     44227260
	Batch   5 pq = [   18810,   21030] index = [     176917455,221140965] size =     44223510
	Batch   6 pq = [   21030,   22155] index = [     221140965,245433090] size =     24292125
  Task number: 23
  Buffer size: 11059200
  Buffer per thread: 2
  We computed 12834655 shell quartets total.
  Whereas there are 13799631 unique shell quartets.

  ==> DiskJK: Disk-Based J/K Matrices <==

    J tasked:                  Yes
    K tasked:                  Yes
    wK tasked:                  No
    Memory [MiB]:              375
    Schwarz Cutoff:          1E-12

    OpenMP threads:              1

  Minimum eigenvalue in the overlap matrix is 3.1877369017E-04.
  Using Symmetric Orthogonalization.

  SCF Guess: Superposition of Atomic Densities via on-the-fly atomic UHF.

  ==> Iterations <==

                        Total Energy        Delta E     RMS |[F,P]|

   @RHF iter SAD:  -422.74836892678377   -4.22748e+02   0.00000e+00
   @RHF iter   1:  -423.59951111704169   -8.51142e-01   3.00035e-03 DIIS
   @RHF iter   2:  -423.81792286643793   -2.18412e-01   1.27001e-03 DIIS
   @RHF iter   3:  -423.85356658105758   -3.56437e-02   2.81693e-04 DIIS
   @RHF iter   4:  -423.85641640295762   -2.84982e-03   1.14579e-04 DIIS
   @RHF iter   5:  -423.85675464944700   -3.38246e-04   2.11362e-05 DIIS
   @RHF iter   6:  -423.85677241422917   -1.77648e-05   6.40360e-06 DIIS
   @RHF iter   7:  -423.85677408611286   -1.67188e-06   2.05658e-06 DIIS
   @RHF iter   8:  -423.85677431938331   -2.33270e-07   7.83971e-07 DIIS
   @RHF iter   9:  -423.85677436070142   -4.13181e-08   3.40224e-07 DIIS
   @RHF iter  10:  -423.85677436954518   -8.84376e-09   1.49568e-07 DIIS
   @RHF iter  11:  -423.85677437242578   -2.88060e-09   6.22351e-08 DIIS
   @RHF iter  12:  -423.85677437287978   -4.54008e-10   2.81469e-08 DIIS
   @RHF iter  13:  -423.85677437294748   -6.77005e-11   7.77045e-09 DIIS
   @RHF iter  14:  -423.85677437294947   -1.98952e-12   2.12986e-09 DIIS
   @RHF iter  15:  -423.85677437295146   -1.98952e-12   6.68736e-10 DIIS
   @RHF iter  16:  -423.85677437294981    1.64846e-12   2.02149e-10 DIIS
   @RHF iter  17:  -423.85677437294925    5.68434e-13   8.29982e-11 DIIS
  Energy and wave function converged.

  ==> Post-Iterations <==

    Orbital Energies [Eh]
    ---------------------

    Doubly Occupied:

       1A    -20.582165     2A    -11.298498     3A    -11.237822
       4A    -11.236809     5A    -11.232025     6A    -11.231197
       7A    -11.230046     8A    -11.227336     9A    -11.210927
      10A    -11.205982    11A     -1.403999    12A     -1.153060
      13A     -1.038285    14A     -1.020473    15A     -1.010519
      16A     -0.925809    17A     -0.846412    18A     -0.826941
      19A     -0.803318    20A     -0.734378    21A     -0.671100
      22A     -0.641765    23A     -0.607450    24A     -0.593480
      25A     -0.590156    26A     -0.589102    27A     -0.586592
      28A     -0.571634    29A     -0.568085    30A     -0.526525
      31A     -0.498024    32A     -0.490778    33A     -0.484832
      34A     -0.479259    35A     -0.477194    36A     -0.465310
      37A     -0.340384    38A     -0.300348

    Virtual:

      39A      0.129830    40A      0.156300    41A      0.175726
      42A      0.180523    43A      0.199720    44A      0.211154
      45A      0.221655    46A      0.251236    47A      0.252282
      48A      0.261382    49A      0.270756    50A      0.272166
      51A      0.281450    52A      0.285906    53A      0.303310
      54A      0.312545    55A      0.370626    56A      0.376479
      57A      0.402114    58A      0.430384    59A      0.454916
      60A      0.486854    61A      0.497954    62A      0.509612
      63A      0.582978    64A      0.596884    65A      0.607501
      66A      0.614345    67A      0.647800    68A      0.651005
      69A      0.658123    70A      0.668945    71A      0.685655
      72A      0.695635    73A      0.703677    74A      0.728562
      75A      0.730344    76A      0.738799    77A      0.768005
      78A      0.771779    79A      0.776620    80A      0.785162
      81A      0.820803    82A      0.838904    83A      0.845862
      84A      0.856855    85A      0.869361    86A      0.879414
      87A      0.885407    88A      0.897347    89A      0.899622
      90A      0.902883    91A      0.906420    92A      0.920400
      93A      0.929766    94A      0.938880    95A      0.940076
      96A      0.942730    97A      0.950419    98A      0.977837
      99A      1.002879   100A      1.014415   101A      1.040659
     102A      1.056461   103A      1.125294   104A      1.132349
     105A      1.139517   106A      1.145382   107A      1.146652
     108A      1.178405   109A      1.209832   110A      1.244460
     111A      1.250017   112A      1.251103   113A      1.276472
     114A      1.286529   115A      1.294128   116A      1.314688
     117A      1.318040   118A      1.354753   119A      1.364573
     120A      1.388963   121A      1.476702   122A      1.487781
     123A      1.496097   124A      1.508469   125A      1.530026
     126A      1.557437   127A      1.580464   128A      1.619060
     129A      1.622362   130A      1.678526   131A      1.686774
     132A      1.692888   133A      1.708654   134A      1.736473
     135A      1.744585   136A      1.790816   137A      1.801710
     138A      1.806623   139A      1.862784   140A      1.867784
     141A      1.875224   142A      1.880025   143A      1.895445
     144A      1.915674   145A      1.916639   146A      1.921467
     147A      1.928949   148A      1.944441   149A      1.952566
     150A      1.958433   151A      1.962470   152A      1.966065
     153A      1.973033   154A      1.982948   155A      1.994585
     156A      2.000921   157A      2.035222   158A      2.050161
     159A      2.067105   160A      2.072683   161A      2.080904
     162A      2.108155   163A      2.128124   164A      2.132250
     165A      2.148555   166A      2.174462   167A      2.202015
     168A      2.226200   169A      2.260415   170A      2.276024
     171A      2.297069   172A      2.299805   173A      2.321424
     174A      2.346897   175A      2.369323   176A      2.414521
     177A      2.462457   178A      2.466574   179A      2.468820
     180A      2.485211   181A      2.500424   182A      2.536055
     183A      2.546340   184A      2.574900   185A      2.587523
     186A      2.613807   187A      2.656463   188A      2.756032
     189A      2.773865   190A      2.775624   191A      2.793749
     192A      2.803683   193A      2.815044   194A      2.838127
     195A      2.856307   196A      2.860921   197A      2.902047
     198A      2.955465   199A      2.972205   200A      2.983580
     201A      3.010594   202A      3.096321   203A      3.122923
     204A      3.257486   205A      3.291118   206A      3.352401
     207A      3.586269   208A      3.680973   209A      3.995184
     210A      4.198240

    Final Occupation by Irrep:
              A
    DOCC [    38 ]

  @RHF Final Energy:  -423.85677437294925

   => Energetics <=

    Nuclear Repulsion Energy =            502.8797178579717411
    One-Electron Energy =               -1571.5969514694149893
    Two-Electron Energy =                 644.8604592384939451
    Total Energy =                       -423.8567743729491895

Computation Completed

Properties will be evaluated at   0.000000,   0.000000,   0.000000 [a0]

Properties computed using the SCF density matrix

  Nuclear Dipole Moment: [e a0]
     X:    -1.4487      Y:   -11.3982      Z:     7.2228

  Electronic Dipole Moment: [e a0]
     X:     0.9543      Y:    11.6784      Z:    -7.0224

  Dipole Moment: [e a0]
     X:    -0.4943      Y:     0.2802      Z:     0.2003     Total:     0.6025

  Dipole Moment: [D]
     X:    -1.2565      Y:     0.7121      Z:     0.5092     Total:     1.5314

*** tstop() called on ds3 at Sun Apr 26 20:51:06 2020
Module time:
	user time   =     100.38 seconds =       1.67 minutes
	system time =      40.07 seconds =       0.67 minutes
	total time  =        135 seconds =       2.25 minutes
Total time:
	user time   =     100.38 seconds =       1.67 minutes
	system time =      40.07 seconds =       0.67 minutes
	total time  =        135 seconds =       2.25 minutes
                                     G D M A

                                 by Anthony Stone

                           version 2.2.06, 22 June 2011

               Distributed Multipoles from Gaussian wavefunctions

Starting at 20:51:6 on 26 Apr 2020

Using SCF density matrix from file ./SSI/SSI-013TYR-075LEU-2-dimer.test.10294.fchk

                         Distributed Multipole Analysis

Standard DMA

Positions and radii in angstrom
Multipole moments in atomic units, ea_0^k for rank k

C          x =  0.152880  y =  1.018407  z =  2.859022 angstrom
           Maximum rank =  0   Radius =  0.650 angstrom
                   Q00  =  -0.191932

C          x =  1.256880  y =  0.605407  z =  0.630022 angstrom
           Maximum rank =  0   Radius =  0.650 angstrom
                   Q00  =  -0.046549

C          x =  0.120880  y =  0.956407  z =  1.357022 angstrom
           Maximum rank =  0   Radius =  0.650 angstrom
                   Q00  =  -0.134922

C          x =  1.219880  y =  0.572407  z = -0.759978 angstrom
           Maximum rank =  0   Radius =  0.650 angstrom
                   Q00  =  -0.125394

C          x = -1.047120  y =  1.283407  z =  0.677022 angstrom
           Maximum rank =  0   Radius =  0.650 angstrom
                   Q00  =   0.024791

C          x =  0.038880  y =  0.892407  z = -1.422978 angstrom
           Maximum rank =  0   Radius =  0.650 angstrom
                   Q00  =   0.320133

C          x = -1.095120  y =  1.246407  z = -0.705978 angstrom
           Maximum rank =  0   Radius =  0.650 angstrom
                   Q00  =  -0.181159

O          x = -0.027120  y =  0.863407  z = -2.776978 angstrom
           Maximum rank =  0   Radius =  0.650 angstrom
                   Q00  =  -0.638637

H          x =  2.172880  y =  0.353407  z =  1.147022 angstrom
           Maximum rank =  0   Radius =  0.325 angstrom
                   Q00  =   0.064488

H          x =  2.092880  y =  0.296407  z = -1.331978 angstrom
           Maximum rank =  0   Radius =  0.325 angstrom
                   Q00  =   0.080831

H          x =  1.011880  y =  0.465407  z =  3.243022 angstrom
           Maximum rank =  0   Radius =  0.325 angstrom
                   Q00  =   0.097984

H          x = -0.753120  y =  0.536407  z =  3.230022 angstrom
           Maximum rank =  0   Radius =  0.325 angstrom
                   Q00  =   0.093654

H          x = -1.912120  y =  1.588407  z =  1.240022 angstrom
           Maximum rank =  0   Radius =  0.325 angstrom
                   Q00  =   0.065927

H          x = -2.004120  y =  1.509407  z = -1.224978 angstrom
           Maximum rank =  0   Radius =  0.325 angstrom
                   Q00  =   0.069828

H          x = -0.882120  y =  1.152407  z = -3.097978 angstrom
           Maximum rank =  0   Radius =  0.325 angstrom
                   Q00  =   0.404728

H          x =  0.187560  y =  2.058067  z =  3.216654 angstrom
           Maximum rank =  0   Radius =  0.325 angstrom
                   Q00  =   0.097659

C          x = -0.037120  y = -3.001593  z =  0.856022 angstrom
           Maximum rank =  0   Radius =  0.650 angstrom
                   Q00  =  -0.223744

C          x = -0.444120  y = -3.702593  z = -0.436978 angstrom
           Maximum rank =  0   Radius =  0.650 angstrom
                   Q00  =  -0.242851

H          x = -0.870120  y = -2.423593  z =  1.248022 angstrom
           Maximum rank =  0   Radius =  0.325 angstrom
                   Q00  =   0.080162

H          x =  0.255880  y = -3.744593  z =  1.595022 angstrom
           Maximum rank =  0   Radius =  0.325 angstrom
                   Q00  =   0.069211

H          x =  0.803880  y = -2.333593  z =  0.668022 angstrom
           Maximum rank =  0   Radius =  0.325 angstrom
                   Q00  =   0.084974

H          x = -1.276120  y = -4.365593  z = -0.203978 angstrom
           Maximum rank =  0   Radius =  0.325 angstrom
                   Q00  =   0.072303

H          x = -0.760600  y = -2.952653  z = -1.176868 angstrom
           Maximum rank =  0   Radius =  0.325 angstrom
                   Q00  =   0.082094

H          x =  0.388190  y = -4.302783  z = -0.833248 angstrom
           Maximum rank =  0   Radius =  0.325 angstrom
                   Q00  =   0.076424

Total multipoles referred to origin at
           x =   0.000000,  y =    0.000000,  z =    0.000000 angstrom
                   Q00  =  -0.000000

Finished at 20:51:6 on 26 Apr 2020

  DMA results are available in the Python driver through the
	  variable('DMA DISTRIBUTED MULTIPOLES')
  and
	  variable('DMA TOTAL MULTIPOLES')
  commands.

    Psi4 stopped on: Sunday, 26 April 2020 08:51PM
    Psi4 wall time for execution: 0:02:14.59

*** Psi4 exiting successfully. Buy a developer a beer!
