                               Psi4 1.3.2 release

  ==> Input File <==

--------------------------------------------------------------------------
import numpy as np
set {scf_type pk
basis cc-pvdz
d_convergence 10
gdma_switch   0
gdma_limit    0
gdma_origin   [ 0.0,  0.0,  0.0 ]
}
molecule test {
    units Angstrom
    0 1
    --
    0 1
    C                0.813458716178646    -1.212078506916040     1.187663239192839
    C                2.217458716178646    -1.858078506916040     1.059663239192839
    H                0.041458716178646    -1.902078506916040     0.847663239192839
    H                0.613458716178646    -0.973078506916040     2.233663239192839
    H                0.767458716178646    -0.297078506916040     0.600663239192839
    H                2.252458716178646    -2.757078506916040     1.670663239192839
    H                2.426155716178646    -2.111747106916039     0.009854739192839
    H                2.950348716178646    -1.130154606916040     1.437815239192839
    C               -1.629541283821354     0.767921493083960    -0.966336760807161
    C               -1.396541283821354     2.296921493083961    -1.284336760807161
    H               -1.463541283821354     0.577921493083960     0.094663239192839
    H               -2.658541283821354     0.509921493083960    -1.210336760807161
    H               -0.974541283821354     0.141921493083960    -1.565336760807161
    H               -1.542541283821354     2.459921493083961    -2.351336760807161
    H               -0.378971783821354     2.587655493083961    -0.984293360807161
    H               -2.090770283821354     2.957147493083960    -0.743829860807161

}
e, wfn = energy('scf', return_wfn=True)
gdma(wfn)
dmavals = variable('DMA DISTRIBUTED MULTIPOLES')
charges = np.array(dmavals)
print(charges)
np.save('SSI-034VAL-046LEU-1-dimer.npy', np.array(charges))--------------------------------------------------------------------------

*** tstart() called on ds3
*** at Mon Apr 27 01:19:04 2020

   => Loading Basis Set <=

    Name: CC-PVDZ
    Role: ORBITAL
    Keyword: BASIS
    atoms 1-2, 9-10  entry C          line   138 file /theoryfs2/ds/metcalf/miniconda2/envs/tf2gpu/share/psi4/basis/cc-pvdz.gbs
    atoms 3-8, 11-16 entry H          line    22 file /theoryfs2/ds/metcalf/miniconda2/envs/tf2gpu/share/psi4/basis/cc-pvdz.gbs

         ---------------------------------------------------------
                                   SCF
               by Justin Turney, Rob Parrish, Andy Simmonett
                          and Daniel G. A. Smith
                              RHF Reference
                        1 Threads,    500 MiB Core
         ---------------------------------------------------------

  ==> Geometry <==

    Molecular point group: c1
    Full point group: C1

    Geometry (in Angstrom), charge = 0, multiplicity = 1:

       Center              X                  Y                   Z               Mass
    ------------   -----------------  -----------------  -----------------  -----------------
         C            0.813458716179    -1.212078506916     1.187663239193    12.000000000000
         C            2.217458716179    -1.858078506916     1.059663239193    12.000000000000
         H            0.041458716179    -1.902078506916     0.847663239193     1.007825032230
         H            0.613458716179    -0.973078506916     2.233663239193     1.007825032230
         H            0.767458716179    -0.297078506916     0.600663239193     1.007825032230
         H            2.252458716179    -2.757078506916     1.670663239193     1.007825032230
         H            2.426155716179    -2.111747106916     0.009854739193     1.007825032230
         H            2.950348716179    -1.130154606916     1.437815239193     1.007825032230
         C           -1.629541283821     0.767921493084    -0.966336760807    12.000000000000
         C           -1.396541283821     2.296921493084    -1.284336760807    12.000000000000
         H           -1.463541283821     0.577921493084     0.094663239193     1.007825032230
         H           -2.658541283821     0.509921493084    -1.210336760807     1.007825032230
         H           -0.974541283821     0.141921493084    -1.565336760807     1.007825032230
         H           -1.542541283821     2.459921493084    -2.351336760807     1.007825032230
         H           -0.378971783821     2.587655493084    -0.984293360807     1.007825032230
         H           -2.090770283821     2.957147493084    -0.743829860807     1.007825032230

  Running in c1 symmetry.

  Rotational constants: A =      0.52193  B =      0.04299  C =      0.04187 [cm^-1]
  Rotational constants: A =  15646.93274  B =   1288.88246  C =   1255.13973 [MHz]
  Nuclear repulsion =  119.474806439357238

  Charge       = 0
  Multiplicity = 1
  Electrons    = 36
  Nalpha       = 18
  Nbeta        = 18

  ==> Algorithm <==

  SCF Algorithm Type is PK.
  DIIS enabled.
  MOM disabled.
  Fractional occupation disabled.
  Guess Type is SAD.
  Energy threshold   = 1.00e-06
  Density threshold  = 1.00e-10
  Integral threshold = 0.00e+00

  ==> Primary Basis <==

  Basis Set: CC-PVDZ
    Blend: CC-PVDZ
    Number of shells: 60
    Number of basis function: 116
    Number of Cartesian functions: 120
    Spherical Harmonics?: true
    Max angular momentum: 2

  ==> Pre-Iterations <==

   -------------------------------------------------------
    Irrep   Nso     Nmo     Nalpha   Nbeta   Ndocc  Nsocc
   -------------------------------------------------------
     A        116     116       0       0       0       0
   -------------------------------------------------------
    Total     116     116      18      18      18       0
   -------------------------------------------------------

  ==> Integral Setup <==

  Using integral reordering PK algorithm.
  Sizing the integral batches needed.
  Building batch lookup table.
   Calculation information:
      Number of atoms:                  16
      Number of AO shells:              60
      Number of primitives:            148
      Number of atomic orbitals:       120
      Number of basis functions:       116

      Integral cutoff                 1.00e-12
      Number of threads:                 1

	Batch   1 pq = [       0,    6786] index = [             0,23028291] size =     23028291
  Task number: 3
  Buffer size: 11059200
  Buffer per thread: 2
  We computed 1355981 shell quartets total.
  Whereas there are 1675365 unique shell quartets.

  ==> DiskJK: Disk-Based J/K Matrices <==

    J tasked:                  Yes
    K tasked:                  Yes
    wK tasked:                  No
    Memory [MiB]:              375
    Schwarz Cutoff:          1E-12

    OpenMP threads:              1

  Minimum eigenvalue in the overlap matrix is 7.3892048648E-03.
  Using Symmetric Orthogonalization.

  SCF Guess: Superposition of Atomic Densities via on-the-fly atomic UHF.

  ==> Iterations <==

                        Total Energy        Delta E     RMS |[F,P]|

   @RHF iter SAD:  -157.23235692292059   -1.57232e+02   0.00000e+00
   @RHF iter   1:  -158.31336880523273   -1.08101e+00   4.09999e-03 DIIS
   @RHF iter   2:  -158.44170579279722   -1.28337e-01   1.71949e-03 DIIS
   @RHF iter   3:  -158.46334667101567   -2.16409e-02   3.43836e-04 DIIS
   @RHF iter   4:  -158.46512452088899   -1.77785e-03   3.89071e-05 DIIS
   @RHF iter   5:  -158.46514834813919   -2.38273e-05   6.95271e-06 DIIS
   @RHF iter   6:  -158.46514904148736   -6.93348e-07   1.37160e-06 DIIS
   @RHF iter   7:  -158.46514905958674   -1.80994e-08   3.41630e-07 DIIS
   @RHF iter   8:  -158.46514906077658   -1.18985e-09   4.29206e-08 DIIS
   @RHF iter   9:  -158.46514906080873   -3.21450e-11   8.02775e-09 DIIS
   @RHF iter  10:  -158.46514906080949   -7.67386e-13   2.22933e-09 DIIS
   @RHF iter  11:  -158.46514906080981   -3.12639e-13   6.24615e-10 DIIS
   @RHF iter  12:  -158.46514906081001   -1.98952e-13   1.38477e-10 DIIS
   @RHF iter  13:  -158.46514906080955    4.54747e-13   2.25154e-11 DIIS
  Energy and wave function converged.

  ==> Post-Iterations <==

    Orbital Energies [Eh]
    ---------------------

    Doubly Occupied:

       1A    -11.222926     2A    -11.220805     3A    -11.220018
       4A    -11.217358     5A     -1.013235     6A     -1.005774
       7A     -0.843246     8A     -0.836598     9A     -0.599584
      10A     -0.595568    11A     -0.593177    12A     -0.587778
      13A     -0.499012    14A     -0.496523    15A     -0.490911
      16A     -0.487480    17A     -0.483894    18A     -0.482247

    Virtual:

      19A      0.173320    20A      0.195297    21A      0.221855
      22A      0.238928    23A      0.245314    24A      0.258779
      25A      0.263077    26A      0.272583    27A      0.280850
      28A      0.288851    29A      0.291131    30A      0.323368
      31A      0.384290    32A      0.401332    33A      0.575524
      34A      0.592428    35A      0.599878    36A      0.603153
      37A      0.614437    38A      0.639444    39A      0.664338
      40A      0.683351    41A      0.696055    42A      0.788297
      43A      0.821228    44A      0.858564    45A      0.884502
      46A      0.891629    47A      0.893399    48A      0.895430
      49A      0.896599    50A      0.899292    51A      0.909930
      52A      0.918408    53A      0.935847    54A      0.940138
      55A      0.977939    56A      0.994660    57A      1.118586
      58A      1.122838    59A      1.126489    60A      1.148368
      61A      1.232980    62A      1.240150    63A      1.453083
      64A      1.463606    65A      1.473083    66A      1.482173
      67A      1.562589    68A      1.588498    69A      1.676380
      70A      1.685892    71A      1.694763    72A      1.696465
      73A      1.840361    74A      1.858043    75A      1.863862
      76A      1.879269    77A      1.883955    78A      1.909583
      79A      1.920182    80A      1.931969    81A      1.938108
      82A      1.942404    83A      1.944599    84A      1.949718
      85A      1.957304    86A      1.965829    87A      1.980729
      88A      2.003304    89A      2.081151    90A      2.108195
      91A      2.109488    92A      2.117268    93A      2.282127
      94A      2.296282    95A      2.308791    96A      2.313871
      97A      2.448181    98A      2.450595    99A      2.455699
     100A      2.471620   101A      2.542851   102A      2.560599
     103A      2.567842   104A      2.572858   105A      2.755843
     106A      2.766348   107A      2.786783   108A      2.791583
     109A      2.830294   110A      2.841155   111A      2.850312
     112A      2.857336   113A      2.929680   114A      2.945618
     115A      2.951276   116A      2.971315

    Final Occupation by Irrep:
              A
    DOCC [    18 ]

  @RHF Final Energy:  -158.46514906080955

   => Energetics <=

    Nuclear Repulsion Energy =            119.4748064393572378
    One-Electron Energy =                -448.0876447860064218
    Two-Electron Energy =                 170.1476892858396468
    Total Energy =                       -158.4651490608095514

Computation Completed

Properties will be evaluated at   0.000000,   0.000000,   0.000000 [a0]

Properties computed using the SCF density matrix

  Nuclear Dipole Moment: [e a0]
     X:    -0.0540      Y:     0.0593      Z:     0.0374

  Electronic Dipole Moment: [e a0]
     X:     0.0374      Y:    -0.0667      Z:    -0.0322

  Dipole Moment: [e a0]
     X:    -0.0166      Y:    -0.0074      Z:     0.0051     Total:     0.0189

  Dipole Moment: [D]
     X:    -0.0422      Y:    -0.0188      Z:     0.0131     Total:     0.0480

*** tstop() called on ds3 at Mon Apr 27 01:19:13 2020
Module time:
	user time   =       6.69 seconds =       0.11 minutes
	system time =       2.72 seconds =       0.05 minutes
	total time  =          9 seconds =       0.15 minutes
Total time:
	user time   =       6.69 seconds =       0.11 minutes
	system time =       2.72 seconds =       0.05 minutes
	total time  =          9 seconds =       0.15 minutes
                                     G D M A

                                 by Anthony Stone

                           version 2.2.06, 22 June 2011

               Distributed Multipoles from Gaussian wavefunctions

Starting at 1:19:13 on 27 Apr 2020

Using SCF density matrix from file ./SSI/SSI-034VAL-046LEU-1-dimer.test.12323.fchk

                         Distributed Multipole Analysis

Standard DMA

Positions and radii in angstrom
Multipole moments in atomic units, ea_0^k for rank k

C          x =  0.813459  y = -1.212079  z =  1.187663 angstrom
           Maximum rank =  0   Radius =  0.650 angstrom
                   Q00  =  -0.242981

C          x =  2.217459  y = -1.858079  z =  1.059663 angstrom
           Maximum rank =  0   Radius =  0.650 angstrom
                   Q00  =  -0.243063

H          x =  0.041459  y = -1.902079  z =  0.847663 angstrom
           Maximum rank =  0   Radius =  0.325 angstrom
                   Q00  =   0.080155

H          x =  0.613459  y = -0.973079  z =  2.233663 angstrom
           Maximum rank =  0   Radius =  0.325 angstrom
                   Q00  =   0.078890

H          x =  0.767459  y = -0.297079  z =  0.600663 angstrom
           Maximum rank =  0   Radius =  0.325 angstrom
                   Q00  =   0.083302

H          x =  2.252459  y = -2.757079  z =  1.670663 angstrom
           Maximum rank =  0   Radius =  0.325 angstrom
                   Q00  =   0.082689

H          x =  2.426156  y = -2.111747  z =  0.009855 angstrom
           Maximum rank =  0   Radius =  0.325 angstrom
                   Q00  =   0.081944

H          x =  2.950349  y = -1.130155  z =  1.437815 angstrom
           Maximum rank =  0   Radius =  0.325 angstrom
                   Q00  =   0.078943

C          x = -1.629541  y =  0.767921  z = -0.966337 angstrom
           Maximum rank =  0   Radius =  0.650 angstrom
                   Q00  =  -0.239627

C          x = -1.396541  y =  2.296921  z = -1.284337 angstrom
           Maximum rank =  0   Radius =  0.650 angstrom
                   Q00  =  -0.262888

H          x = -1.463541  y =  0.577921  z =  0.094663 angstrom
           Maximum rank =  0   Radius =  0.325 angstrom
                   Q00  =   0.087009

H          x = -2.658541  y =  0.509921  z = -1.210337 angstrom
           Maximum rank =  0   Radius =  0.325 angstrom
                   Q00  =   0.081922

H          x = -0.974541  y =  0.141921  z = -1.565337 angstrom
           Maximum rank =  0   Radius =  0.325 angstrom
                   Q00  =   0.085540

H          x = -1.542541  y =  2.459921  z = -2.351337 angstrom
           Maximum rank =  0   Radius =  0.325 angstrom
                   Q00  =   0.083679

H          x = -0.378972  y =  2.587655  z = -0.984293 angstrom
           Maximum rank =  0   Radius =  0.325 angstrom
                   Q00  =   0.080343

H          x = -2.090770  y =  2.957147  z = -0.743830 angstrom
           Maximum rank =  0   Radius =  0.325 angstrom
                   Q00  =   0.084144

Total multipoles referred to origin at
           x =   0.000000,  y =    0.000000,  z =    0.000000 angstrom
                   Q00  =  -0.000000

Finished at 1:19:13 on 27 Apr 2020

  DMA results are available in the Python driver through the
	  variable('DMA DISTRIBUTED MULTIPOLES')
  and
	  variable('DMA TOTAL MULTIPOLES')
  commands.

    Psi4 stopped on: Monday, 27 April 2020 01:19AM
    Psi4 wall time for execution: 0:00:09.17

*** Psi4 exiting successfully. Buy a developer a beer!
