                               Psi4 1.3.2 release

  ==> Input File <==

--------------------------------------------------------------------------
import numpy as np
set {scf_type pk
basis cc-pvdz
d_convergence 10
gdma_switch   0
gdma_limit    0
gdma_origin   [ 0.0,  0.0,  0.0 ]
}
molecule test {
    units Angstrom
    0 1
    --
    0 1
    C               -2.354388773869321     0.300916067705103    -0.248686138588203
    C               -1.762388773869321    -1.003083932294897    -0.774686138588204
    H               -2.459388773869321     0.263916067705103     0.836313861411796
    H               -1.682388773869321     1.115916067705103    -0.506686138588204
    H               -3.309388773869321     0.489916067705103    -0.722686138588204
    H               -0.694388773869321    -0.997083932294897    -0.614686138588203
    H               -1.928388773869321    -1.068083932294897    -1.848686138588204
    H               -2.166152773869321    -1.896412932294897    -0.275749138588204
    C                1.464611226130679     0.282916067705103     0.023313861411796
    C                2.641611226130679     0.420916067705103     1.011313861411796
    H                1.628611226130679     0.919916067705103    -0.841686138588204
    H                1.421611226130679    -0.742083932294897    -0.338686138588204
    H                0.525611226130679     0.541916067705103     0.510313861411796
    H                2.482611226130679    -0.226083932294897     1.872313861411796
    H                2.764935226130679     1.464586067705103     1.336183861411796
    H                3.542394226130679     0.113766067705103     0.459723861411796

}
e, wfn = energy('scf', return_wfn=True)
gdma(wfn)
dmavals = variable('DMA DISTRIBUTED MULTIPOLES')
charges = np.array(dmavals)
print(charges)
np.save('SSI-113ILE-185VAL-1-dimer.npy', np.array(charges))--------------------------------------------------------------------------

*** tstart() called on ds3
*** at Sun Apr 26 17:37:04 2020

   => Loading Basis Set <=

    Name: CC-PVDZ
    Role: ORBITAL
    Keyword: BASIS
    atoms 1-2, 9-10  entry C          line   138 file /theoryfs2/ds/metcalf/miniconda2/envs/tf2gpu/share/psi4/basis/cc-pvdz.gbs
    atoms 3-8, 11-16 entry H          line    22 file /theoryfs2/ds/metcalf/miniconda2/envs/tf2gpu/share/psi4/basis/cc-pvdz.gbs

         ---------------------------------------------------------
                                   SCF
               by Justin Turney, Rob Parrish, Andy Simmonett
                          and Daniel G. A. Smith
                              RHF Reference
                        1 Threads,    500 MiB Core
         ---------------------------------------------------------

  ==> Geometry <==

    Molecular point group: c1
    Full point group: C1

    Geometry (in Angstrom), charge = 0, multiplicity = 1:

       Center              X                  Y                   Z               Mass
    ------------   -----------------  -----------------  -----------------  -----------------
         C           -2.354388773869     0.300916067705    -0.248686138588    12.000000000000
         C           -1.762388773869    -1.003083932295    -0.774686138588    12.000000000000
         H           -2.459388773869     0.263916067705     0.836313861412     1.007825032230
         H           -1.682388773869     1.115916067705    -0.506686138588     1.007825032230
         H           -3.309388773869     0.489916067705    -0.722686138588     1.007825032230
         H           -0.694388773869    -0.997083932295    -0.614686138588     1.007825032230
         H           -1.928388773869    -1.068083932295    -1.848686138588     1.007825032230
         H           -2.166152773869    -1.896412932295    -0.275749138588     1.007825032230
         C            1.464611226131     0.282916067705     0.023313861412    12.000000000000
         C            2.641611226131     0.420916067705     1.011313861412    12.000000000000
         H            1.628611226131     0.919916067705    -0.841686138588     1.007825032230
         H            1.421611226131    -0.742083932295    -0.338686138588     1.007825032230
         H            0.525611226131     0.541916067705     0.510313861412     1.007825032230
         H            2.482611226131    -0.226083932295     1.872313861412     1.007825032230
         H            2.764935226131     1.464586067705     1.336183861412     1.007825032230
         H            3.542394226131     0.113766067705     0.459723861412     1.007825032230

  Running in c1 symmetry.

  Rotational constants: A =      0.48873  B =      0.05464  C =      0.05202 [cm^-1]
  Rotational constants: A =  14651.78521  B =   1638.05382  C =   1559.48835 [MHz]
  Nuclear repulsion =  124.804352903560229

  Charge       = 0
  Multiplicity = 1
  Electrons    = 36
  Nalpha       = 18
  Nbeta        = 18

  ==> Algorithm <==

  SCF Algorithm Type is PK.
  DIIS enabled.
  MOM disabled.
  Fractional occupation disabled.
  Guess Type is SAD.
  Energy threshold   = 1.00e-06
  Density threshold  = 1.00e-10
  Integral threshold = 0.00e+00

  ==> Primary Basis <==

  Basis Set: CC-PVDZ
    Blend: CC-PVDZ
    Number of shells: 60
    Number of basis function: 116
    Number of Cartesian functions: 120
    Spherical Harmonics?: true
    Max angular momentum: 2

  ==> Pre-Iterations <==

   -------------------------------------------------------
    Irrep   Nso     Nmo     Nalpha   Nbeta   Ndocc  Nsocc
   -------------------------------------------------------
     A        116     116       0       0       0       0
   -------------------------------------------------------
    Total     116     116      18      18      18       0
   -------------------------------------------------------

  ==> Integral Setup <==

  Using integral reordering PK algorithm.
  Sizing the integral batches needed.
  Building batch lookup table.
   Calculation information:
      Number of atoms:                  16
      Number of AO shells:              60
      Number of primitives:            148
      Number of atomic orbitals:       120
      Number of basis functions:       116

      Integral cutoff                 1.00e-12
      Number of threads:                 1

	Batch   1 pq = [       0,    6786] index = [             0,23028291] size =     23028291
  Task number: 3
  Buffer size: 11059200
  Buffer per thread: 2
  We computed 1495385 shell quartets total.
  Whereas there are 1675365 unique shell quartets.

  ==> DiskJK: Disk-Based J/K Matrices <==

    J tasked:                  Yes
    K tasked:                  Yes
    wK tasked:                  No
    Memory [MiB]:              375
    Schwarz Cutoff:          1E-12

    OpenMP threads:              1

  Minimum eigenvalue in the overlap matrix is 6.4198545448E-03.
  Using Symmetric Orthogonalization.

  SCF Guess: Superposition of Atomic Densities via on-the-fly atomic UHF.

  ==> Iterations <==

                        Total Energy        Delta E     RMS |[F,P]|

   @RHF iter SAD:  -157.39151760962093   -1.57392e+02   0.00000e+00
   @RHF iter   1:  -158.30437007811804   -9.12852e-01   4.19479e-03 DIIS
   @RHF iter   2:  -158.43740808839155   -1.33038e-01   1.76124e-03 DIIS
   @RHF iter   3:  -158.46003932453215   -2.26312e-02   3.50218e-04 DIIS
   @RHF iter   4:  -158.46187553192462   -1.83621e-03   3.93654e-05 DIIS
   @RHF iter   5:  -158.46190031418530   -2.47823e-05   6.64044e-06 DIIS
   @RHF iter   6:  -158.46190098659486   -6.72410e-07   1.08498e-06 DIIS
   @RHF iter   7:  -158.46190099931044   -1.27156e-08   3.43600e-07 DIIS
   @RHF iter   8:  -158.46190100043194   -1.12149e-09   5.66147e-08 DIIS
   @RHF iter   9:  -158.46190100048878   -5.68434e-11   1.36398e-08 DIIS
   @RHF iter  10:  -158.46190100049154   -2.75691e-12   3.61871e-09 DIIS
   @RHF iter  11:  -158.46190100049154    0.00000e+00   1.02633e-09 DIIS
   @RHF iter  12:  -158.46190100049165   -1.13687e-13   2.33517e-10 DIIS
   @RHF iter  13:  -158.46190100049222   -5.68434e-13   4.02931e-11 DIIS
  Energy and wave function converged.

  ==> Post-Iterations <==

    Orbital Energies [Eh]
    ---------------------

    Doubly Occupied:

       1A    -11.220988     2A    -11.217850     3A    -11.214589
       4A    -11.211908     5A     -1.020372     6A     -1.015029
       7A     -0.841147     8A     -0.835576     9A     -0.608086
      10A     -0.598467    11A     -0.596834    12A     -0.591826
      13A     -0.503976    14A     -0.497984    15A     -0.493240
      16A     -0.486966    17A     -0.484351    18A     -0.473656

    Virtual:

      19A      0.177768    20A      0.197910    21A      0.227596
      22A      0.235337    23A      0.248409    24A      0.257251
      25A      0.265223    26A      0.282844    27A      0.288025
      28A      0.295201    29A      0.304295    30A      0.356747
      31A      0.392042    32A      0.410595    33A      0.577629
      34A      0.593282    35A      0.605850    36A      0.608891
      37A      0.613976    38A      0.650411    39A      0.669150
      40A      0.712806    41A      0.737657    42A      0.775532
      43A      0.845385    44A      0.873093    45A      0.885058
      46A      0.891543    47A      0.894146    48A      0.895768
      49A      0.898973    50A      0.911155    51A      0.918657
      52A      0.931685    53A      0.949843    54A      0.963132
      55A      0.984614    56A      1.015085    57A      1.113921
      58A      1.120120    59A      1.132487    60A      1.166881
      61A      1.237689    62A      1.304599    63A      1.467064
      64A      1.480385    65A      1.485031    66A      1.502397
      67A      1.571430    68A      1.605526    69A      1.676133
      70A      1.691597    71A      1.696004    72A      1.703845
      73A      1.850729    74A      1.858945    75A      1.871427
      76A      1.882796    77A      1.890641    78A      1.911759
      79A      1.928538    80A      1.941456    81A      1.944016
      82A      1.947721    83A      1.951008    84A      1.952994
      85A      1.956773    86A      1.984148    87A      2.020685
      88A      2.032726    89A      2.104495    90A      2.117770
      91A      2.146804    92A      2.172504    93A      2.294826
      94A      2.301957    95A      2.308305    96A      2.349752
      97A      2.440113    98A      2.442977    99A      2.461350
     100A      2.484206   101A      2.563023   102A      2.581061
     103A      2.590823   104A      2.614464   105A      2.763870
     106A      2.781886   107A      2.792879   108A      2.798628
     109A      2.838945   110A      2.844455   111A      2.861289
     112A      2.880774   113A      2.950846   114A      2.954785
     115A      2.967428   116A      2.987994

    Final Occupation by Irrep:
              A
    DOCC [    18 ]

  @RHF Final Energy:  -158.46190100049222

   => Energetics <=

    Nuclear Repulsion Energy =            124.8043529035602290
    One-Electron Energy =                -458.7068219785297174
    Two-Electron Energy =                 175.4405680744772553
    Total Energy =                       -158.4619010004922188

Computation Completed

Properties will be evaluated at   0.000000,   0.000000,   0.000000 [a0]

Properties computed using the SCF density matrix

  Nuclear Dipole Moment: [e a0]
     X:     0.1178      Y:    -0.0186      Z:    -0.1256

  Electronic Dipole Moment: [e a0]
     X:    -0.0720      Y:     0.0278      Z:     0.1166

  Dipole Moment: [e a0]
     X:     0.0458      Y:     0.0092      Z:    -0.0091     Total:     0.0476

  Dipole Moment: [D]
     X:     0.1165      Y:     0.0235      Z:    -0.0231     Total:     0.1210

*** tstop() called on ds3 at Sun Apr 26 17:37:16 2020
Module time:
	user time   =       8.08 seconds =       0.13 minutes
	system time =       2.81 seconds =       0.05 minutes
	total time  =         12 seconds =       0.20 minutes
Total time:
	user time   =       8.08 seconds =       0.13 minutes
	system time =       2.81 seconds =       0.05 minutes
	total time  =         12 seconds =       0.20 minutes
                                     G D M A

                                 by Anthony Stone

                           version 2.2.06, 22 June 2011

               Distributed Multipoles from Gaussian wavefunctions

Starting at 17:37:16 on 26 Apr 2020

Using SCF density matrix from file ./SSI/SSI-113ILE-185VAL-1-dimer.test.23280.fchk

                         Distributed Multipole Analysis

Standard DMA

Positions and radii in angstrom
Multipole moments in atomic units, ea_0^k for rank k

C          x = -2.354389  y =  0.300916  z = -0.248686 angstrom
           Maximum rank =  0   Radius =  0.650 angstrom
                   Q00  =  -0.245486

C          x = -1.762389  y = -1.003084  z = -0.774686 angstrom
           Maximum rank =  0   Radius =  0.650 angstrom
                   Q00  =  -0.232212

H          x = -2.459389  y =  0.263916  z =  0.836314 angstrom
           Maximum rank =  0   Radius =  0.325 angstrom
                   Q00  =   0.078470

H          x = -1.682389  y =  1.115916  z = -0.506686 angstrom
           Maximum rank =  0   Radius =  0.325 angstrom
                   Q00  =   0.076392

H          x = -3.309389  y =  0.489916  z = -0.722686 angstrom
           Maximum rank =  0   Radius =  0.325 angstrom
                   Q00  =   0.080342

H          x = -0.694389  y = -0.997084  z = -0.614686 angstrom
           Maximum rank =  0   Radius =  0.325 angstrom
                   Q00  =   0.087499

H          x = -1.928389  y = -1.068084  z = -1.848686 angstrom
           Maximum rank =  0   Radius =  0.325 angstrom
                   Q00  =   0.075911

H          x = -2.166153  y = -1.896413  z = -0.275749 angstrom
           Maximum rank =  0   Radius =  0.325 angstrom
                   Q00  =   0.076959

C          x =  1.464611  y =  0.282916  z =  0.023314 angstrom
           Maximum rank =  0   Radius =  0.650 angstrom
                   Q00  =  -0.241406

C          x =  2.641611  y =  0.420916  z =  1.011314 angstrom
           Maximum rank =  0   Radius =  0.650 angstrom
                   Q00  =  -0.236868

H          x =  1.628611  y =  0.919916  z = -0.841686 angstrom
           Maximum rank =  0   Radius =  0.325 angstrom
                   Q00  =   0.082537

H          x =  1.421611  y = -0.742084  z = -0.338686 angstrom
           Maximum rank =  0   Radius =  0.325 angstrom
                   Q00  =   0.076834

H          x =  0.525611  y =  0.541916  z =  0.510314 angstrom
           Maximum rank =  0   Radius =  0.325 angstrom
                   Q00  =   0.079428

H          x =  2.482611  y = -0.226084  z =  1.872314 angstrom
           Maximum rank =  0   Radius =  0.325 angstrom
                   Q00  =   0.083232

H          x =  2.764935  y =  1.464586  z =  1.336184 angstrom
           Maximum rank =  0   Radius =  0.325 angstrom
                   Q00  =   0.081663

H          x =  3.542394  y =  0.113766  z =  0.459724 angstrom
           Maximum rank =  0   Radius =  0.325 angstrom
                   Q00  =   0.076704

Total multipoles referred to origin at
           x =   0.000000,  y =    0.000000,  z =    0.000000 angstrom
                   Q00  =  -0.000000

Finished at 17:37:16 on 26 Apr 2020

  DMA results are available in the Python driver through the
	  variable('DMA DISTRIBUTED MULTIPOLES')
  and
	  variable('DMA TOTAL MULTIPOLES')
  commands.

    Psi4 stopped on: Sunday, 26 April 2020 05:37PM
    Psi4 wall time for execution: 0:00:11.75

*** Psi4 exiting successfully. Buy a developer a beer!
