                               Psi4 1.3.2 release

  ==> Input File <==

--------------------------------------------------------------------------
import numpy as np
set {scf_type pk
basis cc-pvdz
d_convergence 10
gdma_switch   0
gdma_limit    0
gdma_origin   [ 0.0,  0.0,  0.0 ]
}
molecule test {
    units Angstrom
    0 1
    --
    0 1
    C                2.844348046536043    -2.258583931760366    -0.502980966347239
    C                3.239348046536043    -1.020583931760367    -1.336980966347239
    H                3.668348046536043    -2.971583931760367    -0.463980966347239
    H                2.587348046536043    -1.969583931760367     0.516019033652761
    H                1.989348046536043    -2.772583931760367    -0.939980966347239
    H                2.368348046536043    -0.383583931760367    -1.478980966347239
    H                3.603756046536043    -1.316930931760367    -2.331658966347239
    H                3.966971046536043    -0.400490931760367    -0.792876966347239
    C               -0.535651953463957    -1.245583931760367    -0.828980966347239
    C               -1.562651953463957    -1.352583931760367    -1.970980966347239
    C               -0.673651953463957    -0.016583931760367     0.048019033652761
    C               -1.873651953463957     0.701416068239633     0.128019033652761
    C                0.409348046536043     0.405416068239633     0.822019033652761
    C               -1.976651953463957     1.830416068239633     0.944019033652761
    C                0.310348046536043     1.531416068239633     1.642019033652761
    C               -0.883651953463957     2.244416068239633     1.703019033652761
    H               -0.607651953463957    -2.132583931760367    -0.199980966347239
    H                0.444348046536043    -1.227583931760367    -1.276980966347239
    H               -2.540651953463957    -1.496583931760367    -1.514980966347239
    H               -2.752651953463957     0.386416068239633    -0.411980966347239
    H                1.336348046536043    -0.142583931760367     0.798019033652761
    H               -2.912651953463957     2.365416068239633     1.004019033652761
    H                1.158348046536043     1.845416068239633     2.236019033652761
    H               -0.962651953463957     3.118416068239633     2.337019033652762
    H               -1.346203953463957    -2.219883931760366    -2.612027966347239
    H               -1.635919953463957    -0.435292931760367    -2.573648966347239

}
e, wfn = energy('scf', return_wfn=True)
gdma(wfn)
dmavals = variable('DMA DISTRIBUTED MULTIPOLES')
charges = np.array(dmavals)
print(charges)
np.save('SSI-061ILE-064PHE-1-dimer.npy', np.array(charges))--------------------------------------------------------------------------

*** tstart() called on ds3
*** at Mon Apr 27 16:21:40 2020

   => Loading Basis Set <=

    Name: CC-PVDZ
    Role: ORBITAL
    Keyword: BASIS
    atoms 1-2, 9-16  entry C          line   138 file /theoryfs2/ds/metcalf/miniconda2/envs/tf2gpu/share/psi4/basis/cc-pvdz.gbs
    atoms 3-8, 17-26 entry H          line    22 file /theoryfs2/ds/metcalf/miniconda2/envs/tf2gpu/share/psi4/basis/cc-pvdz.gbs

         ---------------------------------------------------------
                                   SCF
               by Justin Turney, Rob Parrish, Andy Simmonett
                          and Daniel G. A. Smith
                              RHF Reference
                        1 Threads,    500 MiB Core
         ---------------------------------------------------------

  ==> Geometry <==

    Molecular point group: c1
    Full point group: C1

    Geometry (in Angstrom), charge = 0, multiplicity = 1:

       Center              X                  Y                   Z               Mass
    ------------   -----------------  -----------------  -----------------  -----------------
         C            2.844348046536    -2.258583931760    -0.502980966347    12.000000000000
         C            3.239348046536    -1.020583931760    -1.336980966347    12.000000000000
         H            3.668348046536    -2.971583931760    -0.463980966347     1.007825032230
         H            2.587348046536    -1.969583931760     0.516019033653     1.007825032230
         H            1.989348046536    -2.772583931760    -0.939980966347     1.007825032230
         H            2.368348046536    -0.383583931760    -1.478980966347     1.007825032230
         H            3.603756046536    -1.316930931760    -2.331658966347     1.007825032230
         H            3.966971046536    -0.400490931760    -0.792876966347     1.007825032230
         C           -0.535651953464    -1.245583931760    -0.828980966347    12.000000000000
         C           -1.562651953464    -1.352583931760    -1.970980966347    12.000000000000
         C           -0.673651953464    -0.016583931760     0.048019033653    12.000000000000
         C           -1.873651953464     0.701416068240     0.128019033653    12.000000000000
         C            0.409348046536     0.405416068240     0.822019033653    12.000000000000
         C           -1.976651953464     1.830416068240     0.944019033653    12.000000000000
         C            0.310348046536     1.531416068240     1.642019033653    12.000000000000
         C           -0.883651953464     2.244416068240     1.703019033653    12.000000000000
         H           -0.607651953464    -2.132583931760    -0.199980966347     1.007825032230
         H            0.444348046536    -1.227583931760    -1.276980966347     1.007825032230
         H           -2.540651953464    -1.496583931760    -1.514980966347     1.007825032230
         H           -2.752651953464     0.386416068240    -0.411980966347     1.007825032230
         H            1.336348046536    -0.142583931760     0.798019033653     1.007825032230
         H           -2.912651953464     2.365416068240     1.004019033653     1.007825032230
         H            1.158348046536     1.845416068240     2.236019033653     1.007825032230
         H           -0.962651953464     3.118416068240     2.337019033653     1.007825032230
         H           -1.346203953464    -2.219883931760    -2.612027966347     1.007825032230
         H           -1.635919953464    -0.435292931760    -2.573648966347     1.007825032230

  Running in c1 symmetry.

  Rotational constants: A =      0.05432  B =      0.02464  C =      0.01803 [cm^-1]
  Rotational constants: A =   1628.43016  B =    738.75518  C =    540.42136 [MHz]
  Nuclear repulsion =  498.142590388504630

  Charge       = 0
  Multiplicity = 1
  Electrons    = 76
  Nalpha       = 38
  Nbeta        = 38

  ==> Algorithm <==

  SCF Algorithm Type is PK.
  DIIS enabled.
  MOM disabled.
  Fractional occupation disabled.
  Guess Type is SAD.
  Energy threshold   = 1.00e-06
  Density threshold  = 1.00e-10
  Integral threshold = 0.00e+00

  ==> Primary Basis <==

  Basis Set: CC-PVDZ
    Blend: CC-PVDZ
    Number of shells: 108
    Number of basis function: 220
    Number of Cartesian functions: 230
    Spherical Harmonics?: true
    Max angular momentum: 2

  ==> Pre-Iterations <==

   -------------------------------------------------------
    Irrep   Nso     Nmo     Nalpha   Nbeta   Ndocc  Nsocc
   -------------------------------------------------------
     A        220     220       0       0       0       0
   -------------------------------------------------------
    Total     220     220      38      38      38       0
   -------------------------------------------------------

  ==> Integral Setup <==

  Using integral reordering PK algorithm.
  Sizing the integral batches needed.
  Building batch lookup table.
   Calculation information:
      Number of atoms:                  26
      Number of AO shells:             108
      Number of primitives:            300
      Number of atomic orbitals:       230
      Number of basis functions:       220

      Integral cutoff                 1.00e-12
      Number of threads:                 1

	Batch   1 pq = [       0,    9405] index = [             0,44231715] size =     44231715
	Batch   2 pq = [    9405,   13301] index = [      44231715,88464951] size =     44233236
	Batch   3 pq = [   13301,   16290] index = [      88464951,132690195] size =     44225244
	Batch   4 pq = [   16290,   18810] index = [     132690195,176917455] size =     44227260
	Batch   5 pq = [   18810,   21030] index = [     176917455,221140965] size =     44223510
	Batch   6 pq = [   21030,   23037] index = [     221140965,265363203] size =     44222238
	Batch   7 pq = [   23037,   24310] index = [     265363203,295500205] size =     30137002
  Task number: 27
  Buffer size: 11059200
  Buffer per thread: 2
  We computed 16331390 shell quartets total.
  Whereas there are 17325441 unique shell quartets.

  ==> DiskJK: Disk-Based J/K Matrices <==

    J tasked:                  Yes
    K tasked:                  Yes
    wK tasked:                  No
    Memory [MiB]:              375
    Schwarz Cutoff:          1E-12

    OpenMP threads:              1

  Minimum eigenvalue in the overlap matrix is 2.9541272459E-04.
  Using Symmetric Orthogonalization.

  SCF Guess: Superposition of Atomic Densities via on-the-fly atomic UHF.

  ==> Iterations <==

                        Total Energy        Delta E     RMS |[F,P]|

   @RHF iter SAD:  -386.88451800573887   -3.86885e+02   0.00000e+00
   @RHF iter   1:  -387.77401713874286   -8.89499e-01   2.68955e-03 DIIS
   @RHF iter   2:  -387.98774775650963   -2.13731e-01   1.09246e-03 DIIS
   @RHF iter   3:  -388.01969855496174   -3.19508e-02   2.44204e-04 DIIS
   @RHF iter   4:  -388.02253175307868   -2.83320e-03   4.62739e-05 DIIS
   @RHF iter   5:  -388.02260279246599   -7.10394e-05   1.92270e-05 DIIS
   @RHF iter   6:  -388.02261396649067   -1.11740e-05   3.89841e-06 DIIS
   @RHF iter   7:  -388.02261456302620   -5.96536e-07   1.19609e-06 DIIS
   @RHF iter   8:  -388.02261461880892   -5.57827e-08   3.01405e-07 DIIS
   @RHF iter   9:  -388.02261462545550   -6.64659e-09   1.28337e-07 DIIS
   @RHF iter  10:  -388.02261462672465   -1.26914e-09   6.27134e-08 DIIS
   @RHF iter  11:  -388.02261462720196   -4.77314e-10   2.64231e-08 DIIS
   @RHF iter  12:  -388.02261462729706   -9.50990e-11   1.25038e-08 DIIS
   @RHF iter  13:  -388.02261462731434   -1.72804e-11   4.33411e-09 DIIS
   @RHF iter  14:  -388.02261462731798   -3.63798e-12   1.12164e-09 DIIS
   @RHF iter  15:  -388.02261462731650    1.47793e-12   3.84106e-10 DIIS
   @RHF iter  16:  -388.02261462731877   -2.27374e-12   1.33755e-10 DIIS
   @RHF iter  17:  -388.02261462731593    2.84217e-12   6.06907e-11 DIIS
  Energy and wave function converged.

  ==> Post-Iterations <==

    Orbital Energies [Eh]
    ---------------------

    Doubly Occupied:

       1A    -11.239840     2A    -11.234849     3A    -11.234380
       4A    -11.230373     5A    -11.229731     6A    -11.229123
       7A    -11.228495     8A    -11.224281     9A    -11.223261
      10A    -11.221508    11A     -1.150222    12A     -1.060373
      13A     -1.018327    14A     -1.009156    15A     -0.979409
      16A     -0.866921    17A     -0.844017    18A     -0.819988
      19A     -0.783569    20A     -0.692167    21A     -0.636211
      22A     -0.625993    23A     -0.611896    24A     -0.603117
      25A     -0.593864    26A     -0.587221    27A     -0.574925
      28A     -0.527873    29A     -0.515075    30A     -0.506401
      31A     -0.503749    32A     -0.493039    33A     -0.485824
      34A     -0.480612    35A     -0.469581    36A     -0.468915
      37A     -0.329678    38A     -0.320412

    Virtual:

      39A      0.135162    40A      0.142528    41A      0.177126
      42A      0.195559    43A      0.198089    44A      0.222319
      45A      0.230188    46A      0.233469    47A      0.247791
      48A      0.256616    49A      0.260580    50A      0.266307
      51A      0.277592    52A      0.286605    53A      0.291774
      54A      0.314510    55A      0.348853    56A      0.353629
      57A      0.365306    58A      0.378793    59A      0.395690
      60A      0.420001    61A      0.452762    62A      0.469591
      63A      0.476893    64A      0.506721    65A      0.554385
      66A      0.596886    67A      0.603362    68A      0.608385
      69A      0.613293    70A      0.626878    71A      0.651713
      72A      0.681170    73A      0.693825    74A      0.707467
      75A      0.719388    76A      0.726361    77A      0.738116
      78A      0.742372    79A      0.749353    80A      0.753896
      81A      0.763530    82A      0.779241    83A      0.802809
      84A      0.812761    85A      0.831608    86A      0.840736
      87A      0.853680    88A      0.859792    89A      0.874058
      90A      0.880013    91A      0.887486    92A      0.888731
      93A      0.894737    94A      0.899714    95A      0.909350
      96A      0.911241    97A      0.918120    98A      0.925243
      99A      0.940445   100A      0.946763   101A      0.971154
     102A      0.988719   103A      0.994578   104A      1.017462
     105A      1.034873   106A      1.041866   107A      1.065780
     108A      1.107686   109A      1.120937   110A      1.126275
     111A      1.149229   112A      1.166869   113A      1.175523
     114A      1.183787   115A      1.194030   116A      1.224062
     117A      1.239911   118A      1.251000   119A      1.259954
     120A      1.287281   121A      1.298154   122A      1.317400
     123A      1.322519   124A      1.327322   125A      1.381529
     126A      1.435167   127A      1.461367   128A      1.480777
     129A      1.485804   130A      1.533183   131A      1.550155
     132A      1.568253   133A      1.593598   134A      1.623601
     135A      1.676513   136A      1.688218   137A      1.697812
     138A      1.723378   139A      1.744856   140A      1.761476
     141A      1.765937   142A      1.778445   143A      1.812232
     144A      1.814203   145A      1.851180   146A      1.868005
     147A      1.873712   148A      1.883560   149A      1.894491
     150A      1.899118   151A      1.905782   152A      1.920040
     153A      1.927768   154A      1.930841   155A      1.939900
     156A      1.946248   157A      1.950461   158A      1.957672
     159A      1.969917   160A      1.971698   161A      1.981549
     162A      1.985687   163A      2.005602   164A      2.010320
     165A      2.023425   166A      2.034682   167A      2.062393
     168A      2.070777   169A      2.087191   170A      2.112999
     171A      2.116823   172A      2.131709   173A      2.137413
     174A      2.158401   175A      2.164222   176A      2.186996
     177A      2.195508   178A      2.209162   179A      2.225691
     180A      2.251537   181A      2.277630   182A      2.297182
     183A      2.313842   184A      2.322907   185A      2.323656
     186A      2.355720   187A      2.401458   188A      2.405933
     189A      2.436558   190A      2.462938   191A      2.492208
     192A      2.503034   193A      2.540232   194A      2.552468
     195A      2.577497   196A      2.579443   197A      2.596732
     198A      2.661324   199A      2.735931   200A      2.748418
     201A      2.765895   202A      2.769702   203A      2.779814
     204A      2.791610   205A      2.809308   206A      2.837747
     207A      2.864602   208A      2.869715   209A      2.891051
     210A      2.933204   211A      2.942960   212A      2.980320
     213A      2.994203   214A      3.004803   215A      3.044669
     216A      3.058454   217A      3.179052   218A      3.204294
     219A      3.299209   220A      3.957837

    Final Occupation by Irrep:
              A
    DOCC [    38 ]

  @RHF Final Energy:  -388.02261462731593

   => Energetics <=

    Nuclear Repulsion Energy =            498.1425903885046296
    One-Electron Energy =               -1510.6216634623419850
    Two-Electron Energy =                 624.4564584465214239
    Total Energy =                       -388.0226146273158747

Computation Completed

Properties will be evaluated at   0.000000,   0.000000,   0.000000 [a0]

Properties computed using the SCF density matrix

  Nuclear Dipole Moment: [e a0]
     X:     7.8417      Y:    -9.1437      Z:    -7.2241

  Electronic Dipole Moment: [e a0]
     X:    -7.8189      Y:     8.9986      Z:     7.1538

  Dipole Moment: [e a0]
     X:     0.0228      Y:    -0.1451      Z:    -0.0703     Total:     0.1628

  Dipole Moment: [D]
     X:     0.0580      Y:    -0.3687      Z:    -0.1787     Total:     0.4139

*** tstop() called on ds3 at Mon Apr 27 16:24:59 2020
Module time:
	user time   =     154.81 seconds =       2.58 minutes
	system time =      50.74 seconds =       0.85 minutes
	total time  =        199 seconds =       3.32 minutes
Total time:
	user time   =     154.81 seconds =       2.58 minutes
	system time =      50.74 seconds =       0.85 minutes
	total time  =        199 seconds =       3.32 minutes
                                     G D M A

                                 by Anthony Stone

                           version 2.2.06, 22 June 2011

               Distributed Multipoles from Gaussian wavefunctions

Starting at 16:24:59 on 27 Apr 2020

Using SCF density matrix from file ./SSI/SSI-061ILE-064PHE-1-dimer.test.26546.fchk

                         Distributed Multipole Analysis

Standard DMA

Positions and radii in angstrom
Multipole moments in atomic units, ea_0^k for rank k

C          x =  2.844348  y = -2.258584  z = -0.502981 angstrom
           Maximum rank =  0   Radius =  0.650 angstrom
                   Q00  =  -0.250926

C          x =  3.239348  y = -1.020584  z = -1.336981 angstrom
           Maximum rank =  0   Radius =  0.650 angstrom
                   Q00  =  -0.236414

H          x =  3.668348  y = -2.971584  z = -0.463981 angstrom
           Maximum rank =  0   Radius =  0.325 angstrom
                   Q00  =   0.084944

H          x =  2.587348  y = -1.969584  z =  0.516019 angstrom
           Maximum rank =  0   Radius =  0.325 angstrom
                   Q00  =   0.078195

H          x =  1.989348  y = -2.772584  z = -0.939981 angstrom
           Maximum rank =  0   Radius =  0.325 angstrom
                   Q00  =   0.082196

H          x =  2.368348  y = -0.383584  z = -1.478981 angstrom
           Maximum rank =  0   Radius =  0.325 angstrom
                   Q00  =   0.079690

H          x =  3.603756  y = -1.316931  z = -2.331659 angstrom
           Maximum rank =  0   Radius =  0.325 angstrom
                   Q00  =   0.085551

H          x =  3.966971  y = -0.400491  z = -0.792877 angstrom
           Maximum rank =  0   Radius =  0.325 angstrom
                   Q00  =   0.083065

C          x = -0.535652  y = -1.245584  z = -0.828981 angstrom
           Maximum rank =  0   Radius =  0.650 angstrom
                   Q00  =  -0.045601

C          x = -1.562652  y = -1.352584  z = -1.970981 angstrom
           Maximum rank =  0   Radius =  0.650 angstrom
                   Q00  =  -0.267474

C          x = -0.673652  y = -0.016584  z =  0.048019 angstrom
           Maximum rank =  0   Radius =  0.650 angstrom
                   Q00  =  -0.095059

C          x = -1.873652  y =  0.701416  z =  0.128019 angstrom
           Maximum rank =  0   Radius =  0.650 angstrom
                   Q00  =  -0.078911

C          x =  0.409348  y =  0.405416  z =  0.822019 angstrom
           Maximum rank =  0   Radius =  0.650 angstrom
                   Q00  =  -0.004714

C          x = -1.976652  y =  1.830416  z =  0.944019 angstrom
           Maximum rank =  0   Radius =  0.650 angstrom
                   Q00  =  -0.073627

C          x =  0.310348  y =  1.531416  z =  1.642019 angstrom
           Maximum rank =  0   Radius =  0.650 angstrom
                   Q00  =  -0.077783

C          x = -0.883652  y =  2.244416  z =  1.703019 angstrom
           Maximum rank =  0   Radius =  0.650 angstrom
                   Q00  =  -0.080285

H          x = -0.607652  y = -2.132584  z = -0.199981 angstrom
           Maximum rank =  0   Radius =  0.325 angstrom
                   Q00  =   0.084554

H          x =  0.444348  y = -1.227584  z = -1.276981 angstrom
           Maximum rank =  0   Radius =  0.325 angstrom
                   Q00  =   0.068572

H          x = -2.540652  y = -1.496584  z = -1.514981 angstrom
           Maximum rank =  0   Radius =  0.325 angstrom
                   Q00  =   0.081492

H          x = -2.752652  y =  0.386416  z = -0.411981 angstrom
           Maximum rank =  0   Radius =  0.325 angstrom
                   Q00  =   0.058496

H          x =  1.336348  y = -0.142584  z =  0.798019 angstrom
           Maximum rank =  0   Radius =  0.325 angstrom
                   Q00  =   0.054252

H          x = -2.912652  y =  2.365416  z =  1.004019 angstrom
           Maximum rank =  0   Radius =  0.325 angstrom
                   Q00  =   0.065637

H          x =  1.158348  y =  1.845416  z =  2.236019 angstrom
           Maximum rank =  0   Radius =  0.325 angstrom
                   Q00  =   0.062798

H          x = -0.962652  y =  3.118416  z =  2.337019 angstrom
           Maximum rank =  0   Radius =  0.325 angstrom
                   Q00  =   0.061030

H          x = -1.346204  y = -2.219884  z = -2.612028 angstrom
           Maximum rank =  0   Radius =  0.325 angstrom
                   Q00  =   0.093218

H          x = -1.635920  y = -0.435293  z = -2.573649 angstrom
           Maximum rank =  0   Radius =  0.325 angstrom
                   Q00  =   0.087104

Total multipoles referred to origin at
           x =   0.000000,  y =    0.000000,  z =    0.000000 angstrom
                   Q00  =  -0.000000

Finished at 16:24:59 on 27 Apr 2020

  DMA results are available in the Python driver through the
	  variable('DMA DISTRIBUTED MULTIPOLES')
  and
	  variable('DMA TOTAL MULTIPOLES')
  commands.

    Psi4 stopped on: Monday, 27 April 2020 04:24PM
    Psi4 wall time for execution: 0:03:18.48

*** Psi4 exiting successfully. Buy a developer a beer!
