                               Psi4 1.3.2 release

  ==> Input File <==

--------------------------------------------------------------------------
import numpy as np
set {scf_type pk
basis cc-pvdz
d_convergence 10
gdma_switch   0
gdma_limit    0
gdma_origin   [ 0.0,  0.0,  0.0 ]
}
molecule test {
    units Angstrom
    0 1
    --
    0 1
    C               -1.043246064516022    -1.693321007500673    -0.897657496013958
    C               -1.161246064516022    -2.614321007500672    -2.110657496013958
    H               -0.095246064516022    -1.857321007500673    -0.382657496013958
    H               -1.098246064516022    -0.656321007500673    -1.228657496013958
    H               -1.862246064516022    -1.876321007500672    -0.201657496013958
    H               -1.984246064516022    -2.267321007500672    -2.735657496013958
    H               -1.359766064516022    -3.658152007500672    -1.826040496013958
    H               -0.236761064516022    -2.552483007500673    -2.703534496013958
    C                0.152753935483978     1.508678992499328     0.811342503986042
    C                0.682753935483978     1.887678992499328     2.176342503986043
    C                1.372753935483978     1.014678992499328     0.073342503986042
    H               -0.309246064516022     2.359678992499327     0.309342503986042
    H               -0.564246064516022     0.693678992499328     0.914342503986042
    H                1.057753935483978     2.911678992499327     2.161342503986043
    H               -0.100246064516022     1.766678992499327     2.926342503986043
    H                1.945753935483978     1.878678992499327    -0.266657496013958
    H                1.113753935483978     0.372678992499328    -0.769657496013958
    H                1.516738935483978     1.186831992499328     2.328928503986043
    H                1.931363935483978     0.466906992499328     0.846582503986042

}
e, wfn = energy('scf', return_wfn=True)
gdma(wfn)
dmavals = variable('DMA DISTRIBUTED MULTIPOLES')
charges = np.array(dmavals)
print(charges)
np.save('SSI-149THR-157PRO-1-dimer.npy', np.array(charges))--------------------------------------------------------------------------

*** tstart() called on ds3
*** at Mon Apr 27 08:05:59 2020

   => Loading Basis Set <=

    Name: CC-PVDZ
    Role: ORBITAL
    Keyword: BASIS
    atoms 1-2, 9-11  entry C          line   138 file /theoryfs2/ds/metcalf/miniconda2/envs/tf2gpu/share/psi4/basis/cc-pvdz.gbs
    atoms 3-8, 12-19 entry H          line    22 file /theoryfs2/ds/metcalf/miniconda2/envs/tf2gpu/share/psi4/basis/cc-pvdz.gbs

         ---------------------------------------------------------
                                   SCF
               by Justin Turney, Rob Parrish, Andy Simmonett
                          and Daniel G. A. Smith
                              RHF Reference
                        1 Threads,    500 MiB Core
         ---------------------------------------------------------

  ==> Geometry <==

    Molecular point group: c1
    Full point group: C1

    Geometry (in Angstrom), charge = 0, multiplicity = 1:

       Center              X                  Y                   Z               Mass
    ------------   -----------------  -----------------  -----------------  -----------------
         C           -1.043246064516    -1.693321007501    -0.897657496014    12.000000000000
         C           -1.161246064516    -2.614321007501    -2.110657496014    12.000000000000
         H           -0.095246064516    -1.857321007501    -0.382657496014     1.007825032230
         H           -1.098246064516    -0.656321007501    -1.228657496014     1.007825032230
         H           -1.862246064516    -1.876321007501    -0.201657496014     1.007825032230
         H           -1.984246064516    -2.267321007501    -2.735657496014     1.007825032230
         H           -1.359766064516    -3.658152007501    -1.826040496014     1.007825032230
         H           -0.236761064516    -2.552483007501    -2.703534496014     1.007825032230
         C            0.152753935484     1.508678992499     0.811342503986    12.000000000000
         C            0.682753935484     1.887678992499     2.176342503986    12.000000000000
         C            1.372753935484     1.014678992499     0.073342503986    12.000000000000
         H           -0.309246064516     2.359678992499     0.309342503986     1.007825032230
         H           -0.564246064516     0.693678992499     0.914342503986     1.007825032230
         H            1.057753935484     2.911678992499     2.161342503986     1.007825032230
         H           -0.100246064516     1.766678992499     2.926342503986     1.007825032230
         H            1.945753935484     1.878678992499    -0.266657496014     1.007825032230
         H            1.113753935484     0.372678992499    -0.769657496014     1.007825032230
         H            1.516738935484     1.186831992499     2.328928503986     1.007825032230
         H            1.931363935484     0.466906992499     0.846582503986     1.007825032230

  Running in c1 symmetry.

  Rotational constants: A =      0.33575  B =      0.03607  C =      0.03427 [cm^-1]
  Rotational constants: A =  10065.53898  B =   1081.23171  C =   1027.45414 [MHz]
  Nuclear repulsion =  179.211233130881453

  Charge       = 0
  Multiplicity = 1
  Electrons    = 44
  Nalpha       = 22
  Nbeta        = 22

  ==> Algorithm <==

  SCF Algorithm Type is PK.
  DIIS enabled.
  MOM disabled.
  Fractional occupation disabled.
  Guess Type is SAD.
  Energy threshold   = 1.00e-06
  Density threshold  = 1.00e-10
  Integral threshold = 0.00e+00

  ==> Primary Basis <==

  Basis Set: CC-PVDZ
    Blend: CC-PVDZ
    Number of shells: 72
    Number of basis function: 140
    Number of Cartesian functions: 145
    Spherical Harmonics?: true
    Max angular momentum: 2

  ==> Pre-Iterations <==

   -------------------------------------------------------
    Irrep   Nso     Nmo     Nalpha   Nbeta   Ndocc  Nsocc
   -------------------------------------------------------
     A        140     140       0       0       0       0
   -------------------------------------------------------
    Total     140     140      22      22      22       0
   -------------------------------------------------------

  ==> Integral Setup <==

  Using integral reordering PK algorithm.
  Sizing the integral batches needed.
  Building batch lookup table.
   Calculation information:
      Number of atoms:                  19
      Number of AO shells:              72
      Number of primitives:            180
      Number of atomic orbitals:       145
      Number of basis functions:       140

      Integral cutoff                 1.00e-12
      Number of threads:                 1

	Batch   1 pq = [       0,    9405] index = [             0,44231715] size =     44231715
	Batch   2 pq = [    9405,    9870] index = [      44231715,48713385] size =      4481670
  Task number: 5
  Buffer size: 11059200
  Buffer per thread: 2
  We computed 2844351 shell quartets total.
  Whereas there are 3454506 unique shell quartets.

  ==> DiskJK: Disk-Based J/K Matrices <==

    J tasked:                  Yes
    K tasked:                  Yes
    wK tasked:                  No
    Memory [MiB]:              375
    Schwarz Cutoff:          1E-12

    OpenMP threads:              1

  Minimum eigenvalue in the overlap matrix is 4.8612126333E-03.
  Using Symmetric Orthogonalization.

  SCF Guess: Superposition of Atomic Densities via on-the-fly atomic UHF.

  ==> Iterations <==

                        Total Energy        Delta E     RMS |[F,P]|

   @RHF iter SAD:  -196.53821959115493   -1.96538e+02   0.00000e+00
   @RHF iter   1:  -197.28956440786826   -7.51345e-01   3.87329e-03 DIIS
   @RHF iter   2:  -197.45271481068812   -1.63150e-01   1.69139e-03 DIIS
   @RHF iter   3:  -197.48271114801793   -2.99963e-02   3.31051e-04 DIIS
   @RHF iter   4:  -197.48496003625590   -2.24889e-03   5.09266e-05 DIIS
   @RHF iter   5:  -197.48500240213534   -4.23659e-05   1.56353e-05 DIIS
   @RHF iter   6:  -197.48500623574296   -3.83361e-06   2.66158e-06 DIIS
   @RHF iter   7:  -197.48500636806045   -1.32317e-07   5.09788e-07 DIIS
   @RHF iter   8:  -197.48500637352234   -5.46189e-09   1.20605e-07 DIIS
   @RHF iter   9:  -197.48500637382051   -2.98172e-10   3.86388e-08 DIIS
   @RHF iter  10:  -197.48500637385305   -3.25429e-11   8.40153e-09 DIIS
   @RHF iter  11:  -197.48500637385479   -1.73372e-12   1.60258e-09 DIIS
   @RHF iter  12:  -197.48500637385396    8.24230e-13   3.17629e-10 DIIS
   @RHF iter  13:  -197.48500637385476   -7.95808e-13   7.13792e-11 DIIS
  Energy and wave function converged.

  ==> Post-Iterations <==

    Orbital Energies [Eh]
    ---------------------

    Doubly Occupied:

       1A    -11.219594     2A    -11.217588     3A    -11.212681
       4A    -11.211375     5A    -11.211165     6A     -1.068950
       7A     -1.019007     8A     -0.913829     9A     -0.837799
      10A     -0.796218    11A     -0.638394    12A     -0.614651
      13A     -0.598398    14A     -0.597212    15A     -0.542211
      16A     -0.511813    17A     -0.501380    18A     -0.486137
      19A     -0.485339    20A     -0.481449    21A     -0.467200
      22A     -0.458865

    Virtual:

      23A      0.176361    24A      0.193581    25A      0.219800
      26A      0.226112    27A      0.232737    28A      0.245034
      29A      0.247254    30A      0.268676    31A      0.273945
      32A      0.281888    33A      0.293842    34A      0.316053
      35A      0.325666    36A      0.343549    37A      0.383001
      38A      0.413258    39A      0.442303    40A      0.569120
      41A      0.592038    42A      0.595825    43A      0.602459
      44A      0.612393    45A      0.629689    46A      0.658658
      47A      0.675973    48A      0.690423    49A      0.765359
      50A      0.798219    51A      0.821512    52A      0.850467
      53A      0.856891    54A      0.873885    55A      0.885069
      56A      0.886542    57A      0.892883    58A      0.895462
      59A      0.905641    60A      0.912368    61A      0.918074
      62A      0.926425    63A      0.931424    64A      0.945606
      65A      0.958274    66A      0.973985    67A      0.984327
      68A      1.014099    69A      1.092466    70A      1.123155
      71A      1.125630    72A      1.150992    73A      1.210246
      74A      1.239209    75A      1.401161    76A      1.462032
      77A      1.476013    78A      1.483131    79A      1.492872
      80A      1.593802    81A      1.619977    82A      1.628111
      83A      1.633503    84A      1.682518    85A      1.692519
      86A      1.725638    87A      1.745061    88A      1.794378
      89A      1.859147    90A      1.864617    91A      1.883245
      92A      1.886819    93A      1.896923    94A      1.914278
      95A      1.924345    96A      1.938557    97A      1.942411
      98A      1.946357    99A      1.952068   100A      1.962352
     101A      1.965175   102A      1.987875   103A      2.001762
     104A      2.025251   105A      2.030778   106A      2.061525
     107A      2.113973   108A      2.126465   109A      2.138353
     110A      2.144978   111A      2.201439   112A      2.239500
     113A      2.303687   114A      2.306645   115A      2.330708
     116A      2.364718   117A      2.436927   118A      2.441358
     119A      2.460176   120A      2.468589   121A      2.508156
     122A      2.554148   123A      2.569438   124A      2.580553
     125A      2.638061   126A      2.708079   127A      2.754685
     128A      2.760318   129A      2.785961   130A      2.788500
     131A      2.802841   132A      2.840984   133A      2.847496
     134A      2.856450   135A      2.878023   136A      2.925781
     137A      2.947402   138A      2.959057   139A      2.962656
     140A      3.053603

    Final Occupation by Irrep:
              A
    DOCC [    22 ]

  @RHF Final Energy:  -197.48500637385476

   => Energetics <=

    Nuclear Repulsion Energy =            179.2112331308814532
    One-Electron Energy =                -619.2099713441052700
    Two-Electron Energy =                 242.5137318393690578
    Total Energy =                       -197.4850063738547590

Computation Completed

Properties will be evaluated at   0.000000,   0.000000,   0.000000 [a0]

Properties computed using the SCF density matrix

  Nuclear Dipole Moment: [e a0]
     X:    -0.0421      Y:    -1.1541      Z:    -0.5884

  Electronic Dipole Moment: [e a0]
     X:    -0.0115      Y:     1.1601      Z:     0.5642

  Dipole Moment: [e a0]
     X:    -0.0536      Y:     0.0059      Z:    -0.0242     Total:     0.0591

  Dipole Moment: [D]
     X:    -0.1362      Y:     0.0151      Z:    -0.0616     Total:     0.1502

*** tstop() called on ds3 at Mon Apr 27 08:06:27 2020
Module time:
	user time   =      16.24 seconds =       0.27 minutes
	system time =       6.46 seconds =       0.11 minutes
	total time  =         28 seconds =       0.47 minutes
Total time:
	user time   =      16.24 seconds =       0.27 minutes
	system time =       6.46 seconds =       0.11 minutes
	total time  =         28 seconds =       0.47 minutes
                                     G D M A

                                 by Anthony Stone

                           version 2.2.06, 22 June 2011

               Distributed Multipoles from Gaussian wavefunctions

Starting at 8:6:27 on 27 Apr 2020

Using SCF density matrix from file ./SSI/SSI-149THR-157PRO-1-dimer.test.604.fchk

                         Distributed Multipole Analysis

Standard DMA

Positions and radii in angstrom
Multipole moments in atomic units, ea_0^k for rank k

C          x = -1.043246  y = -1.693321  z = -0.897657 angstrom
           Maximum rank =  0   Radius =  0.650 angstrom
                   Q00  =  -0.240680

C          x = -1.161246  y = -2.614321  z = -2.110657 angstrom
           Maximum rank =  0   Radius =  0.650 angstrom
                   Q00  =  -0.233127

H          x = -0.095246  y = -1.857321  z = -0.382657 angstrom
           Maximum rank =  0   Radius =  0.325 angstrom
                   Q00  =   0.078758

H          x = -1.098246  y = -0.656321  z = -1.228657 angstrom
           Maximum rank =  0   Radius =  0.325 angstrom
                   Q00  =   0.078865

H          x = -1.862246  y = -1.876321  z = -0.201657 angstrom
           Maximum rank =  0   Radius =  0.325 angstrom
                   Q00  =   0.078761

H          x = -1.984246  y = -2.267321  z = -2.735657 angstrom
           Maximum rank =  0   Radius =  0.325 angstrom
                   Q00  =   0.078156

H          x = -1.359766  y = -3.658152  z = -1.826040 angstrom
           Maximum rank =  0   Radius =  0.325 angstrom
                   Q00  =   0.081101

H          x = -0.236761  y = -2.552483  z = -2.703534 angstrom
           Maximum rank =  0   Radius =  0.325 angstrom
                   Q00  =   0.078112

C          x =  0.152754  y =  1.508679  z =  0.811343 angstrom
           Maximum rank =  0   Radius =  0.650 angstrom
                   Q00  =  -0.108456

C          x =  0.682754  y =  1.887679  z =  2.176343 angstrom
           Maximum rank =  0   Radius =  0.650 angstrom
                   Q00  =  -0.223407

C          x =  1.372754  y =  1.014679  z =  0.073343 angstrom
           Maximum rank =  0   Radius =  0.650 angstrom
                   Q00  =  -0.200920

H          x = -0.309246  y =  2.359679  z =  0.309343 angstrom
           Maximum rank =  0   Radius =  0.325 angstrom
                   Q00  =   0.052463

H          x = -0.564246  y =  0.693679  z =  0.914343 angstrom
           Maximum rank =  0   Radius =  0.325 angstrom
                   Q00  =   0.055307

H          x =  1.057754  y =  2.911679  z =  2.161343 angstrom
           Maximum rank =  0   Radius =  0.325 angstrom
                   Q00  =   0.078270

H          x = -0.100246  y =  1.766679  z =  2.926343 angstrom
           Maximum rank =  0   Radius =  0.325 angstrom
                   Q00  =   0.080025

H          x =  1.945754  y =  1.878679  z = -0.266657 angstrom
           Maximum rank =  0   Radius =  0.325 angstrom
                   Q00  =   0.074475

H          x =  1.113754  y =  0.372679  z = -0.769657 angstrom
           Maximum rank =  0   Radius =  0.325 angstrom
                   Q00  =   0.082809

H          x =  1.516739  y =  1.186832  z =  2.328929 angstrom
           Maximum rank =  0   Radius =  0.325 angstrom
                   Q00  =   0.059889

H          x =  1.931364  y =  0.466907  z =  0.846583 angstrom
           Maximum rank =  0   Radius =  0.325 angstrom
                   Q00  =   0.049599

Total multipoles referred to origin at
           x =   0.000000,  y =    0.000000,  z =    0.000000 angstrom
                   Q00  =  -0.000000

Finished at 8:6:27 on 27 Apr 2020

  DMA results are available in the Python driver through the
	  variable('DMA DISTRIBUTED MULTIPOLES')
  and
	  variable('DMA TOTAL MULTIPOLES')
  commands.

    Psi4 stopped on: Monday, 27 April 2020 08:06AM
    Psi4 wall time for execution: 0:00:28.74

*** Psi4 exiting successfully. Buy a developer a beer!
