                               Psi4 1.3.2 release

  ==> Input File <==

--------------------------------------------------------------------------
import numpy as np
set {scf_type pk
basis cc-pvdz
d_convergence 10
gdma_switch   0
gdma_limit    0
gdma_origin   [ 0.0,  0.0,  0.0 ]
}
molecule test {
    units Angstrom
    0 1
    --
    0 1
    C               -1.064123158308866    -0.872065271970402    -0.240821147713981
    C               -2.480123158308866    -0.677065271970402    -0.784821147713980
    O               -0.840123158308866    -2.236065271970402     0.053178852286019
    H               -0.327123158308866    -0.518065271970402    -0.963821147713981
    H               -0.950123158308866    -0.303065271970402     0.678178852286019
    H               -3.179123158308866    -1.145065271970402    -0.092821147713981
    H               -0.538123158308866    -2.671065271970402    -0.758821147713980
    H               -2.576673158308866    -1.139455271970402    -1.778241147713981
    H               -2.726053158308866     0.394184728029598    -0.828941147713981
    C                1.608876841691134     1.546934728029598     0.342178852286019
    C                2.805876841691134     2.432934728029598     0.675178852286019
    H                0.784876841691134     2.157934728029598    -0.030821147713981
    H                1.892876841691134     0.832934728029598    -0.430821147713981
    H                1.279876841691134     0.995934728029598     1.215178852286019
    H                3.609876841691134     1.815934728029598     1.075178852286019
    H                2.523056841691134     3.202644728029598     1.408368852286019
    H                3.175036841691134     2.922734728029598    -0.237961147713981

}
e, wfn = energy('scf', return_wfn=True)
gdma(wfn)
dmavals = variable('DMA DISTRIBUTED MULTIPOLES')
charges = np.array(dmavals)
print(charges)
np.save('SSI-022SER-121LEU-1-dimer.npy', np.array(charges))--------------------------------------------------------------------------

*** tstart() called on ds3
*** at Sun Apr 26 23:56:47 2020

   => Loading Basis Set <=

    Name: CC-PVDZ
    Role: ORBITAL
    Keyword: BASIS
    atoms 1-2, 10-11 entry C          line   138 file /theoryfs2/ds/metcalf/miniconda2/envs/tf2gpu/share/psi4/basis/cc-pvdz.gbs
    atoms 3          entry O          line   198 file /theoryfs2/ds/metcalf/miniconda2/envs/tf2gpu/share/psi4/basis/cc-pvdz.gbs
    atoms 4-9, 12-17 entry H          line    22 file /theoryfs2/ds/metcalf/miniconda2/envs/tf2gpu/share/psi4/basis/cc-pvdz.gbs

         ---------------------------------------------------------
                                   SCF
               by Justin Turney, Rob Parrish, Andy Simmonett
                          and Daniel G. A. Smith
                              RHF Reference
                        1 Threads,    500 MiB Core
         ---------------------------------------------------------

  ==> Geometry <==

    Molecular point group: c1
    Full point group: C1

    Geometry (in Angstrom), charge = 0, multiplicity = 1:

       Center              X                  Y                   Z               Mass
    ------------   -----------------  -----------------  -----------------  -----------------
         C           -1.064123158309    -0.872065271970    -0.240821147714    12.000000000000
         C           -2.480123158309    -0.677065271970    -0.784821147714    12.000000000000
         O           -0.840123158309    -2.236065271970     0.053178852286    15.994914619570
         H           -0.327123158309    -0.518065271970    -0.963821147714     1.007825032230
         H           -0.950123158309    -0.303065271970     0.678178852286     1.007825032230
         H           -3.179123158309    -1.145065271970    -0.092821147714     1.007825032230
         H           -0.538123158309    -2.671065271970    -0.758821147714     1.007825032230
         H           -2.576673158309    -1.139455271970    -1.778241147714     1.007825032230
         H           -2.726053158309     0.394184728030    -0.828941147714     1.007825032230
         C            1.608876841691     1.546934728030     0.342178852286    12.000000000000
         C            2.805876841691     2.432934728030     0.675178852286    12.000000000000
         H            0.784876841691     2.157934728030    -0.030821147714     1.007825032230
         H            1.892876841691     0.832934728030    -0.430821147714     1.007825032230
         H            1.279876841691     0.995934728030     1.215178852286     1.007825032230
         H            3.609876841691     1.815934728030     1.075178852286     1.007825032230
         H            2.523056841691     3.202644728030     1.408368852286     1.007825032230
         H            3.175036841691     2.922734728030    -0.237961147714     1.007825032230

  Running in c1 symmetry.

  Rotational constants: A =      0.28142  B =      0.03427  C =      0.03137 [cm^-1]
  Rotational constants: A =   8436.73477  B =   1027.39346  C =    940.36590 [MHz]
  Nuclear repulsion =  174.673883716602745

  Charge       = 0
  Multiplicity = 1
  Electrons    = 44
  Nalpha       = 22
  Nbeta        = 22

  ==> Algorithm <==

  SCF Algorithm Type is PK.
  DIIS enabled.
  MOM disabled.
  Fractional occupation disabled.
  Guess Type is SAD.
  Energy threshold   = 1.00e-06
  Density threshold  = 1.00e-10
  Integral threshold = 0.00e+00

  ==> Primary Basis <==

  Basis Set: CC-PVDZ
    Blend: CC-PVDZ
    Number of shells: 66
    Number of basis function: 130
    Number of Cartesian functions: 135
    Spherical Harmonics?: true
    Max angular momentum: 2

  ==> Pre-Iterations <==

   -------------------------------------------------------
    Irrep   Nso     Nmo     Nalpha   Nbeta   Ndocc  Nsocc
   -------------------------------------------------------
     A        130     130       0       0       0       0
   -------------------------------------------------------
    Total     130     130      22      22      22       0
   -------------------------------------------------------

  ==> Integral Setup <==

  Using integral reordering PK algorithm.
  Sizing the integral batches needed.
  Building batch lookup table.
   Calculation information:
      Number of atoms:                  17
      Number of AO shells:              66
      Number of primitives:            170
      Number of atomic orbitals:       135
      Number of basis functions:       130

      Integral cutoff                 1.00e-12
      Number of threads:                 1

	Batch   1 pq = [       0,    8515] index = [             0,36256870] size =     36256870
  Task number: 4
  Buffer size: 11059200
  Buffer per thread: 2
  We computed 1843203 shell quartets total.
  Whereas there are 2445366 unique shell quartets.

  ==> DiskJK: Disk-Based J/K Matrices <==

    J tasked:                  Yes
    K tasked:                  Yes
    wK tasked:                  No
    Memory [MiB]:              375
    Schwarz Cutoff:          1E-12

    OpenMP threads:              1

  Minimum eigenvalue in the overlap matrix is 5.6463415876E-03.
  Using Symmetric Orthogonalization.

  SCF Guess: Superposition of Atomic Densities via on-the-fly atomic UHF.

  ==> Iterations <==

                        Total Energy        Delta E     RMS |[F,P]|

   @RHF iter SAD:  -232.08137540394674   -2.32081e+02   0.00000e+00
   @RHF iter   1:  -233.14191084503207   -1.06054e+00   4.22531e-03 DIIS
   @RHF iter   2:  -233.29239010633935   -1.50479e-01   1.95779e-03 DIIS
   @RHF iter   3:  -233.32122782983623   -2.88377e-02   3.82317e-04 DIIS
   @RHF iter   4:  -233.32331839846387   -2.09057e-03   1.23947e-04 DIIS
   @RHF iter   5:  -233.32346080645522   -1.42408e-04   2.49333e-05 DIIS
   @RHF iter   6:  -233.32346922388058   -8.41743e-06   4.51936e-06 DIIS
   @RHF iter   7:  -233.32346962236124   -3.98481e-07   1.07035e-06 DIIS
   @RHF iter   8:  -233.32346964527264   -2.29114e-08   3.64018e-07 DIIS
   @RHF iter   9:  -233.32346964794434   -2.67170e-09   9.94776e-08 DIIS
   @RHF iter  10:  -233.32346964818888   -2.44540e-10   2.18265e-08 DIIS
   @RHF iter  11:  -233.32346964819988   -1.09992e-11   5.83459e-09 DIIS
   @RHF iter  12:  -233.32346964820036   -4.83169e-13   1.67710e-09 DIIS
   @RHF iter  13:  -233.32346964820073   -3.69482e-13   4.01908e-10 DIIS
   @RHF iter  14:  -233.32346964820078   -5.68434e-14   1.26121e-10 DIIS
   @RHF iter  15:  -233.32346964820093   -1.42109e-13   3.94410e-11 DIIS
  Energy and wave function converged.

  ==> Post-Iterations <==

    Orbital Energies [Eh]
    ---------------------

    Doubly Occupied:

       1A    -20.546960     2A    -11.272660     3A    -11.220492
       4A    -11.218990     5A    -11.218451     6A     -1.351574
       7A     -1.020980     8A     -1.004294     9A     -0.841869
      10A     -0.834631    11A     -0.689038    12A     -0.623348
      13A     -0.601034    14A     -0.599253    15A     -0.580739
      16A     -0.542470    17A     -0.520566    18A     -0.502531
      19A     -0.488785    20A     -0.487722    21A     -0.473072
      22A     -0.429999

    Virtual:

      23A      0.171232    24A      0.188611    25A      0.208873
      26A      0.221135    27A      0.235560    28A      0.251311
      29A      0.268153    30A      0.269683    31A      0.280229
      32A      0.286626    33A      0.303566    34A      0.328302
      35A      0.374238    36A      0.393698    37A      0.418214
      38A      0.565671    39A      0.593482    40A      0.599488
      41A      0.607923    42A      0.659877    43A      0.675126
      44A      0.689375    45A      0.721334    46A      0.743481
      47A      0.763160    48A      0.813431    49A      0.841439
      50A      0.879774    51A      0.888586    52A      0.892253
      53A      0.893573    54A      0.897507    55A      0.903338
      56A      0.912175    57A      0.916911    58A      0.930158
      59A      0.946613    60A      0.949986    61A      0.994036
      62A      1.122797    63A      1.125574    64A      1.134408
      65A      1.150181    66A      1.173741    67A      1.246046
      68A      1.271647    69A      1.341099    70A      1.353647
      71A      1.473401    72A      1.475620    73A      1.482580
      74A      1.549053    75A      1.583236    76A      1.610986
      77A      1.644442    78A      1.679780    79A      1.681419
      80A      1.692925    81A      1.738835    82A      1.843075
      83A      1.865623    84A      1.873299    85A      1.874633
      86A      1.894276    87A      1.917814    88A      1.936012
      89A      1.938640    90A      1.947984    91A      1.952309
      92A      1.957146    93A      1.961299    94A      1.971214
      95A      1.987002    96A      2.027143    97A      2.072792
      98A      2.094877    99A      2.099726   100A      2.107382
     101A      2.184639   102A      2.245443   103A      2.292174
     104A      2.300524   105A      2.329733   106A      2.394339
     107A      2.442529   108A      2.454641   109A      2.462294
     110A      2.507609   111A      2.550055   112A      2.559481
     113A      2.565149   114A      2.569297   115A      2.752982
     116A      2.756699   117A      2.771271   118A      2.786872
     119A      2.810850   120A      2.852376   121A      2.855215
     122A      2.884197   123A      2.929896   124A      2.946978
     125A      2.956562   126A      3.332170   127A      3.403286
     128A      3.465757   129A      3.642839   130A      4.093688

    Final Occupation by Irrep:
              A
    DOCC [    22 ]

  @RHF Final Energy:  -233.32346964820093

   => Energetics <=

    Nuclear Repulsion Energy =            174.6738837166027452
    One-Electron Energy =                -661.8557883193235511
    Two-Electron Energy =                 253.8584349545198791
    Total Energy =                       -233.3234696482009269

Computation Completed

Properties will be evaluated at   0.000000,   0.000000,   0.000000 [a0]

Properties computed using the SCF density matrix

  Nuclear Dipole Moment: [e a0]
     X:     2.7787      Y:     6.1255      Z:    -0.6985

  Electronic Dipole Moment: [e a0]
     X:    -2.6582      Y:    -5.8511      Z:     0.1124

  Dipole Moment: [e a0]
     X:     0.1205      Y:     0.2744      Z:    -0.5861     Total:     0.6583

  Dipole Moment: [D]
     X:     0.3063      Y:     0.6975      Z:    -1.4897     Total:     1.6732

*** tstop() called on ds3 at Sun Apr 26 23:57:03 2020
Module time:
	user time   =      10.82 seconds =       0.18 minutes
	system time =       5.29 seconds =       0.09 minutes
	total time  =         16 seconds =       0.27 minutes
Total time:
	user time   =      10.82 seconds =       0.18 minutes
	system time =       5.29 seconds =       0.09 minutes
	total time  =         16 seconds =       0.27 minutes
                                     G D M A

                                 by Anthony Stone

                           version 2.2.06, 22 June 2011

               Distributed Multipoles from Gaussian wavefunctions

Starting at 23:57:3 on 26 Apr 2020

Using SCF density matrix from file ./SSI/SSI-022SER-121LEU-1-dimer.test.5590.fchk

                         Distributed Multipole Analysis

Standard DMA

Positions and radii in angstrom
Multipole moments in atomic units, ea_0^k for rank k

C          x = -1.064123  y = -0.872065  z = -0.240821 angstrom
           Maximum rank =  0   Radius =  0.650 angstrom
                   Q00  =   0.108320

C          x = -2.480123  y = -0.677065  z = -0.784821 angstrom
           Maximum rank =  0   Radius =  0.650 angstrom
                   Q00  =  -0.257687

O          x = -0.840123  y = -2.236065  z =  0.053179 angstrom
           Maximum rank =  0   Radius =  0.650 angstrom
                   Q00  =  -0.596986

H          x = -0.327123  y = -0.518065  z = -0.963821 angstrom
           Maximum rank =  0   Radius =  0.325 angstrom
                   Q00  =   0.035654

H          x = -0.950123  y = -0.303065  z =  0.678179 angstrom
           Maximum rank =  0   Radius =  0.325 angstrom
                   Q00  =   0.081146

H          x = -3.179123  y = -1.145065  z = -0.092821 angstrom
           Maximum rank =  0   Radius =  0.325 angstrom
                   Q00  =   0.093816

H          x = -0.538123  y = -2.671065  z = -0.758821 angstrom
           Maximum rank =  0   Radius =  0.325 angstrom
                   Q00  =   0.381230

H          x = -2.576673  y = -1.139455  z = -1.778241 angstrom
           Maximum rank =  0   Radius =  0.325 angstrom
                   Q00  =   0.076590

H          x = -2.726053  y =  0.394185  z = -0.828941 angstrom
           Maximum rank =  0   Radius =  0.325 angstrom
                   Q00  =   0.078414

C          x =  1.608877  y =  1.546935  z =  0.342179 angstrom
           Maximum rank =  0   Radius =  0.650 angstrom
                   Q00  =  -0.247654

C          x =  2.805877  y =  2.432935  z =  0.675179 angstrom
           Maximum rank =  0   Radius =  0.650 angstrom
                   Q00  =  -0.228218

H          x =  0.784877  y =  2.157935  z = -0.030821 angstrom
           Maximum rank =  0   Radius =  0.325 angstrom
                   Q00  =   0.075227

H          x =  1.892877  y =  0.832935  z = -0.430821 angstrom
           Maximum rank =  0   Radius =  0.325 angstrom
                   Q00  =   0.076187

H          x =  1.279877  y =  0.995935  z =  1.215179 angstrom
           Maximum rank =  0   Radius =  0.325 angstrom
                   Q00  =   0.084751

H          x =  3.609877  y =  1.815935  z =  1.075179 angstrom
           Maximum rank =  0   Radius =  0.325 angstrom
                   Q00  =   0.081421

H          x =  2.523057  y =  3.202645  z =  1.408369 angstrom
           Maximum rank =  0   Radius =  0.325 angstrom
                   Q00  =   0.080201

H          x =  3.175037  y =  2.922735  z = -0.237961 angstrom
           Maximum rank =  0   Radius =  0.325 angstrom
                   Q00  =   0.077589

Total multipoles referred to origin at
           x =   0.000000,  y =    0.000000,  z =    0.000000 angstrom
                   Q00  =  -0.000000

Finished at 23:57:3 on 26 Apr 2020

  DMA results are available in the Python driver through the
	  variable('DMA DISTRIBUTED MULTIPOLES')
  and
	  variable('DMA TOTAL MULTIPOLES')
  commands.

    Psi4 stopped on: Sunday, 26 April 2020 11:57PM
    Psi4 wall time for execution: 0:00:15.93

*** Psi4 exiting successfully. Buy a developer a beer!
