                               Psi4 1.3.2 release

  ==> Input File <==

--------------------------------------------------------------------------
import numpy as np
set {scf_type pk
basis cc-pvdz
d_convergence 10
gdma_switch   0
gdma_limit    0
gdma_origin   [ 0.0,  0.0,  0.0 ]
}
molecule test {
    units Angstrom
    0 1
    --
    0 1
    C                0.396190976666352    -3.361188557213348    -0.704028444893494
    C                1.379190976666352    -4.439188557213347    -0.223028444893494
    H               -0.616809023333648    -3.762188557213348    -0.725028444893494
    H                0.418190976666352    -2.503188557213348    -0.035028444893494
    H                0.663190976666352    -2.973188557213347    -1.687028444893494
    H                2.376190976666352    -4.006188557213346    -0.231028444893494
    H                1.347090976666352    -5.309482557213347    -0.895008444893494
    H                1.144290976666352    -4.752392557213348     0.804941555106506
    C               -1.816809023333648     1.964811442786653    -2.138028444893494
    C               -0.197809023333648     0.970811442786652    -0.346028444893494
    C               -1.440809023333648     1.579811442786653    -0.747028444893494
    C               -0.262809023333648     0.761811442786652     1.056971555106506
    C               -2.183809023333648     1.713811442786652     0.383971555106506
    C                2.013190976666352    -0.007188557213347    -0.315028444893494
    C                1.920190976666352    -0.199188557213348     1.075971555106506
    C                0.960190976666352     0.569811442786653    -1.033028444893494
    C                0.785190976666352     0.182811442786653     1.774971555106506
    N               -1.483809023333648     1.229811442786652     1.465971555106506
    H                2.913190976666352    -0.307188557213347    -0.836028444893494
    H                2.739190976666352    -0.658188557213348     1.610971555106506
    H                1.038190976666352     0.717811442786652    -2.100028444893494
    H                0.707190976666352     0.032811442786652     2.841971555106506
    H               -1.808809023333648     1.077811442786653    -2.761028444893494
    H               -1.008809023333648     2.604811442786652    -2.486028444893494
    H               -3.185809023333648     2.128811442786653     0.429971555106506
    H               -1.837809023333648     1.224811442786653     2.416971555106506
    H               -2.752709023333648     2.530085442786653    -2.258698444893494

}
e, wfn = energy('scf', return_wfn=True)
gdma(wfn)
dmavals = variable('DMA DISTRIBUTED MULTIPOLES')
charges = np.array(dmavals)
print(charges)
np.save('SSI-095ILE-120TRP-1-dimer.npy', np.array(charges))--------------------------------------------------------------------------

*** tstart() called on ds3
*** at Sun Apr 26 20:48:23 2020

   => Loading Basis Set <=

    Name: CC-PVDZ
    Role: ORBITAL
    Keyword: BASIS
    atoms 1-2, 9-17  entry C          line   138 file /theoryfs2/ds/metcalf/miniconda2/envs/tf2gpu/share/psi4/basis/cc-pvdz.gbs
    atoms 3-8, 19-27 entry H          line    22 file /theoryfs2/ds/metcalf/miniconda2/envs/tf2gpu/share/psi4/basis/cc-pvdz.gbs
    atoms 18         entry N          line   168 file /theoryfs2/ds/metcalf/miniconda2/envs/tf2gpu/share/psi4/basis/cc-pvdz.gbs

         ---------------------------------------------------------
                                   SCF
               by Justin Turney, Rob Parrish, Andy Simmonett
                          and Daniel G. A. Smith
                              RHF Reference
                        1 Threads,    500 MiB Core
         ---------------------------------------------------------

  ==> Geometry <==

    Molecular point group: c1
    Full point group: C1

    Geometry (in Angstrom), charge = 0, multiplicity = 1:

       Center              X                  Y                   Z               Mass
    ------------   -----------------  -----------------  -----------------  -----------------
         C            0.396190976666    -3.361188557213    -0.704028444893    12.000000000000
         C            1.379190976666    -4.439188557213    -0.223028444893    12.000000000000
         H           -0.616809023334    -3.762188557213    -0.725028444893     1.007825032230
         H            0.418190976666    -2.503188557213    -0.035028444893     1.007825032230
         H            0.663190976666    -2.973188557213    -1.687028444893     1.007825032230
         H            2.376190976666    -4.006188557213    -0.231028444893     1.007825032230
         H            1.347090976666    -5.309482557213    -0.895008444893     1.007825032230
         H            1.144290976666    -4.752392557213     0.804941555107     1.007825032230
         C           -1.816809023334     1.964811442787    -2.138028444893    12.000000000000
         C           -0.197809023334     0.970811442787    -0.346028444893    12.000000000000
         C           -1.440809023334     1.579811442787    -0.747028444893    12.000000000000
         C           -0.262809023334     0.761811442787     1.056971555107    12.000000000000
         C           -2.183809023334     1.713811442787     0.383971555107    12.000000000000
         C            2.013190976666    -0.007188557213    -0.315028444893    12.000000000000
         C            1.920190976666    -0.199188557213     1.075971555107    12.000000000000
         C            0.960190976666     0.569811442787    -1.033028444893    12.000000000000
         C            0.785190976666     0.182811442787     1.774971555107    12.000000000000
         N           -1.483809023334     1.229811442787     1.465971555107    14.003074004430
         H            2.913190976666    -0.307188557213    -0.836028444893     1.007825032230
         H            2.739190976666    -0.658188557213     1.610971555107     1.007825032230
         H            1.038190976666     0.717811442787    -2.100028444893     1.007825032230
         H            0.707190976666     0.032811442787     2.841971555107     1.007825032230
         H           -1.808809023334     1.077811442787    -2.761028444893     1.007825032230
         H           -1.008809023334     2.604811442787    -2.486028444893     1.007825032230
         H           -3.185809023334     2.128811442787     0.429971555107     1.007825032230
         H           -1.837809023334     1.224811442787     2.416971555107     1.007825032230
         H           -2.752709023334     2.530085442787    -2.258698444893     1.007825032230

  Running in c1 symmetry.

  Rotational constants: A =      0.04163  B =      0.01738  C =      0.01595 [cm^-1]
  Rotational constants: A =   1247.96448  B =    521.17091  C =    478.21145 [MHz]
  Nuclear repulsion =  656.264069411746959

  Charge       = 0
  Multiplicity = 1
  Electrons    = 88
  Nalpha       = 44
  Nbeta        = 44

  ==> Algorithm <==

  SCF Algorithm Type is PK.
  DIIS enabled.
  MOM disabled.
  Fractional occupation disabled.
  Guess Type is SAD.
  Energy threshold   = 1.00e-06
  Density threshold  = 1.00e-10
  Integral threshold = 0.00e+00

  ==> Primary Basis <==

  Basis Set: CC-PVDZ
    Blend: CC-PVDZ
    Number of shells: 117
    Number of basis function: 243
    Number of Cartesian functions: 255
    Spherical Harmonics?: true
    Max angular momentum: 2

  ==> Pre-Iterations <==

   -------------------------------------------------------
    Irrep   Nso     Nmo     Nalpha   Nbeta   Ndocc  Nsocc
   -------------------------------------------------------
     A        243     243       0       0       0       0
   -------------------------------------------------------
    Total     243     243      44      44      44       0
   -------------------------------------------------------

  ==> Integral Setup <==

  Using integral reordering PK algorithm.
  Sizing the integral batches needed.
  Building batch lookup table.
   Calculation information:
      Number of atoms:                  27
      Number of AO shells:             117
      Number of primitives:            339
      Number of atomic orbitals:       255
      Number of basis functions:       243

      Integral cutoff                 1.00e-12
      Number of threads:                 1

	Batch   1 pq = [       0,    9405] index = [             0,44231715] size =     44231715
	Batch   2 pq = [    9405,   13301] index = [      44231715,88464951] size =     44233236
	Batch   3 pq = [   13301,   16290] index = [      88464951,132690195] size =     44225244
	Batch   4 pq = [   16290,   18810] index = [     132690195,176917455] size =     44227260
	Batch   5 pq = [   18810,   21030] index = [     176917455,221140965] size =     44223510
	Batch   6 pq = [   21030,   23037] index = [     221140965,265363203] size =     44222238
	Batch   7 pq = [   23037,   24883] index = [     265363203,309594286] size =     44231083
	Batch   8 pq = [   24883,   26601] index = [     309594286,353819901] size =     44225615
	Batch   9 pq = [   26601,   28214] index = [     353819901,398029005] size =     44209104
	Batch  10 pq = [   28214,   29646] index = [     398029005,439457481] size =     41428476
  Task number: 40
  Buffer size: 11059200
  Buffer per thread: 2
  We computed 23327742 shell quartets total.
  Whereas there are 23829156 unique shell quartets.

  ==> DiskJK: Disk-Based J/K Matrices <==

    J tasked:                  Yes
    K tasked:                  Yes
    wK tasked:                  No
    Memory [MiB]:              375
    Schwarz Cutoff:          1E-12

    OpenMP threads:              1

  Minimum eigenvalue in the overlap matrix is 2.4903328696E-04.
  Using Symmetric Orthogonalization.

  SCF Guess: Superposition of Atomic Densities via on-the-fly atomic UHF.

  ==> Iterations <==

                        Total Energy        Delta E     RMS |[F,P]|

   @RHF iter SAD:  -478.97405494360174   -4.78974e+02   0.00000e+00
   @RHF iter   1:  -479.49215365652014   -5.18099e-01   2.59099e-03 DIIS
   @RHF iter   2:  -479.72299395109792   -2.30840e-01   1.14112e-03 DIIS
   @RHF iter   3:  -479.76372070104333   -4.07267e-02   2.98685e-04 DIIS
   @RHF iter   4:  -479.76742973573505   -3.70903e-03   1.38748e-04 DIIS
   @RHF iter   5:  -479.76807101965198   -6.41284e-04   1.98405e-05 DIIS
   @RHF iter   6:  -479.76810016055197   -2.91409e-05   9.12226e-06 DIIS
   @RHF iter   7:  -479.76810611803808   -5.95749e-06   3.83900e-06 DIIS
   @RHF iter   8:  -479.76810787012937   -1.75209e-06   1.50619e-06 DIIS
   @RHF iter   9:  -479.76810820896787   -3.38839e-07   6.77461e-07 DIIS
   @RHF iter  10:  -479.76810827863721   -6.96693e-08   3.12952e-07 DIIS
   @RHF iter  11:  -479.76810829543393   -1.67967e-08   1.16311e-07 DIIS
   @RHF iter  12:  -479.76810829773615   -2.30222e-09   3.85548e-08 DIIS
   @RHF iter  13:  -479.76810829790179   -1.65642e-10   1.14091e-08 DIIS
   @RHF iter  14:  -479.76810829790361   -1.81899e-12   5.06206e-09 DIIS
   @RHF iter  15:  -479.76810829791259   -8.98126e-12   2.25317e-09 DIIS
   @RHF iter  16:  -479.76810829790924    3.35376e-12   9.54877e-10 DIIS
   @RHF iter  17:  -479.76810829791356   -4.32010e-12   4.03704e-10 DIIS
   @RHF iter  18:  -479.76810829790941    4.14957e-12   1.59266e-10 DIIS
   @RHF iter  19:  -479.76810829790566    3.75167e-12   5.78450e-11 DIIS
  Energy and wave function converged.

  ==> Post-Iterations <==

    Orbital Energies [Eh]
    ---------------------

    Doubly Occupied:

       1A    -15.600793     2A    -11.266385     3A    -11.263477
       4A    -11.233650     5A    -11.232945     6A    -11.231518
       7A    -11.225852     8A    -11.223897     9A    -11.222671
      10A    -11.218877    11A    -11.210329    12A    -11.201394
      13A     -1.294479    14A     -1.127068    15A     -1.074157
      16A     -1.003867    17A     -0.996581    18A     -0.987720
      19A     -0.933500    20A     -0.839974    21A     -0.826083
      22A     -0.803547    23A     -0.752357    24A     -0.719516
      25A     -0.663315    26A     -0.642267    27A     -0.603294
      28A     -0.593397    29A     -0.590738    30A     -0.587283
      31A     -0.581261    32A     -0.570852    33A     -0.552465
      34A     -0.538367    35A     -0.526398    36A     -0.495430
      37A     -0.490286    38A     -0.477020    39A     -0.474024
      40A     -0.473275    41A     -0.455515    42A     -0.371383
      43A     -0.295173    44A     -0.276585

    Virtual:

      45A      0.123866    46A      0.166096    47A      0.178605
      48A      0.182517    49A      0.193397    50A      0.213489
      51A      0.223189    52A      0.228712    53A      0.233402
      54A      0.249791    55A      0.264095    56A      0.267972
      57A      0.270914    58A      0.277301    59A      0.283226
      60A      0.287731    61A      0.304667    62A      0.313178
      63A      0.372050    64A      0.380604    65A      0.404872
      66A      0.406201    67A      0.417644    68A      0.440856
      69A      0.469995    70A      0.478967    71A      0.498164
      72A      0.507596    73A      0.590811    74A      0.597958
      75A      0.602407    76A      0.608497    77A      0.620786
      78A      0.622183    79A      0.634381    80A      0.654559
      81A      0.660673    82A      0.693370    83A      0.701455
      84A      0.707699    85A      0.727672    86A      0.734960
      87A      0.737650    88A      0.742674    89A      0.758846
      90A      0.763313    91A      0.774152    92A      0.784497
      93A      0.789511    94A      0.815378    95A      0.834168
      96A      0.846825    97A      0.857441    98A      0.866966
      99A      0.871202   100A      0.882968   101A      0.886096
     102A      0.888106   103A      0.898470   104A      0.903140
     105A      0.906590   106A      0.906909   107A      0.920924
     108A      0.945634   109A      0.951180   110A      0.954604
     111A      0.955996   112A      0.963230   113A      0.974374
     114A      0.980140   115A      1.016057   116A      1.041019
     117A      1.066035   118A      1.076910   119A      1.095038
     120A      1.123231   121A      1.133250   122A      1.134243
     123A      1.141012   124A      1.143283   125A      1.168078
     126A      1.177139   127A      1.209813   128A      1.219577
     129A      1.224527   130A      1.230002   131A      1.245884
     132A      1.270339   133A      1.287840   134A      1.294239
     135A      1.298068   136A      1.324852   137A      1.337768
     138A      1.359903   139A      1.370515   140A      1.392295
     141A      1.441529   142A      1.478195   143A      1.496622
     144A      1.523633   145A      1.565261   146A      1.575932
     147A      1.589683   148A      1.591555   149A      1.634210
     150A      1.643398   151A      1.654954   152A      1.685110
     153A      1.688649   154A      1.691661   155A      1.716902
     156A      1.741076   157A      1.761790   158A      1.772772
     159A      1.781510   160A      1.812584   161A      1.822528
     162A      1.837217   163A      1.876760   164A      1.879243
     165A      1.880674   166A      1.889405   167A      1.895196
     168A      1.906473   169A      1.915090   170A      1.925685
     171A      1.936038   172A      1.940125   173A      1.946523
     174A      1.958892   175A      1.963722   176A      1.965563
     177A      1.969471   178A      1.979101   179A      1.991425
     180A      1.997642   181A      2.004109   182A      2.034292
     183A      2.035661   184A      2.072006   185A      2.085059
     186A      2.098195   187A      2.103028   188A      2.105318
     189A      2.110161   190A      2.128858   191A      2.134983
     192A      2.139967   193A      2.157220   194A      2.167814
     195A      2.176034   196A      2.216956   197A      2.223354
     198A      2.292892   199A      2.299508   200A      2.305310
     201A      2.315172   202A      2.321778   203A      2.340433
     204A      2.354159   205A      2.390579   206A      2.444312
     207A      2.445476   208A      2.462377   209A      2.468198
     210A      2.474703   211A      2.531784   212A      2.562551
     213A      2.578094   214A      2.589356   215A      2.598134
     216A      2.643999   217A      2.656335   218A      2.671435
     219A      2.703141   220A      2.768357   221A      2.774485
     222A      2.780649   223A      2.789446   224A      2.793517
     225A      2.803940   226A      2.809611   227A      2.861271
     228A      2.868979   229A      2.873440   230A      2.877850
     231A      2.900506   232A      2.963902   233A      2.973169
     234A      2.992300   235A      3.039278   236A      3.047638
     237A      3.078263   238A      3.120047   239A      3.200283
     240A      3.299968   241A      3.377297   242A      3.738465
     243A      3.935519

    Final Occupation by Irrep:
              A
    DOCC [    44 ]

  @RHF Final Energy:  -479.76810829790566

   => Energetics <=

    Nuclear Repulsion Energy =            656.2640694117469593
    One-Electron Energy =               -1950.5664304886349782
    Two-Electron Energy =                 814.5342527789823635
    Total Energy =                       -479.7681082979056555

Computation Completed

Properties will be evaluated at   0.000000,   0.000000,   0.000000 [a0]

Properties computed using the SCF density matrix

  Nuclear Dipole Moment: [e a0]
     X:     2.0067      Y:   -13.0860      Z:    -5.5448

  Electronic Dipole Moment: [e a0]
     X:    -2.6203      Y:    13.3912      Z:     6.0476

  Dipole Moment: [e a0]
     X:    -0.6136      Y:     0.3052      Z:     0.5028     Total:     0.8500

  Dipole Moment: [D]
     X:    -1.5597      Y:     0.7757      Z:     1.2779     Total:     2.1604

*** tstop() called on ds3 at Sun Apr 26 20:52:55 2020
Module time:
	user time   =     206.94 seconds =       3.45 minutes
	system time =      75.71 seconds =       1.26 minutes
	total time  =        272 seconds =       4.53 minutes
Total time:
	user time   =     206.94 seconds =       3.45 minutes
	system time =      75.71 seconds =       1.26 minutes
	total time  =        272 seconds =       4.53 minutes
                                     G D M A

                                 by Anthony Stone

                           version 2.2.06, 22 June 2011

               Distributed Multipoles from Gaussian wavefunctions

Starting at 20:52:55 on 26 Apr 2020

Using SCF density matrix from file ./SSI/SSI-095ILE-120TRP-1-dimer.test.10257.fchk

                         Distributed Multipole Analysis

Standard DMA

Positions and radii in angstrom
Multipole moments in atomic units, ea_0^k for rank k

C          x =  0.396191  y = -3.361189  z = -0.704028 angstrom
           Maximum rank =  0   Radius =  0.650 angstrom
                   Q00  =  -0.243153

C          x =  1.379191  y = -4.439189  z = -0.223028 angstrom
           Maximum rank =  0   Radius =  0.650 angstrom
                   Q00  =  -0.231840

H          x = -0.616809  y = -3.762189  z = -0.725028 angstrom
           Maximum rank =  0   Radius =  0.325 angstrom
                   Q00  =   0.070916

H          x =  0.418191  y = -2.503189  z = -0.035028 angstrom
           Maximum rank =  0   Radius =  0.325 angstrom
                   Q00  =   0.095196

H          x =  0.663191  y = -2.973189  z = -1.687028 angstrom
           Maximum rank =  0   Radius =  0.325 angstrom
                   Q00  =   0.076724

H          x =  2.376191  y = -4.006189  z = -0.231028 angstrom
           Maximum rank =  0   Radius =  0.325 angstrom
                   Q00  =   0.075432

H          x =  1.347091  y = -5.309483  z = -0.895008 angstrom
           Maximum rank =  0   Radius =  0.325 angstrom
                   Q00  =   0.075136

H          x =  1.144291  y = -4.752393  z =  0.804942 angstrom
           Maximum rank =  0   Radius =  0.325 angstrom
                   Q00  =   0.077012

C          x = -1.816809  y =  1.964811  z = -2.138028 angstrom
           Maximum rank =  0   Radius =  0.650 angstrom
                   Q00  =  -0.202727

C          x = -0.197809  y =  0.970811  z = -0.346028 angstrom
           Maximum rank =  0   Radius =  0.650 angstrom
                   Q00  =  -0.062412

C          x = -1.440809  y =  1.579811  z = -0.747028 angstrom
           Maximum rank =  0   Radius =  0.650 angstrom
                   Q00  =  -0.117136

C          x = -0.262809  y =  0.761811  z =  1.056972 angstrom
           Maximum rank =  0   Radius =  0.650 angstrom
                   Q00  =   0.296672

C          x = -2.183809  y =  1.713811  z =  0.383972 angstrom
           Maximum rank =  0   Radius =  0.650 angstrom
                   Q00  =   0.071184

C          x =  2.013191  y = -0.007189  z = -0.315028 angstrom
           Maximum rank =  0   Radius =  0.650 angstrom
                   Q00  =  -0.089361

C          x =  1.920191  y = -0.199189  z =  1.075972 angstrom
           Maximum rank =  0   Radius =  0.650 angstrom
                   Q00  =  -0.068166

C          x =  0.960191  y =  0.569811  z = -1.033028 angstrom
           Maximum rank =  0   Radius =  0.650 angstrom
                   Q00  =  -0.095396

C          x =  0.785191  y =  0.182811  z =  1.774972 angstrom
           Maximum rank =  0   Radius =  0.650 angstrom
                   Q00  =  -0.123101

N          x = -1.483809  y =  1.229811  z =  1.465972 angstrom
           Maximum rank =  0   Radius =  0.650 angstrom
                   Q00  =  -0.500504

H          x =  2.913191  y = -0.307189  z = -0.836028 angstrom
           Maximum rank =  0   Radius =  0.325 angstrom
                   Q00  =   0.061902

H          x =  2.739191  y = -0.658189  z =  1.610972 angstrom
           Maximum rank =  0   Radius =  0.325 angstrom
                   Q00  =   0.066668

H          x =  1.038191  y =  0.717811  z = -2.100028 angstrom
           Maximum rank =  0   Radius =  0.325 angstrom
                   Q00  =   0.072155

H          x =  0.707191  y =  0.032811  z =  2.841972 angstrom
           Maximum rank =  0   Radius =  0.325 angstrom
                   Q00  =   0.073786

H          x = -1.808809  y =  1.077811  z = -2.761028 angstrom
           Maximum rank =  0   Radius =  0.325 angstrom
                   Q00  =   0.100489

H          x = -1.008809  y =  2.604811  z = -2.486028 angstrom
           Maximum rank =  0   Radius =  0.325 angstrom
                   Q00  =   0.094548

H          x = -3.185809  y =  2.128811  z =  0.429972 angstrom
           Maximum rank =  0   Radius =  0.325 angstrom
                   Q00  =   0.103253

H          x = -1.837809  y =  1.224811  z =  2.416972 angstrom
           Maximum rank =  0   Radius =  0.325 angstrom
                   Q00  =   0.215706

H          x = -2.752709  y =  2.530085  z = -2.258698 angstrom
           Maximum rank =  0   Radius =  0.325 angstrom
                   Q00  =   0.107014

Total multipoles referred to origin at
           x =   0.000000,  y =    0.000000,  z =    0.000000 angstrom
                   Q00  =  -0.000000

Finished at 20:52:55 on 26 Apr 2020

  DMA results are available in the Python driver through the
	  variable('DMA DISTRIBUTED MULTIPOLES')
  and
	  variable('DMA TOTAL MULTIPOLES')
  commands.

    Psi4 stopped on: Sunday, 26 April 2020 08:52PM
    Psi4 wall time for execution: 0:04:32.27

*** Psi4 exiting successfully. Buy a developer a beer!
