                               Psi4 1.3.2 release

  ==> Input File <==

--------------------------------------------------------------------------
import numpy as np
set {scf_type pk
basis cc-pvdz
d_convergence 10
gdma_switch   0
gdma_limit    0
gdma_origin   [ 0.0,  0.0,  0.0 ]
}
molecule test {
    units Angstrom
    0 1
    --
    0 1
    C                0.023001571939259    -1.297480658607898     2.893283719447775
    C                0.539001571939259     0.184519341392102     0.789283719447775
    C                0.778001571939258    -0.236480658607898     2.143283719447775
    C                1.473001571939259     1.202519341392102     0.478283719447775
    C                1.808001571939259     0.525519341392102     2.591283719447775
    C               -0.313998428060742     0.366519341392102    -1.442716280552225
    C                0.607001571939258     1.380519341392102    -1.720716280552225
    C               -0.355998428060741    -0.233480658607898    -0.201716280552225
    C                1.515001571939258     1.814519341392102    -0.765716280552225
    N                2.241001571939258     1.382519341392102     1.599283719447775
    H               -0.994998428060741     0.038519341392102    -2.209716280552225
    H                0.614001571939259     1.816519341392102    -2.703716280552225
    H               -1.078998428060741    -1.007480658607898     0.005283719447775
    H                2.229001571939258     2.594519341392102    -0.975716280552225
    H                0.598001571939259    -2.217480658607898     2.887283719447775
    H               -0.879998428060741    -1.484480658607898     2.318283719447775
    H                2.245001571939258     0.461519341392102     3.578283719447775
    H                3.004001571939258     2.044519341392102     1.706283719447775
    H               -0.248738428060742    -1.001890658607898     3.917383719447775
    C               -2.962998428060742    -1.966480658607898    -2.690716280552225
    C               -4.345998428060741    -2.365480658607898    -3.184716280552225
    H               -2.483998428060742    -1.312480658607898    -3.420716280552225
    H               -3.038998428060742    -1.450480658607898    -1.732716280552225
    H               -2.346998428060742    -2.854480658607898    -2.560716280552225
    H               -4.821998428060741    -2.935480658607898    -2.385716280552225
    H               -4.264308428060741    -2.995750658607898    -4.082537280552225
    H               -4.951598428060741    -1.459610658607898    -3.335212280552225

}
e, wfn = energy('scf', return_wfn=True)
gdma(wfn)
dmavals = variable('DMA DISTRIBUTED MULTIPOLES')
charges = np.array(dmavals)
print(charges)
np.save('SSI-038TRP-078ALA-1-dimer.npy', np.array(charges))--------------------------------------------------------------------------

*** tstart() called on ds3
*** at Mon Apr 27 22:24:51 2020

   => Loading Basis Set <=

    Name: CC-PVDZ
    Role: ORBITAL
    Keyword: BASIS
    atoms 1-9, 20-21   entry C          line   138 file /theoryfs2/ds/metcalf/miniconda2/envs/tf2gpu/share/psi4/basis/cc-pvdz.gbs
    atoms 10           entry N          line   168 file /theoryfs2/ds/metcalf/miniconda2/envs/tf2gpu/share/psi4/basis/cc-pvdz.gbs
    atoms 11-19, 22-27 entry H          line    22 file /theoryfs2/ds/metcalf/miniconda2/envs/tf2gpu/share/psi4/basis/cc-pvdz.gbs

         ---------------------------------------------------------
                                   SCF
               by Justin Turney, Rob Parrish, Andy Simmonett
                          and Daniel G. A. Smith
                              RHF Reference
                        1 Threads,    500 MiB Core
         ---------------------------------------------------------

  ==> Geometry <==

    Molecular point group: c1
    Full point group: C1

    Geometry (in Angstrom), charge = 0, multiplicity = 1:

       Center              X                  Y                   Z               Mass
    ------------   -----------------  -----------------  -----------------  -----------------
         C            0.023001571939    -1.297480658608     2.893283719448    12.000000000000
         C            0.539001571939     0.184519341392     0.789283719448    12.000000000000
         C            0.778001571939    -0.236480658608     2.143283719448    12.000000000000
         C            1.473001571939     1.202519341392     0.478283719448    12.000000000000
         C            1.808001571939     0.525519341392     2.591283719448    12.000000000000
         C           -0.313998428061     0.366519341392    -1.442716280552    12.000000000000
         C            0.607001571939     1.380519341392    -1.720716280552    12.000000000000
         C           -0.355998428061    -0.233480658608    -0.201716280552    12.000000000000
         C            1.515001571939     1.814519341392    -0.765716280552    12.000000000000
         N            2.241001571939     1.382519341392     1.599283719448    14.003074004430
         H           -0.994998428061     0.038519341392    -2.209716280552     1.007825032230
         H            0.614001571939     1.816519341392    -2.703716280552     1.007825032230
         H           -1.078998428061    -1.007480658608     0.005283719448     1.007825032230
         H            2.229001571939     2.594519341392    -0.975716280552     1.007825032230
         H            0.598001571939    -2.217480658608     2.887283719448     1.007825032230
         H           -0.879998428061    -1.484480658608     2.318283719448     1.007825032230
         H            2.245001571939     0.461519341392     3.578283719448     1.007825032230
         H            3.004001571939     2.044519341392     1.706283719448     1.007825032230
         H           -0.248738428061    -1.001890658608     3.917383719448     1.007825032230
         C           -2.962998428061    -1.966480658608    -2.690716280552    12.000000000000
         C           -4.345998428061    -2.365480658608    -3.184716280552    12.000000000000
         H           -2.483998428061    -1.312480658608    -3.420716280552     1.007825032230
         H           -3.038998428061    -1.450480658608    -1.732716280552     1.007825032230
         H           -2.346998428061    -2.854480658608    -2.560716280552     1.007825032230
         H           -4.821998428061    -2.935480658608    -2.385716280552     1.007825032230
         H           -4.264308428061    -2.995750658608    -4.082537280552     1.007825032230
         H           -4.951598428061    -1.459610658608    -3.335212280552     1.007825032230

  Running in c1 symmetry.

  Rotational constants: A =      0.04751  B =      0.01348  C =      0.01059 [cm^-1]
  Rotational constants: A =   1424.16408  B =    404.19833  C =    317.50294 [MHz]
  Nuclear repulsion =  636.023669355864058

  Charge       = 0
  Multiplicity = 1
  Electrons    = 88
  Nalpha       = 44
  Nbeta        = 44

  ==> Algorithm <==

  SCF Algorithm Type is PK.
  DIIS enabled.
  MOM disabled.
  Fractional occupation disabled.
  Guess Type is SAD.
  Energy threshold   = 1.00e-06
  Density threshold  = 1.00e-10
  Integral threshold = 0.00e+00

  ==> Primary Basis <==

  Basis Set: CC-PVDZ
    Blend: CC-PVDZ
    Number of shells: 117
    Number of basis function: 243
    Number of Cartesian functions: 255
    Spherical Harmonics?: true
    Max angular momentum: 2

  ==> Pre-Iterations <==

   -------------------------------------------------------
    Irrep   Nso     Nmo     Nalpha   Nbeta   Ndocc  Nsocc
   -------------------------------------------------------
     A        243     243       0       0       0       0
   -------------------------------------------------------
    Total     243     243      44      44      44       0
   -------------------------------------------------------

  ==> Integral Setup <==

  Using integral reordering PK algorithm.
  Sizing the integral batches needed.
  Building batch lookup table.
   Calculation information:
      Number of atoms:                  27
      Number of AO shells:             117
      Number of primitives:            339
      Number of atomic orbitals:       255
      Number of basis functions:       243

      Integral cutoff                 1.00e-12
      Number of threads:                 1

	Batch   1 pq = [       0,    9405] index = [             0,44231715] size =     44231715
	Batch   2 pq = [    9405,   13301] index = [      44231715,88464951] size =     44233236
	Batch   3 pq = [   13301,   16290] index = [      88464951,132690195] size =     44225244
	Batch   4 pq = [   16290,   18810] index = [     132690195,176917455] size =     44227260
	Batch   5 pq = [   18810,   21030] index = [     176917455,221140965] size =     44223510
	Batch   6 pq = [   21030,   23037] index = [     221140965,265363203] size =     44222238
	Batch   7 pq = [   23037,   24883] index = [     265363203,309594286] size =     44231083
	Batch   8 pq = [   24883,   26601] index = [     309594286,353819901] size =     44225615
	Batch   9 pq = [   26601,   28214] index = [     353819901,398029005] size =     44209104
	Batch  10 pq = [   28214,   29646] index = [     398029005,439457481] size =     41428476
  Task number: 40
  Buffer size: 11059200
  Buffer per thread: 2
  We computed 18393872 shell quartets total.
  Whereas there are 23829156 unique shell quartets.

  ==> DiskJK: Disk-Based J/K Matrices <==

    J tasked:                  Yes
    K tasked:                  Yes
    wK tasked:                  No
    Memory [MiB]:              375
    Schwarz Cutoff:          1E-12

    OpenMP threads:              1

  Minimum eigenvalue in the overlap matrix is 2.3207500077E-04.
  Using Symmetric Orthogonalization.

  SCF Guess: Superposition of Atomic Densities via on-the-fly atomic UHF.

  ==> Iterations <==

                        Total Energy        Delta E     RMS |[F,P]|

   @RHF iter SAD:  -479.09689378387463   -4.79097e+02   0.00000e+00
   @RHF iter   1:  -479.48549600839647   -3.88602e-01   2.61428e-03 DIIS
   @RHF iter   2:  -479.71945127431127   -2.33955e-01   1.15881e-03 DIIS
   @RHF iter   3:  -479.76138154566422   -4.19303e-02   3.03861e-04 DIIS
   @RHF iter   4:  -479.76520396634515   -3.82242e-03   1.39401e-04 DIIS
   @RHF iter   5:  -479.76585329112260   -6.49325e-04   2.01032e-05 DIIS
   @RHF iter   6:  -479.76588248582914   -2.91947e-05   9.08501e-06 DIIS
   @RHF iter   7:  -479.76588830756441   -5.82174e-06   3.79097e-06 DIIS
   @RHF iter   8:  -479.76588993248214   -1.62492e-06   1.49893e-06 DIIS
   @RHF iter   9:  -479.76589026427354   -3.31791e-07   6.59300e-07 DIIS
   @RHF iter  10:  -479.76589032824114   -6.39676e-08   3.01521e-07 DIIS
   @RHF iter  11:  -479.76589034387200   -1.56309e-08   1.14049e-07 DIIS
   @RHF iter  12:  -479.76589034611413   -2.24213e-09   3.79102e-08 DIIS
   @RHF iter  13:  -479.76589034627551   -1.61378e-10   9.62777e-09 DIIS
   @RHF iter  14:  -479.76589034628529   -9.77707e-12   3.73298e-09 DIIS
   @RHF iter  15:  -479.76589034628284    2.44427e-12   1.93946e-09 DIIS
   @RHF iter  16:  -479.76589034628580   -2.95586e-12   8.82292e-10 DIIS
   @RHF iter  17:  -479.76589034629131   -5.51381e-12   3.74739e-10 DIIS
   @RHF iter  18:  -479.76589034628682    4.49063e-12   1.53536e-10 DIIS
   @RHF iter  19:  -479.76589034628904   -2.21689e-12   4.84418e-11 DIIS
  Energy and wave function converged.

  ==> Post-Iterations <==

    Orbital Energies [Eh]
    ---------------------

    Doubly Occupied:

       1A    -15.599226     2A    -11.261337     3A    -11.260461
       4A    -11.228358     5A    -11.226091     6A    -11.225817
       7A    -11.225723     8A    -11.218147     9A    -11.218123
      10A    -11.215753    11A    -11.215390    12A    -11.215189
      13A     -1.291549    14A     -1.128157    15A     -1.071992
      16A     -1.020156    17A     -0.997213    18A     -0.985108
      19A     -0.932072    20A     -0.838076    21A     -0.834515
      22A     -0.802425    23A     -0.751354    24A     -0.717361
      25A     -0.659615    26A     -0.641967    27A     -0.603072
      28A     -0.602024    29A     -0.596585    30A     -0.591253
      31A     -0.590080    32A     -0.567572    33A     -0.553532
      34A     -0.534526    35A     -0.524196    36A     -0.499832
      37A     -0.491586    38A     -0.488534    39A     -0.479258
      40A     -0.471445    41A     -0.460424    42A     -0.372020
      43A     -0.294090    44A     -0.273308

    Virtual:

      45A      0.127648    46A      0.174580    47A      0.179587
      48A      0.182473    49A      0.195672    50A      0.207107
      51A      0.221342    52A      0.224747    53A      0.229666
      54A      0.247409    55A      0.253544    56A      0.262447
      57A      0.269709    58A      0.285677    59A      0.288701
      60A      0.295810    61A      0.334321    62A      0.353082
      63A      0.372519    64A      0.387123    65A      0.392600
      66A      0.407329    67A      0.432429    68A      0.456931
      69A      0.473346    70A      0.482830    71A      0.504673
      72A      0.523924    73A      0.590046    74A      0.599176
      75A      0.607829    76A      0.629143    77A      0.636274
      78A      0.644473    79A      0.661359    80A      0.662927
      81A      0.690335    82A      0.694378    83A      0.702933
      84A      0.713949    85A      0.718930    86A      0.727004
      87A      0.737418    88A      0.747857    89A      0.755741
      90A      0.762424    91A      0.767767    92A      0.778216
      93A      0.780006    94A      0.795205    95A      0.799987
      96A      0.842423    97A      0.850846    98A      0.862535
      99A      0.878861   100A      0.891127   101A      0.892005
     102A      0.892611   103A      0.895187   104A      0.901187
     105A      0.913092   106A      0.914384   107A      0.919837
     108A      0.925856   109A      0.932813   110A      0.954158
     111A      0.955574   112A      0.970862   113A      0.978617
     114A      1.001580   115A      1.013180   116A      1.021046
     117A      1.045716   118A      1.083140   119A      1.091797
     120A      1.123424   121A      1.129072   122A      1.140411
     123A      1.144082   124A      1.157017   125A      1.180770
     126A      1.204175   127A      1.216376   128A      1.226449
     129A      1.239541   130A      1.241874   131A      1.255651
     132A      1.282275   133A      1.289257   134A      1.294115
     135A      1.315048   136A      1.331250   137A      1.342836
     138A      1.365279   139A      1.380453   140A      1.442405
     141A      1.452961   142A      1.484811   143A      1.494660
     144A      1.525785   145A      1.545500   146A      1.565399
     147A      1.581846   148A      1.612148   149A      1.630683
     150A      1.639893   151A      1.659667   152A      1.673244
     153A      1.692010   154A      1.696456   155A      1.703155
     156A      1.741302   157A      1.752398   158A      1.765533
     159A      1.790138   160A      1.815225   161A      1.831930
     162A      1.844838   163A      1.851282   164A      1.872938
     165A      1.884726   166A      1.897221   167A      1.898975
     168A      1.905203   169A      1.917206   170A      1.929249
     171A      1.930947   172A      1.947520   173A      1.952612
     174A      1.955004   175A      1.962861   176A      1.967571
     177A      1.977246   178A      1.988644   179A      1.996209
     180A      2.002576   181A      2.014676   182A      2.020283
     183A      2.035472   184A      2.078420   185A      2.087804
     186A      2.090153   187A      2.099463   188A      2.101403
     189A      2.114643   190A      2.128855   191A      2.140520
     192A      2.142457   193A      2.176975   194A      2.195596
     195A      2.216260   196A      2.245120   197A      2.267152
     198A      2.282052   199A      2.300715   200A      2.311963
     201A      2.319777   202A      2.332460   203A      2.354312
     204A      2.365089   205A      2.405260   206A      2.422331
     207A      2.454485   208A      2.460217   209A      2.474322
     210A      2.488478   211A      2.540050   212A      2.564754
     213A      2.582122   214A      2.590577   215A      2.598838
     216A      2.628440   217A      2.669795   218A      2.685129
     219A      2.736240   220A      2.764122   221A      2.780982
     222A      2.790212   223A      2.793342   224A      2.803264
     225A      2.825799   226A      2.831561   227A      2.833788
     228A      2.842499   229A      2.862869   230A      2.881812
     231A      2.924876   232A      2.953119   233A      2.964348
     234A      2.976874   235A      3.035195   236A      3.059485
     237A      3.086117   238A      3.131700   239A      3.218879
     240A      3.312190   241A      3.378317   242A      3.740877
     243A      3.971536

    Final Occupation by Irrep:
              A
    DOCC [    44 ]

  @RHF Final Energy:  -479.76589034628904

   => Energetics <=

    Nuclear Repulsion Energy =            636.0236693558640582
    One-Electron Energy =               -1910.0300998374327719
    Two-Electron Energy =                 794.2405401352796162
    Total Energy =                       -479.7658903462890976

Computation Completed

Properties will be evaluated at   0.000000,   0.000000,   0.000000 [a0]

Properties computed using the SCF density matrix

  Nuclear Dipole Moment: [e a0]
     X:   -15.4003      Y:   -11.0324      Z:    -8.4362

  Electronic Dipole Moment: [e a0]
     X:    15.9469      Y:    11.2868      Z:     8.9064

  Dipole Moment: [e a0]
     X:     0.5466      Y:     0.2544      Z:     0.4702     Total:     0.7646

  Dipole Moment: [D]
     X:     1.3893      Y:     0.6465      Z:     1.1952     Total:     1.9434

*** tstop() called on ds3 at Mon Apr 27 22:30:01 2020
Module time:
	user time   =     160.98 seconds =       2.68 minutes
	system time =      82.02 seconds =       1.37 minutes
	total time  =        310 seconds =       5.17 minutes
Total time:
	user time   =     160.98 seconds =       2.68 minutes
	system time =      82.02 seconds =       1.37 minutes
	total time  =        310 seconds =       5.17 minutes
                                     G D M A

                                 by Anthony Stone

                           version 2.2.06, 22 June 2011

               Distributed Multipoles from Gaussian wavefunctions

Starting at 22:30:1 on 27 Apr 2020

Using SCF density matrix from file ./SSI/SSI-038TRP-078ALA-1-dimer.test.12170.fchk

                         Distributed Multipole Analysis

Standard DMA

Positions and radii in angstrom
Multipole moments in atomic units, ea_0^k for rank k

C          x =  0.023002  y = -1.297481  z =  2.893284 angstrom
           Maximum rank =  0   Radius =  0.650 angstrom
                   Q00  =  -0.217090

C          x =  0.539002  y =  0.184519  z =  0.789284 angstrom
           Maximum rank =  0   Radius =  0.650 angstrom
                   Q00  =  -0.054515

C          x =  0.778002  y = -0.236481  z =  2.143284 angstrom
           Maximum rank =  0   Radius =  0.650 angstrom
                   Q00  =  -0.124229

C          x =  1.473002  y =  1.202519  z =  0.478284 angstrom
           Maximum rank =  0   Radius =  0.650 angstrom
                   Q00  =   0.250927

C          x =  1.808002  y =  0.525519  z =  2.591284 angstrom
           Maximum rank =  0   Radius =  0.650 angstrom
                   Q00  =   0.075756

C          x = -0.313998  y =  0.366519  z = -1.442716 angstrom
           Maximum rank =  0   Radius =  0.650 angstrom
                   Q00  =  -0.090132

C          x =  0.607002  y =  1.380519  z = -1.720716 angstrom
           Maximum rank =  0   Radius =  0.650 angstrom
                   Q00  =  -0.003268

C          x = -0.355998  y = -0.233481  z = -0.201716 angstrom
           Maximum rank =  0   Radius =  0.650 angstrom
                   Q00  =  -0.100107

C          x =  1.515002  y =  1.814519  z = -0.765716 angstrom
           Maximum rank =  0   Radius =  0.650 angstrom
                   Q00  =  -0.121911

N          x =  2.241002  y =  1.382519  z =  1.599284 angstrom
           Maximum rank =  0   Radius =  0.650 angstrom
                   Q00  =  -0.503638

H          x = -0.994998  y =  0.038519  z = -2.209716 angstrom
           Maximum rank =  0   Radius =  0.325 angstrom
                   Q00  =   0.058963

H          x =  0.614002  y =  1.816519  z = -2.703716 angstrom
           Maximum rank =  0   Radius =  0.325 angstrom
                   Q00  =   0.060555

H          x = -1.078998  y = -1.007481  z =  0.005284 angstrom
           Maximum rank =  0   Radius =  0.325 angstrom
                   Q00  =   0.064744

H          x =  2.229002  y =  2.594519  z = -0.975716 angstrom
           Maximum rank =  0   Radius =  0.325 angstrom
                   Q00  =   0.073060

H          x =  0.598002  y = -2.217481  z =  2.887284 angstrom
           Maximum rank =  0   Radius =  0.325 angstrom
                   Q00  =   0.103998

H          x = -0.879998  y = -1.484481  z =  2.318284 angstrom
           Maximum rank =  0   Radius =  0.325 angstrom
                   Q00  =   0.105758

H          x =  2.245002  y =  0.461519  z =  3.578284 angstrom
           Maximum rank =  0   Radius =  0.325 angstrom
                   Q00  =   0.097320

H          x =  3.004002  y =  2.044519  z =  1.706284 angstrom
           Maximum rank =  0   Radius =  0.325 angstrom
                   Q00  =   0.217042

H          x = -0.248738  y = -1.001891  z =  3.917384 angstrom
           Maximum rank =  0   Radius =  0.325 angstrom
                   Q00  =   0.106177

C          x = -2.962998  y = -1.966481  z = -2.690716 angstrom
           Maximum rank =  0   Radius =  0.650 angstrom
                   Q00  =  -0.242558

C          x = -4.345998  y = -2.365481  z = -3.184716 angstrom
           Maximum rank =  0   Radius =  0.650 angstrom
                   Q00  =  -0.227645

H          x = -2.483998  y = -1.312481  z = -3.420716 angstrom
           Maximum rank =  0   Radius =  0.325 angstrom
                   Q00  =   0.075417

H          x = -3.038998  y = -1.450481  z = -1.732716 angstrom
           Maximum rank =  0   Radius =  0.325 angstrom
                   Q00  =   0.077375

H          x = -2.346998  y = -2.854481  z = -2.560716 angstrom
           Maximum rank =  0   Radius =  0.325 angstrom
                   Q00  =   0.080769

H          x = -4.821998  y = -2.935481  z = -2.385716 angstrom
           Maximum rank =  0   Radius =  0.325 angstrom
                   Q00  =   0.075834

H          x = -4.264308  y = -2.995751  z = -4.082537 angstrom
           Maximum rank =  0   Radius =  0.325 angstrom
                   Q00  =   0.082192

H          x = -4.951598  y = -1.459611  z = -3.335212 angstrom
           Maximum rank =  0   Radius =  0.325 angstrom
                   Q00  =   0.079207

Total multipoles referred to origin at
           x =   0.000000,  y =    0.000000,  z =    0.000000 angstrom
                   Q00  =  -0.000000

Finished at 22:30:1 on 27 Apr 2020

  DMA results are available in the Python driver through the
	  variable('DMA DISTRIBUTED MULTIPOLES')
  and
	  variable('DMA TOTAL MULTIPOLES')
  commands.

    Psi4 stopped on: Monday, 27 April 2020 10:30PM
    Psi4 wall time for execution: 0:05:09.45

*** Psi4 exiting successfully. Buy a developer a beer!
