                               Psi4 1.3.2 release

  ==> Input File <==

--------------------------------------------------------------------------
import numpy as np
set {scf_type pk
basis cc-pvdz
d_convergence 10
gdma_switch   0
gdma_limit    0
gdma_origin   [ 0.0,  0.0,  0.0 ]
}
molecule test {
    units Angstrom
    -1 1
    --
    -1 1
    C                1.499768344331050     0.844253941106335     0.853074283716145
    C                3.113768344331051     0.546253941106335    -1.379925716283855
    S                2.935768344331050    -0.113746058893665     0.277074283716145
    H                0.722768344331050     0.841253941106335     0.089074283716145
    H                1.107768344331050     0.387253941106335     1.762074283716145
    H                1.792768344331050     1.869253941106335     1.080074283716145
    H                2.206768344331051     0.324253941106335    -1.943925716283855
    H                3.951768344331051     0.056253941106335    -1.870925716283855
    H                3.273497344331051     1.634583941106335    -1.375569716283855
    C               -2.055231655668950    -0.620746058893665     1.002074283716145
    C               -3.164231655668950    -1.648746058893665     0.982074283716145
    C               -1.990231655668950     0.145253941106335    -0.306925716283855
    O               -1.520231655668950    -0.461746058893665    -1.302925716283855
    O               -2.369231655668949     1.341253941106335    -0.343925716283855
    H               -2.261231655668949     0.083253941106335     1.797074283716145
    H               -1.095231655668950    -1.102746058893665     1.197074283716145
    H               -2.906231655668949    -2.400746058893665     0.235074283716145
    H               -4.111502655668950    -1.155436058893665     0.718775283716145
    H               -3.174343655668950    -2.150746058893665     1.960794283716145

}
e, wfn = energy('scf', return_wfn=True)
gdma(wfn)
dmavals = variable('DMA DISTRIBUTED MULTIPOLES')
charges = np.array(dmavals)
print(charges)
np.save('SSI-053MET-140ASP-1-dimer.npy', np.array(charges))--------------------------------------------------------------------------

*** tstart() called on ds3
*** at Tue Apr 28 09:50:55 2020

   => Loading Basis Set <=

    Name: CC-PVDZ
    Role: ORBITAL
    Keyword: BASIS
    atoms 1-2, 10-12 entry C          line   138 file /theoryfs2/ds/metcalf/miniconda2/envs/tf2gpu/share/psi4/basis/cc-pvdz.gbs
    atoms 3          entry S          line   598 file /theoryfs2/ds/metcalf/miniconda2/envs/tf2gpu/share/psi4/basis/cc-pvdz.gbs
    atoms 4-9, 15-19 entry H          line    22 file /theoryfs2/ds/metcalf/miniconda2/envs/tf2gpu/share/psi4/basis/cc-pvdz.gbs
    atoms 13-14      entry O          line   198 file /theoryfs2/ds/metcalf/miniconda2/envs/tf2gpu/share/psi4/basis/cc-pvdz.gbs

         ---------------------------------------------------------
                                   SCF
               by Justin Turney, Rob Parrish, Andy Simmonett
                          and Daniel G. A. Smith
                              RHF Reference
                        1 Threads,    500 MiB Core
         ---------------------------------------------------------

  ==> Geometry <==

    Molecular point group: c1
    Full point group: C1

    Geometry (in Angstrom), charge = -1, multiplicity = 1:

       Center              X                  Y                   Z               Mass
    ------------   -----------------  -----------------  -----------------  -----------------
         C            1.499768344331     0.844253941106     0.853074283716    12.000000000000
         C            3.113768344331     0.546253941106    -1.379925716284    12.000000000000
         S            2.935768344331    -0.113746058894     0.277074283716    31.972071174400
         H            0.722768344331     0.841253941106     0.089074283716     1.007825032230
         H            1.107768344331     0.387253941106     1.762074283716     1.007825032230
         H            1.792768344331     1.869253941106     1.080074283716     1.007825032230
         H            2.206768344331     0.324253941106    -1.943925716284     1.007825032230
         H            3.951768344331     0.056253941106    -1.870925716284     1.007825032230
         H            3.273497344331     1.634583941106    -1.375569716284     1.007825032230
         C           -2.055231655669    -0.620746058894     1.002074283716    12.000000000000
         C           -3.164231655669    -1.648746058894     0.982074283716    12.000000000000
         C           -1.990231655669     0.145253941106    -0.306925716284    12.000000000000
         O           -1.520231655669    -0.461746058894    -1.302925716284    15.994914619570
         O           -2.369231655669     1.341253941106    -0.343925716284    15.994914619570
         H           -2.261231655669     0.083253941106     1.797074283716     1.007825032230
         H           -1.095231655669    -1.102746058894     1.197074283716     1.007825032230
         H           -2.906231655669    -2.400746058894     0.235074283716     1.007825032230
         H           -4.111502655669    -1.155436058894     0.718775283716     1.007825032230
         H           -3.174343655669    -2.150746058894     1.960794283716     1.007825032230

  Running in c1 symmetry.

  Rotational constants: A =      0.08488  B =      0.01817  C =      0.01712 [cm^-1]
  Rotational constants: A =   2544.72669  B =    544.84461  C =    513.12005 [MHz]
  Nuclear repulsion =  420.505278304398928

  Charge       = -1
  Multiplicity = 1
  Electrons    = 74
  Nalpha       = 37
  Nbeta        = 37

  ==> Algorithm <==

  SCF Algorithm Type is PK.
  DIIS enabled.
  MOM disabled.
  Fractional occupation disabled.
  Guess Type is SAD.
  Energy threshold   = 1.00e-06
  Density threshold  = 1.00e-10
  Integral threshold = 0.00e+00

  ==> Primary Basis <==

  Basis Set: CC-PVDZ
    Blend: CC-PVDZ
    Number of shells: 83
    Number of basis function: 171
    Number of Cartesian functions: 179
    Spherical Harmonics?: true
    Max angular momentum: 2

  ==> Pre-Iterations <==

   -------------------------------------------------------
    Irrep   Nso     Nmo     Nalpha   Nbeta   Ndocc  Nsocc
   -------------------------------------------------------
     A        171     171       0       0       0       0
   -------------------------------------------------------
    Total     171     171      37      37      37       0
   -------------------------------------------------------

  ==> Integral Setup <==

  Using integral reordering PK algorithm.
  Sizing the integral batches needed.
  Building batch lookup table.
   Calculation information:
      Number of atoms:                  19
      Number of AO shells:              83
      Number of primitives:            259
      Number of atomic orbitals:       179
      Number of basis functions:       171

      Integral cutoff                 1.00e-12
      Number of threads:                 1

	Batch   1 pq = [       0,    9405] index = [             0,44231715] size =     44231715
	Batch   2 pq = [    9405,   13301] index = [      44231715,88464951] size =     44233236
	Batch   3 pq = [   13301,   14706] index = [      88464951,108140571] size =     19675620
  Task number: 10
  Buffer size: 11059200
  Buffer per thread: 2
  We computed 4739338 shell quartets total.
  Whereas there are 6077841 unique shell quartets.

  ==> DiskJK: Disk-Based J/K Matrices <==

    J tasked:                  Yes
    K tasked:                  Yes
    wK tasked:                  No
    Memory [MiB]:              375
    Schwarz Cutoff:          1E-12

    OpenMP threads:              1

  Minimum eigenvalue in the overlap matrix is 4.2699504617E-03.
  Using Symmetric Orthogonalization.

  SCF Guess: Superposition of Atomic Densities via on-the-fly atomic UHF.

  ==> Iterations <==

                        Total Energy        Delta E     RMS |[F,P]|

   @RHF iter SAD:  -741.40195233284510   -7.41402e+02   0.00000e+00
   @RHF iter   1:  -742.76629526761985   -1.36434e+00   4.25078e-03 DIIS
   @RHF iter   2:  -742.97620180174215   -2.09907e-01   2.33780e-03 DIIS
   @RHF iter   3:  -743.03506306958047   -5.88613e-02   3.82382e-04 DIIS
   @RHF iter   4:  -743.03812871880586   -3.06565e-03   1.41665e-04 DIIS
   @RHF iter   5:  -743.03852380662067   -3.95088e-04   2.30581e-05 DIIS
   @RHF iter   6:  -743.03853831431411   -1.45077e-05   5.21189e-06 DIIS
   @RHF iter   7:  -743.03853912666523   -8.12351e-07   1.73072e-06 DIIS
   @RHF iter   8:  -743.03853920670167   -8.00364e-08   6.12397e-07 DIIS
   @RHF iter   9:  -743.03853921701102   -1.03093e-08   2.95638e-07 DIIS
   @RHF iter  10:  -743.03853921896336   -1.95234e-09   6.95862e-08 DIIS
   @RHF iter  11:  -743.03853921919904   -2.35673e-10   2.52576e-08 DIIS
   @RHF iter  12:  -743.03853921921859   -1.95541e-11   8.57724e-09 DIIS
   @RHF iter  13:  -743.03853921922257   -3.97904e-12   3.29758e-09 DIIS
   @RHF iter  14:  -743.03853921922223    3.41061e-13   1.03109e-09 DIIS
   @RHF iter  15:  -743.03853921922325   -1.02318e-12   3.02767e-10 DIIS
   @RHF iter  16:  -743.03853921922246    7.95808e-13   1.02230e-10 DIIS
   @RHF iter  17:  -743.03853921922450   -2.04636e-12   4.18152e-11 DIIS
  Energy and wave function converged.

  ==> Post-Iterations <==

    Orbital Energies [Eh]
    ---------------------

    Doubly Occupied:

       1A    -91.828543     2A    -20.263709     3A    -20.261214
       4A    -11.151879     5A    -11.137270     6A    -11.115857
       7A    -11.081000     8A    -11.051570     9A     -8.832220
      10A     -6.514404    11A     -6.512822    12A     -6.510608
      13A     -1.148798    14A     -1.036257    15A     -0.951355
      16A     -0.882150    17A     -0.839236    18A     -0.703715
      19A     -0.695522    20A     -0.515001    21A     -0.493705
      22A     -0.489276    23A     -0.463972    24A     -0.460827
      25A     -0.447115    26A     -0.433611    27A     -0.388972
      28A     -0.386814    29A     -0.372793    30A     -0.365861
      31A     -0.324531    32A     -0.320048    33A     -0.302400
      34A     -0.224218    35A     -0.182267    36A     -0.174764
      37A     -0.162805

    Virtual:

      38A      0.283204    39A      0.297571    40A      0.327087
      41A      0.336225    42A      0.356482    43A      0.362428
      44A      0.367879    45A      0.383102    46A      0.391683
      47A      0.395709    48A      0.417676    49A      0.428940
      50A      0.448636    51A      0.470257    52A      0.541093
      53A      0.600229    54A      0.623336    55A      0.670183
      56A      0.681153    57A      0.701725    58A      0.716218
      59A      0.749196    60A      0.752413    61A      0.768337
      62A      0.790911    63A      0.800471    64A      0.833754
      65A      0.851067    66A      0.888938    67A      0.905702
      68A      0.920387    69A      0.953319    70A      0.963910
      71A      0.972689    72A      0.985943    73A      0.992202
      74A      0.996674    75A      1.003268    76A      1.008867
      77A      1.023070    78A      1.031084    79A      1.036847
      80A      1.043180    81A      1.047413    82A      1.058104
      83A      1.067617    84A      1.070774    85A      1.098061
      86A      1.123507    87A      1.149417    88A      1.172510
      89A      1.265174    90A      1.287966    91A      1.305411
      92A      1.317194    93A      1.366327    94A      1.389228
      95A      1.411816    96A      1.418715    97A      1.473175
      98A      1.491731    99A      1.510759   100A      1.528149
     101A      1.545593   102A      1.575884   103A      1.593556
     104A      1.609976   105A      1.637132   106A      1.647441
     107A      1.679312   108A      1.704130   109A      1.718962
     110A      1.773421   111A      1.798717   112A      1.814671
     113A      1.828317   114A      1.969179   115A      1.981900
     116A      1.997401   117A      2.008619   118A      2.020200
     119A      2.027626   120A      2.031398   121A      2.047186
     122A      2.068536   123A      2.085506   124A      2.092892
     125A      2.108041   126A      2.127558   127A      2.130914
     128A      2.142707   129A      2.159732   130A      2.163024
     131A      2.175541   132A      2.182227   133A      2.226736
     134A      2.309552   135A      2.329911   136A      2.339552
     137A      2.351309   138A      2.388736   139A      2.452929
     140A      2.508068   141A      2.513246   142A      2.539307
     143A      2.549626   144A      2.564007   145A      2.597681
     146A      2.645486   147A      2.706120   148A      2.733666
     149A      2.767845   150A      2.808938   151A      2.834818
     152A      2.875774   153A      2.886419   154A      2.902305
     155A      2.907496   156A      2.929777   157A      2.969888
     158A      2.972281   159A      2.997711   160A      3.045580
     161A      3.127943   162A      3.241994   163A      3.282624
     164A      3.297184   165A      3.363569   166A      3.631055
     167A      3.784939   168A      3.822832   169A      4.056325
     170A      4.080108   171A      4.186365

    Final Occupation by Irrep:
              A
    DOCC [    37 ]

  @RHF Final Energy:  -743.03853921922450

   => Energetics <=

    Nuclear Repulsion Energy =            420.5052783043989280
    One-Electron Energy =               -1869.0334195134221318
    Two-Electron Energy =                 705.4896019897987571
    Total Energy =                       -743.0385392192245035

Computation Completed

Properties will be evaluated at   0.000000,   0.000000,   0.000000 [a0]

Properties computed using the SCF density matrix

  Nuclear Dipole Moment: [e a0]
     X:    -0.4036      Y:    -1.5114      Z:     3.4208

  Electronic Dipole Moment: [e a0]
     X:     3.3094      Y:     1.1331      Z:    -2.1389

  Dipole Moment: [e a0]
     X:     2.9058      Y:    -0.3783      Z:     1.2819     Total:     3.1984

  Dipole Moment: [D]
     X:     7.3858      Y:    -0.9616      Z:     3.2582     Total:     8.1296

*** tstop() called on ds3 at Tue Apr 28 09:51:52 2020
Module time:
	user time   =      40.95 seconds =       0.68 minutes
	system time =      17.87 seconds =       0.30 minutes
	total time  =         57 seconds =       0.95 minutes
Total time:
	user time   =      40.95 seconds =       0.68 minutes
	system time =      17.87 seconds =       0.30 minutes
	total time  =         57 seconds =       0.95 minutes
                                     G D M A

                                 by Anthony Stone

                           version 2.2.06, 22 June 2011

               Distributed Multipoles from Gaussian wavefunctions

Starting at 9:51:52 on 28 Apr 2020

Using SCF density matrix from file ./SSI/SSI-053MET-140ASP-1-dimer.test.6662.fchk

                         Distributed Multipole Analysis

Standard DMA

Positions and radii in angstrom
Multipole moments in atomic units, ea_0^k for rank k

C          x =  1.499768  y =  0.844254  z =  0.853074 angstrom
           Maximum rank =  0   Radius =  0.650 angstrom
                   Q00  =  -0.328726

C          x =  3.113768  y =  0.546254  z = -1.379926 angstrom
           Maximum rank =  0   Radius =  0.650 angstrom
                   Q00  =  -0.346831

S          x =  2.935768  y = -0.113746  z =  0.277074 angstrom
           Maximum rank =  0   Radius =  0.650 angstrom
                   Q00  =   0.067630

H          x =  0.722768  y =  0.841254  z =  0.089074 angstrom
           Maximum rank =  0   Radius =  0.325 angstrom
                   Q00  =   0.143894

H          x =  1.107768  y =  0.387254  z =  1.762074 angstrom
           Maximum rank =  0   Radius =  0.325 angstrom
                   Q00  =   0.112803

H          x =  1.792768  y =  1.869254  z =  1.080074 angstrom
           Maximum rank =  0   Radius =  0.325 angstrom
                   Q00  =   0.071143

H          x =  2.206768  y =  0.324254  z = -1.943926 angstrom
           Maximum rank =  0   Radius =  0.325 angstrom
                   Q00  =   0.109498

H          x =  3.951768  y =  0.056254  z = -1.870926 angstrom
           Maximum rank =  0   Radius =  0.325 angstrom
                   Q00  =   0.097357

H          x =  3.273497  y =  1.634584  z = -1.375570 angstrom
           Maximum rank =  0   Radius =  0.325 angstrom
                   Q00  =   0.072730

C          x = -2.055232  y = -0.620746  z =  1.002074 angstrom
           Maximum rank =  0   Radius =  0.650 angstrom
                   Q00  =  -0.109480

C          x = -3.164232  y = -1.648746  z =  0.982074 angstrom
           Maximum rank =  0   Radius =  0.650 angstrom
                   Q00  =  -0.192271

C          x = -1.990232  y =  0.145254  z = -0.306926 angstrom
           Maximum rank =  0   Radius =  0.650 angstrom
                   Q00  =   0.965370

O          x = -1.520232  y = -0.461746  z = -1.302926 angstrom
           Maximum rank =  0   Radius =  0.650 angstrom
                   Q00  =  -0.947281

O          x = -2.369232  y =  1.341254  z = -0.343926 angstrom
           Maximum rank =  0   Radius =  0.650 angstrom
                   Q00  =  -0.930665

H          x = -2.261232  y =  0.083254  z =  1.797074 angstrom
           Maximum rank =  0   Radius =  0.325 angstrom
                   Q00  =   0.015433

H          x = -1.095232  y = -1.102746  z =  1.197074 angstrom
           Maximum rank =  0   Radius =  0.325 angstrom
                   Q00  =   0.032387

H          x = -2.906232  y = -2.400746  z =  0.235074 angstrom
           Maximum rank =  0   Radius =  0.325 angstrom
                   Q00  =   0.074957

H          x = -4.111503  y = -1.155436  z =  0.718775 angstrom
           Maximum rank =  0   Radius =  0.325 angstrom
                   Q00  =   0.068032

H          x = -3.174344  y = -2.150746  z =  1.960794 angstrom
           Maximum rank =  0   Radius =  0.325 angstrom
                   Q00  =   0.024022

Total multipoles referred to origin at
           x =   0.000000,  y =    0.000000,  z =    0.000000 angstrom
                   Q00  =  -1.000000

Finished at 9:51:52 on 28 Apr 2020

  DMA results are available in the Python driver through the
	  variable('DMA DISTRIBUTED MULTIPOLES')
  and
	  variable('DMA TOTAL MULTIPOLES')
  commands.

    Psi4 stopped on: Tuesday, 28 April 2020 09:51AM
    Psi4 wall time for execution: 0:00:57.46

*** Psi4 exiting successfully. Buy a developer a beer!
