                               Psi4 1.3.2 release

  ==> Input File <==

--------------------------------------------------------------------------
import numpy as np
set {scf_type pk
basis cc-pvdz
d_convergence 10
gdma_switch   0
gdma_limit    0
gdma_origin   [ 0.0,  0.0,  0.0 ]
}
molecule test {
    units Angstrom
    0 1
    --
    0 1
    C               -2.688000224546594    -1.855653987393793    -4.216910207975761
    C               -0.890000224546594     0.763346012606207    -1.312910207975762
    C               -1.606000224546594    -0.334653987393793    -0.879910207975761
    C               -0.769000224546594     1.010346012606207    -2.667910207975762
    C               -2.193000224546594    -1.198653987393793    -1.816910207975762
    C               -1.333000224546594     0.134346012606207    -3.584910207975762
    C               -2.066000224546594    -0.968653987393793    -3.181910207975762
    H               -0.434000224546594     1.431346012606207    -0.597910207975761
    H               -1.703000224546594    -0.531653987393793     0.177089792024239
    H               -0.220000224546594     1.875346012606207    -3.013910207975762
    H               -2.756000224546594    -2.051653987393793    -1.465910207975762
    H               -1.224000224546594     0.339346012606207    -4.636910207975762
    H               -3.016000224546594    -1.239653987393793    -5.055910207975761
    H               -3.560000224546594    -2.317653987393793    -3.754910207975762
    H               -2.030426224546594    -2.657764987393793    -4.583260207975761
    C                0.058999775453406     1.813346012606207     2.285089792024238
    C                0.298999775453406     2.663346012606207     3.547089792024239
    C                1.011999775453406     0.662346012606207     2.115089792024239
    C                2.106999775453406     0.799346012606207     1.279089792024239
    C                0.816999775453406    -0.531653987393793     2.781089792024239
    C                3.006999775453406    -0.251653987393793     1.108089792024239
    C                1.730999775453406    -1.574653987393793     2.622089792024239
    C                2.803999775453406    -1.429653987393793     1.781089792024239
    H               -0.955000224546594     1.430346012606207     2.284089792024238
    H                0.151999775453406     2.454346012606208     1.407089792024239
    H                1.372999775453406     2.744346012606207     3.702089792024239
    H                2.274999775453406     1.730346012606207     0.755089792024239
    H               -0.033000224546594    -0.646653987393793     3.437089792024238
    H                3.852999775453406    -0.150653987393793     0.445089792024239
    H                1.582999775453406    -2.506653987393793     3.151089792024238
    H                3.505999775453406    -2.235653987393793     1.642089792024239
    H               -0.165523224546594     2.222276012606208     4.441339792024238
    H               -0.109894224546594     3.668176012606208     3.365119792024238

}
e, wfn = energy('scf', return_wfn=True)
gdma(wfn)
dmavals = variable('DMA DISTRIBUTED MULTIPOLES')
charges = np.array(dmavals)
print(charges)
np.save('SSI-077PHE-116PHE-1-dimer.npy', np.array(charges))--------------------------------------------------------------------------

*** tstart() called on ds3
*** at Tue Apr 28 21:06:57 2020

   => Loading Basis Set <=

    Name: CC-PVDZ
    Role: ORBITAL
    Keyword: BASIS
    atoms 1-7, 16-23  entry C          line   138 file /theoryfs2/ds/metcalf/miniconda2/envs/tf2gpu/share/psi4/basis/cc-pvdz.gbs
    atoms 8-15, 24-33 entry H          line    22 file /theoryfs2/ds/metcalf/miniconda2/envs/tf2gpu/share/psi4/basis/cc-pvdz.gbs

         ---------------------------------------------------------
                                   SCF
               by Justin Turney, Rob Parrish, Andy Simmonett
                          and Daniel G. A. Smith
                              RHF Reference
                        1 Threads,    500 MiB Core
         ---------------------------------------------------------

  ==> Geometry <==

    Molecular point group: c1
    Full point group: C1

    Geometry (in Angstrom), charge = 0, multiplicity = 1:

       Center              X                  Y                   Z               Mass
    ------------   -----------------  -----------------  -----------------  -----------------
         C           -2.688000224547    -1.855653987394    -4.216910207976    12.000000000000
         C           -0.890000224547     0.763346012606    -1.312910207976    12.000000000000
         C           -1.606000224547    -0.334653987394    -0.879910207976    12.000000000000
         C           -0.769000224547     1.010346012606    -2.667910207976    12.000000000000
         C           -2.193000224547    -1.198653987394    -1.816910207976    12.000000000000
         C           -1.333000224547     0.134346012606    -3.584910207976    12.000000000000
         C           -2.066000224547    -0.968653987394    -3.181910207976    12.000000000000
         H           -0.434000224547     1.431346012606    -0.597910207976     1.007825032230
         H           -1.703000224547    -0.531653987394     0.177089792024     1.007825032230
         H           -0.220000224547     1.875346012606    -3.013910207976     1.007825032230
         H           -2.756000224547    -2.051653987394    -1.465910207976     1.007825032230
         H           -1.224000224547     0.339346012606    -4.636910207976     1.007825032230
         H           -3.016000224547    -1.239653987394    -5.055910207976     1.007825032230
         H           -3.560000224547    -2.317653987394    -3.754910207976     1.007825032230
         H           -2.030426224547    -2.657764987394    -4.583260207976     1.007825032230
         C            0.058999775453     1.813346012606     2.285089792024    12.000000000000
         C            0.298999775453     2.663346012606     3.547089792024    12.000000000000
         C            1.011999775453     0.662346012606     2.115089792024    12.000000000000
         C            2.106999775453     0.799346012606     1.279089792024    12.000000000000
         C            0.816999775453    -0.531653987394     2.781089792024    12.000000000000
         C            3.006999775453    -0.251653987394     1.108089792024    12.000000000000
         C            1.730999775453    -1.574653987394     2.622089792024    12.000000000000
         C            2.803999775453    -1.429653987394     1.781089792024    12.000000000000
         H           -0.955000224547     1.430346012606     2.284089792024     1.007825032230
         H            0.151999775453     2.454346012606     1.407089792024     1.007825032230
         H            1.372999775453     2.744346012606     3.702089792024     1.007825032230
         H            2.274999775453     1.730346012606     0.755089792024     1.007825032230
         H           -0.033000224547    -0.646653987394     3.437089792024     1.007825032230
         H            3.852999775453    -0.150653987394     0.445089792024     1.007825032230
         H            1.582999775453    -2.506653987394     3.151089792024     1.007825032230
         H            3.505999775453    -2.235653987394     1.642089792024     1.007825032230
         H           -0.165523224547     2.222276012606     4.441339792024     1.007825032230
         H           -0.109894224547     3.668176012606     3.365119792024     1.007825032230

  Running in c1 symmetry.

  Rotational constants: A =      0.03130  B =      0.00850  C =      0.00777 [cm^-1]
  Rotational constants: A =    938.31811  B =    254.74131  C =    232.97450 [MHz]
  Nuclear repulsion =  871.467536091359648

  Charge       = 0
  Multiplicity = 1
  Electrons    = 108
  Nalpha       = 54
  Nbeta        = 54

  ==> Algorithm <==

  SCF Algorithm Type is PK.
  DIIS enabled.
  MOM disabled.
  Fractional occupation disabled.
  Guess Type is SAD.
  Energy threshold   = 1.00e-06
  Density threshold  = 1.00e-10
  Integral threshold = 0.00e+00

  ==> Primary Basis <==

  Basis Set: CC-PVDZ
    Blend: CC-PVDZ
    Number of shells: 144
    Number of basis function: 300
    Number of Cartesian functions: 315
    Spherical Harmonics?: true
    Max angular momentum: 2

  ==> Pre-Iterations <==

   -------------------------------------------------------
    Irrep   Nso     Nmo     Nalpha   Nbeta   Ndocc  Nsocc
   -------------------------------------------------------
     A        300     300       0       0       0       0
   -------------------------------------------------------
    Total     300     300      54      54      54       0
   -------------------------------------------------------

  ==> Integral Setup <==

  Using integral reordering PK algorithm.
  Sizing the integral batches needed.
  Building batch lookup table.
   Calculation information:
      Number of atoms:                  33
      Number of AO shells:             144
      Number of primitives:            420
      Number of atomic orbitals:       315
      Number of basis functions:       300

      Integral cutoff                 1.00e-12
      Number of threads:                 1

	Batch   1 pq = [       0,    9405] index = [             0,44231715] size =     44231715
	Batch   2 pq = [    9405,   13301] index = [      44231715,88464951] size =     44233236
	Batch   3 pq = [   13301,   16290] index = [      88464951,132690195] size =     44225244
	Batch   4 pq = [   16290,   18810] index = [     132690195,176917455] size =     44227260
	Batch   5 pq = [   18810,   21030] index = [     176917455,221140965] size =     44223510
	Batch   6 pq = [   21030,   23037] index = [     221140965,265363203] size =     44222238
	Batch   7 pq = [   23037,   24883] index = [     265363203,309594286] size =     44231083
	Batch   8 pq = [   24883,   26601] index = [     309594286,353819901] size =     44225615
	Batch   9 pq = [   26601,   28214] index = [     353819901,398029005] size =     44209104
	Batch  10 pq = [   28214,   29740] index = [     398029005,442248670] size =     44219665
	Batch  11 pq = [   29740,   31191] index = [     442248670,486454836] size =     44206166
	Batch  12 pq = [   31191,   32578] index = [     486454836,530679331] size =     44224495
	Batch  13 pq = [   32578,   33908] index = [     530679331,574893186] size =     44213855
	Batch  14 pq = [   33908,   35188] index = [     574893186,619115266] size =     44222080
	Batch  15 pq = [   35188,   36423] index = [     619115266,663335676] size =     44220410
	Batch  16 pq = [   36423,   37617] index = [     663335676,707538153] size =     44202477
	Batch  17 pq = [   37617,   38775] index = [     707538153,751769700] size =     44231547
	Batch  18 pq = [   38775,   39899] index = [     751769700,795985050] size =     44215350
	Batch  19 pq = [   39899,   40992] index = [     795985050,840192528] size =     44207478
	Batch  20 pq = [   40992,   42057] index = [     840192528,884416653] size =     44224125
	Batch  21 pq = [   42057,   43095] index = [     884416653,928611060] size =     44194407
	Batch  22 pq = [   43095,   44109] index = [     928611060,972823995] size =     44212935
	Batch  23 pq = [   44109,   45150] index = [     972823995,1019283825] size =     46459830
  Task number: 93
  Buffer size: 11059200
  Buffer per thread: 2
  We computed 49610526 shell quartets total.
  Whereas there are 54502020 unique shell quartets.

  ==> DiskJK: Disk-Based J/K Matrices <==

    J tasked:                  Yes
    K tasked:                  Yes
    wK tasked:                  No
    Memory [MiB]:              375
    Schwarz Cutoff:          1E-12

    OpenMP threads:              1

  Minimum eigenvalue in the overlap matrix is 2.8510810896E-04.
  Using Symmetric Orthogonalization.

  SCF Guess: Superposition of Atomic Densities via on-the-fly atomic UHF.

  ==> Iterations <==

                        Total Energy        Delta E     RMS |[F,P]|

   @RHF iter SAD:  -577.55814773296333   -5.77558e+02   0.00000e+00
   @RHF iter   1:  -578.22873320611700   -6.70585e-01   2.24257e-03 DIIS
   @RHF iter   2:  -578.50659267460082   -2.77859e-01   9.28288e-04 DIIS
   @RHF iter   3:  -578.54895576888339   -4.23631e-02   2.08446e-04 DIIS
   @RHF iter   4:  -578.55248963977260   -3.53387e-03   4.27578e-05 DIIS
   @RHF iter   5:  -578.55260088508930   -1.11245e-04   1.41603e-05 DIIS
   @RHF iter   6:  -578.55261240217021   -1.15171e-05   3.78262e-06 DIIS
   @RHF iter   7:  -578.55261344824521   -1.04607e-06   1.15364e-06 DIIS
   @RHF iter   8:  -578.55261356807637   -1.19831e-07   3.70368e-07 DIIS
   @RHF iter   9:  -578.55261359439169   -2.63153e-08   1.82522e-07 DIIS
   @RHF iter  10:  -578.55261360153895   -7.14726e-09   9.11403e-08 DIIS
   @RHF iter  11:  -578.55261360366148   -2.12253e-09   3.54014e-08 DIIS
   @RHF iter  12:  -578.55261360386521   -2.03727e-10   1.34461e-08 DIIS
   @RHF iter  13:  -578.55261360389022   -2.50111e-11   4.30299e-09 DIIS
   @RHF iter  14:  -578.55261360389409   -3.86535e-12   1.22721e-09 DIIS
   @RHF iter  15:  -578.55261360388874    5.34328e-12   4.60421e-10 DIIS
   @RHF iter  16:  -578.55261360389272   -3.97904e-12   1.90009e-10 DIIS
   @RHF iter  17:  -578.55261360388749    5.22959e-12   1.00220e-10 DIIS
   @RHF iter  18:  -578.55261360389045   -2.95586e-12   3.96543e-11 DIIS
  Energy and wave function converged.

  ==> Post-Iterations <==

    Orbital Energies [Eh]
    ---------------------

    Doubly Occupied:

       1A    -11.234227     2A    -11.233928     3A    -11.232879
       4A    -11.231680     5A    -11.229658     6A    -11.229534
       7A    -11.229254     8A    -11.228498     9A    -11.228466
      10A    -11.226848    11A    -11.226626    12A    -11.225110
      13A    -11.225085    14A    -11.223451    15A    -11.222821
      16A     -1.159403    17A     -1.150998    18A     -1.065944
      19A     -1.044261    20A     -1.011397    21A     -1.005525
      22A     -0.984572    23A     -0.929520    24A     -0.863825
      25A     -0.829499    26A     -0.822370    27A     -0.790954
      28A     -0.785230    29A     -0.693289    30A     -0.688039
      31A     -0.642336    32A     -0.632868    33A     -0.629215
      34A     -0.624924    35A     -0.593307    36A     -0.588595
      37A     -0.576834    38A     -0.575701    39A     -0.574768
      40A     -0.560932    41A     -0.541368    42A     -0.533836
      43A     -0.518328    44A     -0.501076    45A     -0.485756
      46A     -0.483786    47A     -0.481020    48A     -0.478524
      49A     -0.475210    50A     -0.466432    51A     -0.330913
      52A     -0.327632    53A     -0.325397    54A     -0.318817

    Virtual:

      55A      0.133301    56A      0.140395    57A      0.144684
      58A      0.148141    59A      0.173692    60A      0.191294
      61A      0.199589    62A      0.202150    63A      0.209626
      64A      0.224156    65A      0.239297    66A      0.239543
      67A      0.244468    68A      0.259472    69A      0.263490
      70A      0.265998    71A      0.278955    72A      0.286947
      73A      0.291485    74A      0.299305    75A      0.321322
      76A      0.340798    77A      0.350452    78A      0.374073
      79A      0.382068    80A      0.396450    81A      0.415047
      82A      0.454748    83A      0.456729    84A      0.470598
      85A      0.471754    86A      0.484866    87A      0.491931
      88A      0.500879    89A      0.508437    90A      0.562582
      91A      0.569575    92A      0.591574    93A      0.601867
      94A      0.623807    95A      0.638358    96A      0.642253
      97A      0.668960    98A      0.672255    99A      0.687726
     100A      0.691339   101A      0.703643   102A      0.708309
     103A      0.717923   104A      0.724223   105A      0.728888
     106A      0.734364   107A      0.739061   108A      0.745355
     109A      0.747147   110A      0.751964   111A      0.755804
     112A      0.758854   113A      0.769010   114A      0.771434
     115A      0.775935   116A      0.788376   117A      0.793716
     118A      0.813680   119A      0.829951   120A      0.837532
     121A      0.845507   122A      0.859925   123A      0.869867
     124A      0.873535   125A      0.876181   126A      0.878290
     127A      0.881564   128A      0.891671   129A      0.893508
     130A      0.902150   131A      0.903795   132A      0.906072
     133A      0.915751   134A      0.923518   135A      0.927898
     136A      0.937479   137A      0.941150   138A      0.947089
     139A      0.957321   140A      0.967264   141A      0.976210
     142A      0.982678   143A      0.999929   144A      1.023502
     145A      1.031188   146A      1.042977   147A      1.049280
     148A      1.081421   149A      1.129006   150A      1.135722
     151A      1.144433   152A      1.153073   153A      1.156200
     154A      1.159996   155A      1.168723   156A      1.182177
     157A      1.186538   158A      1.210761   159A      1.234742
     160A      1.240016   161A      1.247586   162A      1.250197
     163A      1.259000   164A      1.263280   165A      1.268729
     166A      1.293830   167A      1.303022   168A      1.307711
     169A      1.312903   170A      1.317497   171A      1.324359
     172A      1.328176   173A      1.332378   174A      1.346946
     175A      1.382578   176A      1.422325   177A      1.445330
     178A      1.460491   179A      1.508534   180A      1.515923
     181A      1.524920   182A      1.539642   183A      1.565386
     184A      1.606671   185A      1.619302   186A      1.632706
     187A      1.670515   188A      1.676692   189A      1.697632
     190A      1.702241   191A      1.724080   192A      1.739994
     193A      1.749758   194A      1.753188   195A      1.755392
     196A      1.771898   197A      1.773771   198A      1.799254
     199A      1.814904   200A      1.839599   201A      1.855961
     202A      1.867640   203A      1.872872   204A      1.883548
     205A      1.888084   206A      1.897207   207A      1.902981
     208A      1.906369   209A      1.912050   210A      1.920434
     211A      1.925554   212A      1.928571   213A      1.931703
     214A      1.939839   215A      1.947351   216A      1.951755
     217A      1.960747   218A      1.964497   219A      1.968751
     220A      1.979651   221A      1.983472   222A      1.988902
     223A      1.997033   224A      2.005233   225A      2.009689
     226A      2.018219   227A      2.027967   228A      2.055208
     229A      2.065919   230A      2.069249   231A      2.074108
     232A      2.085900   233A      2.106430   234A      2.119030
     235A      2.130834   236A      2.145092   237A      2.155437
     238A      2.171361   239A      2.173316   240A      2.177968
     241A      2.183825   242A      2.190317   243A      2.196951
     244A      2.211566   245A      2.224466   246A      2.255134
     247A      2.265012   248A      2.277303   249A      2.279956
     250A      2.287064   251A      2.294405   252A      2.302781
     253A      2.305814   254A      2.313925   255A      2.328142
     256A      2.336863   257A      2.380768   258A      2.396049
     259A      2.434188   260A      2.461621   261A      2.474619
     262A      2.486500   263A      2.492951   264A      2.509181
     265A      2.527973   266A      2.556548   267A      2.568143
     268A      2.582673   269A      2.627957   270A      2.649407
     271A      2.747929   272A      2.750555   273A      2.770076
     274A      2.773708   275A      2.774029   276A      2.789994
     277A      2.800940   278A      2.808308   279A      2.816266
     280A      2.827192   281A      2.847432   282A      2.859303
     283A      2.861809   284A      2.882898   285A      2.901244
     286A      2.980388   287A      2.998690   288A      3.001910
     289A      3.019229   290A      3.034398   291A      3.037565
     292A      3.075701   293A      3.165504   294A      3.189883
     295A      3.221671   296A      3.224149   297A      3.316366
     298A      3.325669   299A      3.985309   300A      4.008094

    Final Occupation by Irrep:
              A
    DOCC [    54 ]

  @RHF Final Energy:  -578.55261360389045

   => Energetics <=

    Nuclear Repulsion Energy =            871.4675360913596478
    One-Electron Energy =               -2510.9993715265272840
    Two-Electron Energy =                1060.9792218312770729
    Total Energy =                       -578.5526136038904497

Computation Completed

Properties will be evaluated at   0.000000,   0.000000,   0.000000 [a0]

Properties computed using the SCF density matrix

  Nuclear Dipole Moment: [e a0]
     X:    -3.2482      Y:     3.3354      Z:     1.5923

  Electronic Dipole Moment: [e a0]
     X:     3.2098      Y:    -3.3363      Z:    -1.5992

  Dipole Moment: [e a0]
     X:    -0.0384      Y:    -0.0009      Z:    -0.0069     Total:     0.0390

  Dipole Moment: [D]
     X:    -0.0976      Y:    -0.0024      Z:    -0.0176     Total:     0.0992

*** tstop() called on ds3 at Tue Apr 28 21:22:07 2020
Module time:
	user time   =     416.40 seconds =       6.94 minutes
	system time =     153.28 seconds =       2.55 minutes
	total time  =        910 seconds =      15.17 minutes
Total time:
	user time   =     416.40 seconds =       6.94 minutes
	system time =     153.28 seconds =       2.55 minutes
	total time  =        910 seconds =      15.17 minutes
                                     G D M A

                                 by Anthony Stone

                           version 2.2.06, 22 June 2011

               Distributed Multipoles from Gaussian wavefunctions

Starting at 21:22:7 on 28 Apr 2020

Using SCF density matrix from file ./SSI/SSI-077PHE-116PHE-1-dimer.test.9259.fchk

                         Distributed Multipole Analysis

Standard DMA

Positions and radii in angstrom
Multipole moments in atomic units, ea_0^k for rank k

C          x = -2.688000  y = -1.855654  z = -4.216910 angstrom
           Maximum rank =  0   Radius =  0.650 angstrom
                   Q00  =  -0.203945

C          x = -0.890000  y =  0.763346  z = -1.312910 angstrom
           Maximum rank =  0   Radius =  0.650 angstrom
                   Q00  =  -0.083612

C          x = -1.606000  y = -0.334654  z = -0.879910 angstrom
           Maximum rank =  0   Radius =  0.650 angstrom
                   Q00  =  -0.076298

C          x = -0.769000  y =  1.010346  z = -2.667910 angstrom
           Maximum rank =  0   Radius =  0.650 angstrom
                   Q00  =  -0.056862

C          x = -2.193000  y = -1.198654  z = -1.816910 angstrom
           Maximum rank =  0   Radius =  0.650 angstrom
                   Q00  =  -0.055127

C          x = -1.333000  y =  0.134346  z = -3.584910 angstrom
           Maximum rank =  0   Radius =  0.650 angstrom
                   Q00  =  -0.003915

C          x = -2.066000  y = -0.968654  z = -3.181910 angstrom
           Maximum rank =  0   Radius =  0.650 angstrom
                   Q00  =  -0.101769

H          x = -0.434000  y =  1.431346  z = -0.597910 angstrom
           Maximum rank =  0   Radius =  0.325 angstrom
                   Q00  =   0.053333

H          x = -1.703000  y = -0.531654  z =  0.177090 angstrom
           Maximum rank =  0   Radius =  0.325 angstrom
                   Q00  =   0.063821

H          x = -0.220000  y =  1.875346  z = -3.013910 angstrom
           Maximum rank =  0   Radius =  0.325 angstrom
                   Q00  =   0.057665

H          x = -2.756000  y = -2.051654  z = -1.465910 angstrom
           Maximum rank =  0   Radius =  0.325 angstrom
                   Q00  =   0.054213

H          x = -1.224000  y =  0.339346  z = -4.636910 angstrom
           Maximum rank =  0   Radius =  0.325 angstrom
                   Q00  =   0.049632

H          x = -3.016000  y = -1.239654  z = -5.055910 angstrom
           Maximum rank =  0   Radius =  0.325 angstrom
                   Q00  =   0.098439

H          x = -3.560000  y = -2.317654  z = -3.754910 angstrom
           Maximum rank =  0   Radius =  0.325 angstrom
                   Q00  =   0.096253

H          x = -2.030426  y = -2.657765  z = -4.583260 angstrom
           Maximum rank =  0   Radius =  0.325 angstrom
                   Q00  =   0.105300

C          x =  0.059000  y =  1.813346  z =  2.285090 angstrom
           Maximum rank =  0   Radius =  0.650 angstrom
                   Q00  =  -0.048081

C          x =  0.299000  y =  2.663346  z =  3.547090 angstrom
           Maximum rank =  0   Radius =  0.650 angstrom
                   Q00  =  -0.238663

C          x =  1.012000  y =  0.662346  z =  2.115090 angstrom
           Maximum rank =  0   Radius =  0.650 angstrom
                   Q00  =  -0.105218

C          x =  2.107000  y =  0.799346  z =  1.279090 angstrom
           Maximum rank =  0   Radius =  0.650 angstrom
                   Q00  =  -0.025297

C          x =  0.817000  y = -0.531654  z =  2.781090 angstrom
           Maximum rank =  0   Radius =  0.650 angstrom
                   Q00  =  -0.088245

C          x =  3.007000  y = -0.251654  z =  1.108090 angstrom
           Maximum rank =  0   Radius =  0.650 angstrom
                   Q00  =  -0.065639

C          x =  1.731000  y = -1.574654  z =  2.622090 angstrom
           Maximum rank =  0   Radius =  0.650 angstrom
                   Q00  =  -0.028839

C          x =  2.804000  y = -1.429654  z =  1.781090 angstrom
           Maximum rank =  0   Radius =  0.650 angstrom
                   Q00  =  -0.079418

H          x = -0.955000  y =  1.430346  z =  2.284090 angstrom
           Maximum rank =  0   Radius =  0.325 angstrom
                   Q00  =   0.067968

H          x =  0.152000  y =  2.454346  z =  1.407090 angstrom
           Maximum rank =  0   Radius =  0.325 angstrom
                   Q00  =   0.061106

H          x =  1.373000  y =  2.744346  z =  3.702090 angstrom
           Maximum rank =  0   Radius =  0.325 angstrom
                   Q00  =   0.088634

H          x =  2.275000  y =  1.730346  z =  0.755090 angstrom
           Maximum rank =  0   Radius =  0.325 angstrom
                   Q00  =   0.053493

H          x = -0.033000  y = -0.646654  z =  3.437090 angstrom
           Maximum rank =  0   Radius =  0.325 angstrom
                   Q00  =   0.054499

H          x =  3.853000  y = -0.150654  z =  0.445090 angstrom
           Maximum rank =  0   Radius =  0.325 angstrom
                   Q00  =   0.064324

H          x =  1.583000  y = -2.506654  z =  3.151090 angstrom
           Maximum rank =  0   Radius =  0.325 angstrom
                   Q00  =   0.062079

H          x =  3.506000  y = -2.235654  z =  1.642090 angstrom
           Maximum rank =  0   Radius =  0.325 angstrom
                   Q00  =   0.056262

H          x = -0.165523  y =  2.222276  z =  4.441340 angstrom
           Maximum rank =  0   Radius =  0.325 angstrom
                   Q00  =   0.085306

H          x = -0.109894  y =  3.668176  z =  3.365120 angstrom
           Maximum rank =  0   Radius =  0.325 angstrom
                   Q00  =   0.088601

Total multipoles referred to origin at
           x =   0.000000,  y =    0.000000,  z =    0.000000 angstrom
                   Q00  =  -0.000000

Finished at 21:22:7 on 28 Apr 2020

  DMA results are available in the Python driver through the
	  variable('DMA DISTRIBUTED MULTIPOLES')
  and
	  variable('DMA TOTAL MULTIPOLES')
  commands.

    Psi4 stopped on: Tuesday, 28 April 2020 09:22PM
    Psi4 wall time for execution: 0:15:10.01

*** Psi4 exiting successfully. Buy a developer a beer!
